GROningen MAchine for Chemical Simulation
95940
    1G5    HO5'    1   4.911   7.087   5.514
    1G5     O5'    2   4.881   7.148   5.446
    1G5     C5'    3   4.744   7.173   5.466
    1G5     H5'    4   4.721   7.231   5.555
    1G5    H5''    5   4.704   7.075   5.494
    1G5     C4'    6   4.665   7.245   5.354
    1G5     H4'    7   4.563   7.265   5.387
    1G5     O4'    8   4.733   7.361   5.310
    1G5     C1'    9   4.739   7.368   5.163
    1G5     H1'   10   4.697   7.460   5.121
    1G5      N9   11   4.882   7.369   5.117
    1G5      C8   12   5.000   7.344   5.186
    1G5      H8   13   5.006   7.330   5.293
    1G5      N7   14   5.106   7.357   5.109
    1G5      C5   15   5.058   7.384   4.982
    1G5      C6   16   5.130   7.430   4.863
    1G5      O6   17   5.250   7.428   4.837
    1G5      N1   18   5.048   7.457   4.759
    1G5      H1   19   5.096   7.482   4.674
    1G5      C2   20   4.915   7.462   4.772
    1G5      N2   21   4.854   7.490   4.664
    1G5     H21   22   4.909   7.501   4.581
    1G5     H22   23   4.753   7.478   4.667
    1G5      N3   24   4.850   7.425   4.879
    1G5      C4   25   4.926   7.396   4.987
    1G5     C3'   26   4.652   7.156   5.228
    1G5     H3'   27   4.738   7.089   5.219
    1G5     C2'   28   4.657   7.255   5.112
    1G5     H2'   29   4.704   7.222   5.019
    1G5     O2'   30   4.525   7.303   5.078
    1G5    HO2'   31   4.471   7.277   5.153
    1G5     O3'   32   4.537   7.069   5.225
    2G        P   33   4.533   6.927   5.154
    2G      OP1   34   4.392   6.893   5.143
    2G      OP2   35   4.630   6.839   5.223
    2G      O5'   36   4.598   6.962   5.008
    2G      C5'   37   4.523   7.005   4.894
    2G      H5'   38   4.476   7.100   4.918
    2G     H5''   39   4.443   6.935   4.874
    2G      C4'   40   4.606   7.028   4.759
    2G      H4'   41   4.541   7.069   4.681
    2G      O4'   42   4.703   7.126   4.786
    2G      C1'   43   4.823   7.095   4.719
    2G      H1'   44   4.847   7.188   4.666
    2G       N9   45   4.938   7.061   4.814
    2G       C8   46   4.937   7.010   4.943
    2G       H8   47   4.850   6.982   5.000
    2G       N7   48   5.055   7.012   4.995
    2G       C5   49   5.141   7.055   4.896
    2G       C6   50   5.281   7.080   4.886
    2G       O6   51   5.369   7.055   4.966
    2G       N1   52   5.330   7.120   4.766
    2G       H1   53   5.430   7.130   4.755
    2G       C2   54   5.243   7.155   4.657
    2G       N2   55   5.298   7.212   4.555
    2G      H21   56   5.397   7.232   4.545
    2G      H22   57   5.232   7.261   4.496
    2G       N3   58   5.113   7.136   4.663
    2G       C4   59   5.066   7.086   4.783
    2G      C3'   60   4.676   6.907   4.703
    2G      H3'   61   4.711   6.860   4.795
    2G      C2'   62   4.793   6.976   4.624
    2G      H2'   63   4.884   6.918   4.611
    2G      O2'   64   4.741   7.035   4.505
    2G     HO2'   65   4.802   7.097   4.465
    2G      O3'   66   4.598   6.807   4.633
    3G        P   67   4.660   6.658   4.609
    3G      OP1   68   4.554   6.585   4.528
    3G      OP2   69   4.702   6.603   4.739
    3G      O5'   70   4.804   6.671   4.533
    3G      C5'   71   4.817   6.703   4.394
    3G      H5'   72   4.764   6.791   4.358
    3G     H5''   73   4.762   6.632   4.333
    3G      C4'   74   4.963   6.717   4.339
    3G      H4'   75   4.960   6.740   4.232
    3G      O4'   76   5.034   6.812   4.406
    3G      C1'   77   5.166   6.764   4.437
    3G      H1'   78   5.235   6.836   4.393
    3G       N9   79   5.185   6.764   4.583
    3G       C8   80   5.092   6.766   4.687
    3G       H8   81   4.987   6.763   4.664
    3G       N7   82   5.145   6.773   4.803
    3G       C5   83   5.284   6.755   4.780
    3G       C6   84   5.395   6.744   4.874
    3G       O6   85   5.406   6.726   4.998
    3G       N1   86   5.516   6.754   4.807
    3G       H1   87   5.593   6.767   4.870
    3G       C2   88   5.531   6.763   4.671
    3G       N2   89   5.660   6.757   4.628
    3G      H21   90   5.734   6.741   4.695
    3G      H22   91   5.671   6.762   4.528
    3G       N3   92   5.433   6.770   4.584
    3G       C4   93   5.306   6.764   4.646
    3G      C3'   94   5.038   6.589   4.358
    3G      H3'   95   5.018   6.548   4.456
    3G      C2'   96   5.186   6.635   4.365
    3G      H2'   97   5.240   6.556   4.418
    3G      O2'   98   5.238   6.651   4.236
    3G     HO2'   99   5.204   6.734   4.199
    3G      O3'  100   5.013   6.493   4.257
    4U        P  101   5.006   6.335   4.300
    4U      OP1  102   4.991   6.261   4.176
    4U      OP2  103   4.907   6.322   4.411
    4U      O5'  104   5.150   6.296   4.358
    4U      C5'  105   5.272   6.309   4.283
    4U      H5'  106   5.266   6.408   4.237
    4U     H5''  107   5.293   6.232   4.209
    4U      C4'  108   5.402   6.295   4.369
    4U      H4'  109   5.487   6.301   4.301
    4U      O4'  110   5.418   6.406   4.451
    4U      C1'  111   5.481   6.368   4.573
    4U      H1'  112   5.564   6.437   4.592
    4U       N1  113   5.385   6.380   4.685
    4U       C6  114   5.244   6.400   4.675
    4U       H6  115   5.192   6.389   4.581
    4U       C5  116   5.164   6.430   4.778
    4U       H5  117   5.061   6.458   4.767
    4U       C4  118   5.221   6.442   4.911
    4U       O4  119   5.164   6.469   5.019
    4U       N3  120   5.354   6.435   4.913
    4U       H3  121   5.393   6.433   5.006
    4U       C2  122   5.442   6.391   4.814
    4U       O2  123   5.559   6.362   4.845
    4U      C3'  124   5.417   6.177   4.462
    4U      H3'  125   5.329   6.142   4.517
    4U      C2'  126   5.520   6.223   4.562
    4U      H2'  127   5.510   6.170   4.656
    4U      O2'  128   5.656   6.218   4.511
    4U     HO2'  129   5.666   6.259   4.425
    4U      O3'  130   5.462   6.062   4.397
    5U        P  131   5.463   5.916   4.443
    5U      OP1  132   5.517   5.831   4.336
    5U      OP2  133   5.323   5.883   4.486
    5U      O5'  134   5.559   5.879   4.569
    5U      C5'  135   5.695   5.906   4.557
    5U      H5'  136   5.724   6.008   4.533
    5U     H5''  137   5.749   5.852   4.480
    5U      C4'  138   5.764   5.877   4.692
    5U      H4'  139   5.748   5.774   4.724
    5U      O4'  140   5.905   5.900   4.661
    5U      C1'  141   5.952   6.022   4.723
    5U      H1'  142   6.019   5.990   4.803
    5U       N1  143   6.021   6.108   4.622
    5U       C6  144   6.000   6.102   4.488
    5U       H6  145   5.921   6.037   4.451
    5U       C5  146   6.078   6.179   4.401
    5U       H5  147   6.062   6.169   4.295
    5U       C4  148   6.184   6.267   4.447
    5U       O4  149   6.270   6.316   4.378
    5U       N3  150   6.201   6.258   4.586
    5U       H3  151   6.290   6.288   4.623
    5U       C2  152   6.120   6.193   4.674
    5U       O2  153   6.147   6.204   4.791
    5U      C3'  154   5.722   5.982   4.806
    5U      H3'  155   5.619   6.016   4.807
    5U      C2'  156   5.830   6.090   4.789
    5U      H2'  157   5.779   6.165   4.729
    5U      O2'  158   5.859   6.148   4.924
    5U     HO2'  159   5.894   6.235   4.907
    5U      O3'  160   5.737   5.911   4.929
    6A        P  161   5.637   5.807   4.991
    6A      OP1  162   5.707   5.731   5.099
    6A      OP2  163   5.576   5.732   4.882
    6A      O5'  164   5.515   5.893   5.064
    6A      C5'  165   5.523   5.954   5.194
    6A      H5'  166   5.605   6.026   5.204
    6A     H5''  167   5.524   5.873   5.267
    6A      C4'  168   5.400   6.042   5.230
    6A      H4'  169   5.400   6.072   5.335
    6A      O4'  170   5.374   6.153   5.152
    6A      C1'  171   5.234   6.150   5.117
    6A      H1'  172   5.183   6.245   5.126
    6A       N9  173   5.227   6.098   4.977
    6A       C8  174   5.337   6.086   4.893
    6A       H8  175   5.437   6.103   4.931
    6A       N7  176   5.304   6.058   4.771
    6A       C5  177   5.164   6.056   4.779
    6A       C6  178   5.060   6.030   4.685
    6A       N6  179   5.080   5.997   4.560
    6A      H61  180   5.006   6.010   4.492
    6A      H62  181   5.174   5.972   4.531
    6A       N1  182   4.929   6.051   4.714
    6A       C2  183   4.902   6.100   4.835
    6A       H2  184   4.796   6.104   4.857
    6A       N3  185   4.987   6.113   4.937
    6A       C4  186   5.109   6.097   4.897
    6A      C3'  187   5.278   5.955   5.231
    6A      H3'  188   5.282   5.889   5.144
    6A      C2'  189   5.169   6.054   5.218
    6A      H2'  190   5.078   6.007   5.180
    6A      O2'  191   5.138   6.133   5.333
    6A     HO2'  192   5.104   6.080   5.406
    6A      O3'  193   5.263   5.878   5.348
    7G        P  194   5.200   5.736   5.341
    7G      OP1  195   5.160   5.695   5.476
    7G      OP2  196   5.295   5.658   5.267
    7G      O5'  197   5.064   5.755   5.248
    7G      C5'  198   4.938   5.779   5.311
    7G      H5'  199   4.934   5.878   5.357
    7G     H5''  200   4.917   5.709   5.393
    7G      C4'  201   4.822   5.763   5.210
    7G      H4'  202   4.723   5.784   5.250
    7G      O4'  203   4.828   5.834   5.089
    7G      C1'  204   4.786   5.753   4.979
    7G      H1'  205   4.722   5.807   4.910
    7G       N9  206   4.906   5.724   4.901
    7G       C8  207   5.032   5.754   4.923
    7G       H8  208   5.063   5.801   5.015
    7G       N7  209   5.121   5.735   4.829
    7G       C5  210   5.042   5.674   4.737
    7G       C6  211   5.075   5.622   4.604
    7G       O6  212   5.186   5.616   4.549
    7G       N1  213   4.964   5.569   4.531
    7G       H1  214   4.980   5.555   4.432
    7G       C2  215   4.841   5.580   4.581
    7G       N2  216   4.748   5.533   4.506
    7G      H21  217   4.769   5.509   4.410
    7G      H22  218   4.652   5.549   4.534
    7G       N3  219   4.806   5.619   4.706
    7G       C4  220   4.911   5.669   4.775
    7G      C3'  221   4.814   5.612   5.173
    7G      H3'  222   4.918   5.590   5.149
    7G      C2'  223   4.734   5.631   5.041
    7G      H2'  224   4.748   5.546   4.975
    7G      O2'  225   4.596   5.654   5.059
    7G     HO2'  226   4.570   5.631   5.148
    7G      O3'  227   4.743   5.533   5.262
    8G        P  228   4.782   5.384   5.291
    8G      OP1  229   4.686   5.322   5.384
    8G      OP2  230   4.925   5.386   5.331
    8G      O5'  231   4.771   5.301   5.155
    8G      C5'  232   4.643   5.278   5.099
    8G      H5'  233   4.598   5.377   5.085
    8G     H5''  234   4.584   5.213   5.163
    8G      C4'  235   4.642   5.214   4.957
    8G      H4'  236   4.541   5.179   4.939
    8G      O4'  237   4.670   5.319   4.860
    8G      C1'  238   4.755   5.256   4.758
    8G      H1'  239   4.719   5.272   4.657
    8G       N9  240   4.890   5.299   4.781
    8G       C8  241   4.942   5.365   4.890
    8G       H8  242   4.884   5.406   4.972
    8G       N7  243   5.072   5.384   4.885
    8G       C5  244   5.107   5.332   4.763
    8G       C6  245   5.233   5.349   4.692
    8G       O6  246   5.342   5.391   4.726
    8G       N1  247   5.219   5.311   4.557
    8G       H1  248   5.300   5.313   4.497
    8G       C2  249   5.108   5.259   4.505
    8G       N2  250   5.117   5.236   4.377
    8G      H21  251   5.205   5.256   4.333
    8G      H22  252   5.030   5.213   4.332
    8G       N3  253   4.995   5.245   4.567
    8G       C4  254   4.997   5.281   4.698
    8G      C3'  255   4.738   5.092   4.928
    8G      H3'  256   4.838   5.117   4.961
    8G      C2'  257   4.753   5.105   4.777
    8G      H2'  258   4.841   5.051   4.743
    8G      O2'  259   4.638   5.065   4.713
    8G     HO2'  260   4.635   4.973   4.739
    8G      O3'  261   4.698   4.963   4.967
    9G        P  262   4.802   4.863   5.034
    9G      OP1  263   4.736   4.732   5.058
    9G      OP2  264   4.874   4.930   5.142
    9G      O5'  265   4.893   4.843   4.907
    9G      C5'  266   4.855   4.776   4.790
    9G      H5'  267   4.775   4.831   4.739
    9G     H5''  268   4.820   4.677   4.818
    9G      C4'  269   4.966   4.746   4.693
    9G      H4'  270   4.921   4.687   4.613
    9G      O4'  271   5.027   4.866   4.643
    9G      C1'  272   5.163   4.848   4.613
    9G      H1'  273   5.192   4.861   4.509
    9G       N9  274   5.235   4.938   4.712
    9G       C8  275   5.187   5.010   4.816
    9G       H8  276   5.081   5.015   4.835
    9G       N7  277   5.276   5.084   4.868
    9G       C5  278   5.396   5.058   4.798
    9G       C6  279   5.521   5.121   4.814
    9G       O6  280   5.558   5.208   4.891
    9G       N1  281   5.612   5.069   4.725
    9G       H1  282   5.684   5.136   4.701
    9G       C2  283   5.579   4.975   4.634
    9G       N2  284   5.676   4.942   4.555
    9G      H21  285   5.771   4.974   4.567
    9G      H22  286   5.659   4.887   4.471
    9G       N3  287   5.461   4.919   4.612
    9G       C4  288   5.368   4.967   4.698
    9G      C3'  289   5.081   4.661   4.741
    9G      H3'  290   5.113   4.696   4.840
    9G      C2'  291   5.191   4.702   4.641
    9G      H2'  292   5.293   4.689   4.679
    9G      O2'  293   5.181   4.633   4.519
    9G     HO2'  294   5.157   4.541   4.532
    9G      O3'  295   5.048   4.528   4.745
   10U        P  296   5.125   4.431   4.847
   10U      OP1  297   5.097   4.291   4.814
   10U      OP2  298   5.098   4.478   4.990
   10U      O5'  299   5.276   4.467   4.821
   10U      C5'  300   5.361   4.379   4.752
   10U      H5'  301   5.330   4.371   4.647
   10U     H5''  302   5.345   4.280   4.795
   10U      C4'  303   5.503   4.423   4.779
   10U      H4'  304   5.567   4.369   4.710
   10U      O4'  305   5.536   4.555   4.746
   10U      C1'  306   5.632   4.613   4.842
   10U      H1'  307   5.719   4.657   4.792
   10U       N1  308   5.585   4.715   4.932
   10U       C6  309   5.456   4.708   4.973
   10U       H6  310   5.397   4.619   4.957
   10U       C5  311   5.403   4.813   5.050
   10U       H5  312   5.304   4.795   5.090
   10U       C4  313   5.481   4.924   5.090
   10U       O4  314   5.444   5.021   5.157
   10U       N3  315   5.614   4.926   5.036
   10U       H3  316   5.680   5.000   5.054
   10U       C2  317   5.664   4.821   4.957
   10U       O2  318   5.781   4.831   4.917
   10U      C3'  319   5.558   4.398   4.918
   10U      H3'  320   5.484   4.431   4.990
   10U      C2'  321   5.681   4.493   4.926
   10U      H2'  322   5.701   4.517   5.031
   10U      O2'  323   5.802   4.444   4.869
   10U     HO2'  324   5.813   4.352   4.894
   10U      O3'  325   5.589   4.265   4.941
   11U        P  326   5.583   4.211   5.089
   11U      OP1  327   5.595   4.063   5.082
   11U      OP2  328   5.463   4.267   5.148
   11U      O5'  329   5.697   4.258   5.179
   11U      C5'  330   5.825   4.214   5.175
   11U      H5'  331   5.856   4.229   5.072
   11U     H5''  332   5.832   4.107   5.192
   11U      C4'  333   5.923   4.283   5.278
   11U      H4'  334   6.018   4.231   5.265
   11U      O4'  335   5.941   4.422   5.250
   11U      C1'  336   5.980   4.490   5.371
   11U      H1'  337   6.087   4.508   5.375
   11U       N1  338   5.893   4.609   5.386
   11U       C6  339   5.761   4.608   5.343
   11U       H6  340   5.719   4.517   5.303
   11U       C5  341   5.686   4.723   5.343
   11U       H5  342   5.583   4.720   5.311
   11U       C4  343   5.747   4.848   5.384
   11U       O4  344   5.696   4.956   5.391
   11U       N3  345   5.877   4.840   5.429
   11U       H3  346   5.926   4.928   5.443
   11U       C2  347   5.954   4.728   5.439
   11U       O2  348   6.068   4.739   5.481
   11U      C3'  349   5.859   4.272   5.420
   11U      H3'  350   5.752   4.290   5.414
   11U      C2'  351   5.936   4.392   5.483
   11U      H2'  352   5.863   4.438   5.550
   11U      O2'  353   6.058   4.360   5.545
   11U     HO2'  354   6.085   4.268   5.537
   11U      O3'  355   5.890   4.158   5.496
   12A        P  356   5.782   4.092   5.590
   12A      OP1  357   5.844   3.959   5.636
   12A      OP2  358   5.664   4.100   5.512
   12A      O5'  359   5.776   4.199   5.708
   12A      C5'  360   5.878   4.218   5.796
   12A      H5'  361   5.977   4.227   5.751
   12A     H5''  362   5.871   4.134   5.866
   12A      C4'  363   5.853   4.346   5.885
   12A      H4'  364   5.939   4.351   5.952
   12A      O4'  365   5.855   4.462   5.808
   12A      C1'  366   5.764   4.555   5.858
   12A      H1'  367   5.819   4.647   5.880
   12A       N9  368   5.662   4.581   5.753
   12A       C8  369   5.615   4.495   5.658
   12A       H8  370   5.636   4.389   5.661
   12A       N7  371   5.540   4.540   5.568
   12A       C5  372   5.524   4.675   5.599
   12A       C6  373   5.447   4.780   5.551
   12A       N6  374   5.366   4.768   5.446
   12A      H61  375   5.305   4.846   5.426
   12A      H62  376   5.338   4.677   5.413
   12A       N1  377   5.438   4.893   5.622
   12A       C2  378   5.514   4.907   5.733
   12A       H2  379   5.516   5.002   5.784
   12A       N3  380   5.601   4.821   5.787
   12A       C4  381   5.599   4.701   5.713
   12A      C3'  382   5.724   4.347   5.967
   12A      H3'  383   5.642   4.312   5.905
   12A      C2'  384   5.706   4.499   5.987
   12A      H2'  385   5.600   4.524   5.988
   12A      O2'  386   5.781   4.547   6.099
   12A     HO2'  387   5.786   4.475   6.163
   12A      O3'  388   5.733   4.266   6.086
   13G        P  389   5.606   4.186   6.142
   13G      OP1  390   5.639   4.112   6.266
   13G      OP2  391   5.542   4.114   6.030
   13G      O5'  392   5.506   4.299   6.187
   13G      C5'  393   5.533   4.388   6.298
   13G      H5'  394   5.633   4.431   6.309
   13G     H5''  395   5.507   4.339   6.392
   13G      C4'  396   5.431   4.506   6.287
   13G      H4'  397   5.442   4.573   6.372
   13G      O4'  398   5.439   4.588   6.169
   13G      C1'  399   5.306   4.630   6.125
   13G      H1'  400   5.311   4.739   6.122
   13G       N9  401   5.305   4.575   5.990
   13G       C8  402   5.344   4.452   5.943
   13G       H8  403   5.388   4.373   6.002
   13G       N7  404   5.319   4.430   5.814
   13G       C5  405   5.245   4.545   5.774
   13G       C6  406   5.185   4.571   5.641
   13G       O6  407   5.211   4.518   5.527
   13G       N1  408   5.108   4.685   5.644
   13G       H1  409   5.086   4.723   5.553
   13G       C2  410   5.116   4.764   5.758
   13G       N2  411   5.047   4.878   5.752
   13G      H21  412   5.025   4.915   5.660
   13G      H22  413   5.068   4.946   5.824
   13G       N3  414   5.176   4.743   5.873
   13G       C4  415   5.230   4.626   5.884
   13G      C3'  416   5.285   4.458   6.283
   13G      H3'  417   5.287   4.383   6.204
   13G      C2'  418   5.208   4.580   6.232
   13G      H2'  419   5.107   4.563   6.195
   13G      O2'  420   5.203   4.687   6.330
   13G     HO2'  421   5.138   4.668   6.397
   13G      O3'  422   5.232   4.394   6.400
   14G        P  423   5.115   4.290   6.391
   14G      OP1  424   5.080   4.247   6.526
   14G      OP2  425   5.165   4.187   6.290
   14G      O5'  426   4.996   4.377   6.331
   14G      C5'  427   4.922   4.476   6.406
   14G      H5'  428   4.999   4.532   6.459
   14G     H5''  429   4.869   4.433   6.491
   14G      C4'  430   4.821   4.569   6.333
   14G      H4'  431   4.780   4.628   6.415
   14G      O4'  432   4.882   4.649   6.232
   14G      C1'  433   4.787   4.682   6.128
   14G      H1'  434   4.760   4.788   6.125
   14G       N9  435   4.825   4.628   5.996
   14G       C8  436   4.921   4.537   5.962
   14G       H8  437   4.973   4.489   6.044
   14G       N7  438   4.937   4.513   5.831
   14G       C5  439   4.836   4.598   5.777
   14G       C6  440   4.801   4.631   5.644
   14G       O6  441   4.855   4.594   5.539
   14G       N1  442   4.714   4.731   5.625
   14G       H1  443   4.686   4.747   5.529
   14G       C2  444   4.643   4.782   5.723
   14G       N2  445   4.535   4.846   5.695
   14G      H21  446   4.511   4.872   5.601
   14G      H22  447   4.483   4.889   5.770
   14G       N3  448   4.669   4.753   5.854
   14G       C4  449   4.772   4.662   5.874
   14G      C3'  450   4.707   4.496   6.258
   14G      H3'  451   4.754   4.418   6.198
   14G      C2'  452   4.656   4.613   6.174
   14G      H2'  453   4.602   4.565   6.092
   14G      O2'  454   4.588   4.707   6.253
   14G     HO2'  455   4.535   4.758   6.190
   14G      O3'  456   4.608   4.444   6.345
   15G        P  457   4.524   4.312   6.301
   15G      OP1  458   4.437   4.270   6.416
   15G      OP2  459   4.614   4.207   6.241
   15G      O5'  460   4.425   4.358   6.194
   15G      C5'  461   4.322   4.453   6.220
   15G      H5'  462   4.368   4.533   6.277
   15G     H5''  463   4.244   4.399   6.274
   15G      C4'  464   4.270   4.507   6.088
   15G      H4'  465   4.180   4.563   6.112
   15G      O4'  466   4.359   4.574   6.005
   15G      C1'  467   4.339   4.559   5.870
   15G      H1'  468   4.330   4.646   5.806
   15G       N9  469   4.459   4.478   5.820
   15G       C8  470   4.549   4.404   5.895
   15G       H8  471   4.537   4.373   5.997
   15G       N7  472   4.628   4.333   5.817
   15G       C5  473   4.605   4.385   5.685
   15G       C6  474   4.663   4.349   5.560
   15G       O6  475   4.760   4.274   5.530
   15G       N1  476   4.605   4.409   5.445
   15G       H1  477   4.638   4.379   5.354
   15G       C2  478   4.491   4.488   5.459
   15G       N2  479   4.430   4.530   5.356
   15G      H21  480   4.449   4.493   5.265
   15G      H22  481   4.347   4.585   5.374
   15G       N3  482   4.437   4.518   5.578
   15G       C4  483   4.498   4.467   5.688
   15G      C3'  484   4.222   4.394   5.997
   15G      H3'  485   4.300   4.318   5.991
   15G      C2'  486   4.206   4.478   5.865
   15G      H2'  487   4.197   4.412   5.778
   15G      O2'  488   4.101   4.575   5.861
   15G     HO2'  489   4.019   4.526   5.853
   15G      O3'  490   4.097   4.339   6.033
   16U        P  491   4.071   4.184   5.994
   16U      OP1  492   3.931   4.163   6.039
   16U      OP2  493   4.175   4.096   6.048
   16U      O5'  494   4.080   4.166   5.835
   16U      C5'  495   3.977   4.204   5.743
   16U      H5'  496   3.950   4.307   5.768
   16U     H5''  497   3.891   4.142   5.768
   16U      C4'  498   4.015   4.198   5.596
   16U      H4'  499   3.931   4.251   5.551
   16U      O4'  500   4.140   4.269   5.580
   16U      C1'  501   4.212   4.213   5.469
   16U      H1'  502   4.230   4.274   5.381
   16U       N1  503   4.342   4.152   5.509
   16U       C6  504   4.355   4.107   5.638
   16U       H6  505   4.275   4.127   5.707
   16U       C5  506   4.477   4.042   5.668
   16U       H5  507   4.488   3.998   5.766
   16U       C4  508   4.584   4.025   5.570
   16U       O4  509   4.692   3.972   5.600
   16U       N3  510   4.552   4.068   5.444
   16U       H3  511   4.633   4.079   5.384
   16U       C2  512   4.438   4.139   5.409
   16U       O2  513   4.426   4.183   5.291
   16U      C3'  514   4.029   4.064   5.531
   16U      H3'  515   4.076   3.994   5.600
   16U      C2'  516   4.116   4.104   5.416
   16U      H2'  517   4.178   4.019   5.389
   16U      O2'  518   4.052   4.152   5.298
   16U     HO2'  519   4.017   4.073   5.256
   16U      O3'  520   3.901   4.013   5.481
   17U        P  521   3.877   3.871   5.413
   17U      OP1  522   3.734   3.823   5.428
   17U      OP2  523   3.988   3.777   5.451
   17U      O5'  524   3.901   3.905   5.255
   17U      C5'  525   3.808   3.985   5.177
   17U      H5'  526   3.800   4.089   5.209
   17U     H5''  527   3.707   3.946   5.164
   17U      C4'  528   3.879   4.005   5.035
   17U      H4'  529   3.813   4.070   4.977
   17U      O4'  530   4.010   4.056   5.038
   17U      C1'  531   4.094   4.002   4.932
   17U      H1'  532   4.114   4.086   4.864
   17U       N1  533   4.213   3.935   4.989
   17U       C6  534   4.202   3.858   5.105
   17U       H6  535   4.107   3.819   5.140
   17U       C5  536   4.313   3.802   5.162
   17U       H5  537   4.298   3.743   5.251
   17U       C4  538   4.443   3.820   5.109
   17U       O4  539   4.537   3.756   5.157
   17U       N3  540   4.449   3.890   4.990
   17U       H3  541   4.540   3.918   4.955
   17U       C2  542   4.345   3.959   4.934
   17U       O2  543   4.361   4.042   4.837
   17U      C3'  544   3.885   3.878   4.953
   17U      H3'  545   3.917   3.790   5.008
   17U      C2'  546   4.004   3.911   4.856
   17U      H2'  547   4.057   3.821   4.827
   17U      O2'  548   3.973   3.961   4.727
   17U     HO2'  549   3.916   3.891   4.695
   17U      O3'  550   3.773   3.831   4.876
   18A        P  551   3.777   3.684   4.815
   18A      OP1  552   3.642   3.638   4.781
   18A      OP2  553   3.870   3.593   4.887
   18A      O5'  554   3.843   3.700   4.665
   18A      C5'  555   3.770   3.758   4.553
   18A      H5'  556   3.740   3.861   4.572
   18A     H5''  557   3.680   3.697   4.542
   18A      C4'  558   3.850   3.752   4.432
   18A      H4'  559   3.787   3.788   4.351
   18A      O4'  560   3.960   3.837   4.445
   18A      C1'  561   4.081   3.781   4.392
   18A      H1'  562   4.130   3.842   4.316
   18A       N9  563   4.180   3.752   4.500
   18A       C8  564   4.162   3.667   4.607
   18A       H8  565   4.077   3.604   4.628
   18A       N7  566   4.267   3.674   4.688
   18A       C5  567   4.353   3.768   4.625
   18A       C6  568   4.486   3.815   4.653
   18A       N6  569   4.575   3.767   4.732
   18A      H61  570   4.663   3.814   4.743
   18A      H62  571   4.553   3.692   4.797
   18A       N1  572   4.538   3.912   4.576
   18A       C2  573   4.466   3.963   4.472
   18A       H2  574   4.513   4.032   4.404
   18A       N3  575   4.344   3.923   4.436
   18A       C4  576   4.293   3.820   4.512
   18A      C3'  577   3.901   3.613   4.391
   18A      H3'  578   3.925   3.555   4.481
   18A      C2'  579   4.032   3.648   4.325
   18A      H2'  580   4.115   3.577   4.333
   18A      O2'  581   4.021   3.692   4.187
   18A     HO2'  582   4.072   3.626   4.138
   18A      O3'  583   3.808   3.528   4.314
   19G        P  584   3.817   3.375   4.309
   19G      OP1  585   3.686   3.336   4.243
   19G      OP2  586   3.839   3.324   4.440
   19G      O5'  587   3.931   3.338   4.212
   19G      C5'  588   3.924   3.362   4.075
   19G      H5'  589   3.868   3.455   4.062
   19G     H5''  590   3.871   3.280   4.027
   19G      C4'  591   4.062   3.379   4.009
   19G      H4'  592   4.056   3.419   3.908
   19G      O4'  593   4.142   3.466   4.077
   19G      C1'  594   4.275   3.418   4.094
   19G      H1'  595   4.337   3.500   4.057
   19G       N9  596   4.298   3.385   4.240
   19G       C8  597   4.245   3.289   4.320
   19G       H8  598   4.163   3.224   4.291
   19G       N7  599   4.281   3.296   4.444
   19G       C5  600   4.386   3.389   4.440
   19G       C6  601   4.477   3.429   4.548
   19G       O6  602   4.478   3.391   4.662
   19G       N1  603   4.554   3.534   4.513
   19G       H1  604   4.612   3.563   4.591
   19G       C2  605   4.569   3.576   4.386
   19G       N2  606   4.651   3.675   4.361
   19G      H21  607   4.706   3.700   4.443
   19G      H22  608   4.649   3.726   4.274
   19G       N3  609   4.483   3.551   4.287
   19G       C4  610   4.397   3.450   4.317
   19G      C3'  611   4.138   3.244   4.003
   19G      H3'  612   4.110   3.187   4.091
   19G      C2'  613   4.281   3.296   4.001
   19G      H2'  614   4.350   3.222   4.042
   19G      O2'  615   4.326   3.344   3.875
   19G     HO2'  616   4.292   3.287   3.805
   19G      O3'  617   4.094   3.169   3.884
   20G        P  618   4.124   3.014   3.873
   20G      OP1  619   4.014   2.955   3.782
   20G      OP2  620   4.129   2.962   4.012
   20G      O5'  621   4.268   2.994   3.812
   20G      C5'  622   4.286   2.977   3.668
   20G      H5'  623   4.226   3.058   3.626
   20G     H5''  624   4.257   2.879   3.631
   20G      C4'  625   4.431   2.999   3.625
   20G      H4'  626   4.430   2.995   3.516
   20G      O4'  627   4.471   3.132   3.680
   20G      C1'  628   4.587   3.117   3.762
   20G      H1'  629   4.663   3.193   3.742
   20G       N9  630   4.567   3.137   3.910
   20G       C8  631   4.504   3.054   3.993
   20G       H8  632   4.441   2.977   3.953
   20G       N7  633   4.529   3.073   4.119
   20G       C5  634   4.599   3.191   4.121
   20G       C6  635   4.657   3.280   4.220
   20G       O6  636   4.638   3.284   4.344
   20G       N1  637   4.740   3.378   4.169
   20G       H1  638   4.795   3.432   4.235
   20G       C2  639   4.743   3.408   4.036
   20G       N2  640   4.823   3.508   4.001
   20G      H21  641   4.881   3.547   4.073
   20G      H22  642   4.833   3.540   3.905
   20G       N3  643   4.697   3.335   3.941
   20G       C4  644   4.630   3.227   3.987
   20G      C3'  645   4.519   2.897   3.691
   20G      H3'  646   4.472   2.871   3.786
   20G      C2'  647   4.647   2.973   3.727
   20G      H2'  648   4.707   2.936   3.810
   20G      O2'  649   4.730   2.997   3.619
   20G     HO2'  650   4.755   2.908   3.595
   20G      O3'  651   4.554   2.792   3.610
   21G3       P  652   4.661   2.681   3.653
   21G3     OP1  653   4.626   2.550   3.594
   21G3     OP2  654   4.691   2.680   3.801
   21G3     O5'  655   4.796   2.729   3.584
   21G3     C5'  656   4.817   2.705   3.443
   21G3     H5'  657   4.739   2.760   3.392
   21G3    H5''  658   4.801   2.599   3.423
   21G3     C4'  659   4.954   2.758   3.407
   21G3     H4'  660   4.967   2.737   3.301
   21G3     O4'  661   4.979   2.888   3.438
   21G3     C1'  662   5.089   2.899   3.525
   21G3     H1'  663   5.151   2.988   3.509
   21G3      N9  664   5.031   2.916   3.659
   21G3      C8  665   5.011   2.821   3.764
   21G3      H8  666   5.028   2.714   3.758
   21G3      N7  667   4.996   2.887   3.880
   21G3      C5  668   4.990   3.023   3.849
   21G3      C6  669   4.979   3.132   3.937
   21G3      O6  670   4.955   3.132   4.058
   21G3      N1  671   4.987   3.254   3.868
   21G3      H1  672   4.965   3.340   3.916
   21G3      C2  673   4.996   3.266   3.735
   21G3      N2  674   4.998   3.378   3.674
   21G3     H21  675   4.995   3.466   3.723
   21G3     H22  676   5.018   3.384   3.575
   21G3      N3  677   5.026   3.162   3.653
   21G3      C4  678   5.016   3.039   3.717
   21G3     C3'  679   5.058   2.669   3.477
   21G3     H3'  680   5.016   2.630   3.570
   21G3     C2'  681   5.167   2.769   3.510
   21G3     H2'  682   5.206   2.730   3.604
   21G3     O2'  683   5.270   2.778   3.408
   21G3    HO2'  684   5.350   2.804   3.455
   21G3     O3'  685   5.113   2.558   3.403
   21G3    HO3'  686   5.191   2.595   3.361
   22Cl-    Cl-  687   3.116   3.382   6.727
   23Cl-    Cl-  688   7.005   1.916   5.008
   24Cl-    Cl-  689   0.221   1.660   9.763
   25Cl-    Cl-  690   5.304   9.111   3.116
   26Cl-    Cl-  691   7.048   6.696   4.116
   27Cl-    Cl-  692   3.137   9.466   8.143
   28Cl-    Cl-  693   5.976   0.463   9.518
   29Cl-    Cl-  694   9.231   4.402   0.855
   30Cl-    Cl-  695   1.233   9.161   1.961
   31Cl-    Cl-  696   6.598   3.089   4.704
   32Cl-    Cl-  697   8.019   2.581   0.059
   33Cl-    Cl-  698   5.327   5.393   8.135
   34Cl-    Cl-  699   3.920   6.134   3.658
   35Cl-    Cl-  700   0.720   3.471   3.789
   36Cl-    Cl-  701   2.677   7.615   9.364
   37Cl-    Cl-  702   6.310   9.236   1.917
   38Cl-    Cl-  703   9.764   7.457   9.677
   39Cl-    Cl-  704   8.386   6.380   9.422
   40Cl-    Cl-  705   7.328   6.061   8.445
   41Cl-    Cl-  706   1.545   2.019   8.101
   42Cl-    Cl-  707   4.908   5.992   9.595
   43Cl-    Cl-  708   9.448   9.453   1.860
   44Cl-    Cl-  709   3.464   3.191   1.039
   45Cl-    Cl-  710   8.539   6.018   8.341
   46Cl-    Cl-  711   8.253   1.156   3.851
   47Cl-    Cl-  712   9.294   9.409   7.252
   48Cl-    Cl-  713   3.671   6.775   8.436
   49Cl-    Cl-  714   2.155   9.177   3.858
   50Cl-    Cl-  715   5.759   0.930   8.932
   51Cl-    Cl-  716   9.580   0.988   5.244
   52Cl-    Cl-  717   2.279   6.012   5.896
   53Cl-    Cl-  718   4.327   6.888   7.252
   54Cl-    Cl-  719   7.287   0.465   3.338
   55Cl-    Cl-  720   3.513   8.028   1.455
   56Cl-    Cl-  721   5.673   9.808   5.172
   57Cl-    Cl-  722   2.010   0.222   0.273
   58Cl-    Cl-  723   6.839   4.258   0.167
   59Cl-    Cl-  724   7.302   0.209   2.274
   60Cl-    Cl-  725   1.598   3.336   1.946
   61Cl-    Cl-  726   0.192   6.386   9.203
   62Cl-    Cl-  727   7.878   0.817   5.909
   63Cl-    Cl-  728   9.310   3.293   2.589
   64Cl-    Cl-  729   1.105   8.157   0.343
   65Cl-    Cl-  730   2.928   8.077   5.109
   66Cl-    Cl-  731   2.987   4.626   6.052
   67Cl-    Cl-  732   7.147   9.391   3.716
   68Cl-    Cl-  733   2.258   3.539   0.492
   69Cl-    Cl-  734   3.527   3.405   5.557
   70Cl-    Cl-  735   1.464   4.014   5.612
   71Cl-    Cl-  736   9.353   9.663   6.090
   72Cl-    Cl-  737   1.410   7.447   2.931
   73Cl-    Cl-  738   4.936   0.956   1.786
   74Cl-    Cl-  739   7.976   4.195   7.835
   75Cl-    Cl-  740   1.460   1.147   1.747
   76Cl-    Cl-  741   4.634   6.740   6.074
   77Cl-    Cl-  742   0.024   4.742   3.612
   78Cl-    Cl-  743   9.274   1.842   2.961
   79Cl-    Cl-  744   5.116   9.122   0.919
   80Cl-    Cl-  745   7.325   6.815   5.856
   81Cl-    Cl-  746   6.958   9.081   7.646
   82Cl-    Cl-  747   7.337   0.429   8.414
   83Cl-    Cl-  748   5.113   0.883   7.899
   84Cl-    Cl-  749   3.729   8.729   6.637
   85Cl-    Cl-  750   6.935   7.376   3.583
   86Cl-    Cl-  751   3.753   4.734   3.375
   87Cl-    Cl-  752   7.686   7.158   2.111
   88Cl-    Cl-  753   0.556   9.685   8.250
   89Cl-    Cl-  754   5.989   9.757   5.937
   90Cl-    Cl-  755   1.337   4.173   6.278
   91Cl-    Cl-  756   8.089   8.174   5.089
   92Cl-    Cl-  757   0.980   1.231   2.016
   93Cl-    Cl-  758   8.859   8.300   8.155
   94Cl-    Cl-  759   2.703   6.905   3.942
   95Cl-    Cl-  760   5.549   3.671   2.273
   96Cl-    Cl-  761   8.519   6.916   2.636
   97Cl-    Cl-  762   6.384   2.153   9.465
   98Cl-    Cl-  763   9.887   1.041   3.229
   99Cl-    Cl-  764   2.362   2.876   8.699
  100Cl-    Cl-  765   1.688   7.140   3.848
  101Cl-    Cl-  766   0.402   3.744   3.407
  102Cl-    Cl-  767   4.303   7.117   3.168
  103Cl-    Cl-  768   7.671   8.484   4.366
  104Cl-    Cl-  769   3.908   3.127   0.379
  105Cl-    Cl-  770   1.474   6.321   8.770
  106Cl-    Cl-  771   3.686   9.804   1.379
  107K+      K+  772   9.388   2.386   2.946
  108K+      K+  773   3.832   2.552   3.565
  109K+      K+  774   5.379   5.769   4.716
  110K+      K+  775   0.106   4.237   2.943
  111K+      K+  776   6.154   3.398   3.760
  112K+      K+  777   7.597   5.064   8.356
  113K+      K+  778   3.496   7.631   1.875
  114K+      K+  779   1.267   0.834   9.743
  115K+      K+  780   1.135   9.243   7.114
  116K+      K+  781   3.066   2.602   9.587
  117K+      K+  782   0.364   1.093   7.846
  118K+      K+  783   4.651   0.965   3.373
  119K+      K+  784   1.275   8.482   0.612
  120K+      K+  785   6.938   3.000   1.750
  121K+      K+  786   6.124   7.228   8.132
  122K+      K+  787   8.996   0.656   4.532
  123K+      K+  788   4.898   1.232   8.841
  124K+      K+  789   4.924   6.429   3.971
  125K+      K+  790   0.613   5.081   6.124
  126K+      K+  791   8.284   8.617   5.110
  127K+      K+  792   4.624   5.921   4.338
  128K+      K+  793   9.454   7.074   5.965
  129K+      K+  794   9.354   0.079   6.421
  130K+      K+  795   5.565   6.743   5.230
  131K+      K+  796   0.780   6.515   5.296
  132K+      K+  797   2.190   7.943   9.279
  133K+      K+  798   5.565   5.470   4.880
  134K+      K+  799   9.114   7.640   2.684
  135K+      K+  800   4.708   0.679   7.609
  136K+      K+  801   6.022   2.643   1.080
  137K+      K+  802   4.297   4.317   4.830
  138K+      K+  803   5.652   4.242   0.529
  139K+      K+  804   0.812   4.249   3.822
  140K+      K+  805   3.142   9.684   2.073
  141K+      K+  806   6.218   5.107   5.540
  142K+      K+  807   8.785   1.617   2.938
  143K+      K+  808   6.625   9.209   3.616
  144K+      K+  809   7.116   6.896   3.281
  145K+      K+  810   9.408   2.913   7.626
  146K+      K+  811   8.143   2.604   1.448
  147K+      K+  812   6.639   1.190   6.569
  148K+      K+  813   1.135   7.417   3.203
  149K+      K+  814   5.098   6.750   5.084
  150K+      K+  815   0.147   4.697   2.255
  151K+      K+  816   6.584   0.390   2.843
  152K+      K+  817   8.235   7.886   5.009
  153K+      K+  818   4.577   3.869   7.703
  154K+      K+  819   1.890   8.874   8.384
  155K+      K+  820   6.280   6.367   8.028
  156K+      K+  821   3.808   8.583   5.981
  157K+      K+  822   4.804   3.748   5.502
  158K+      K+  823   4.992   4.454   5.388
  159K+      K+  824   3.729   4.262   7.727
  160K+      K+  825   8.346   6.866   2.272
  161K+      K+  826   0.093   7.467   7.318
  162K+      K+  827   6.875   0.081   1.910
  163K+      K+  828   5.208   4.168   5.803
  164K+      K+  829   4.400   7.923   5.264
  165K+      K+  830   5.346   2.247   7.785
  166K+      K+  831   6.623   0.140   8.660
  167K+      K+  832   1.691   7.654   0.269
  168K+      K+  833   5.278   5.246   5.084
  169K+      K+  834   1.265   6.891   2.426
  170K+      K+  835   7.990   0.689   6.809
  171K+      K+  836   5.133   8.949   6.957
  172K+      K+  837   8.627   5.092   1.702
  173K+      K+  838   8.754   6.667   8.490
  174K+      K+  839   1.474   4.529   5.648
  175K+      K+  840   8.020   0.988   1.124
  176K+      K+  841   1.987   3.081   0.252
  177K+      K+  842   2.111   8.657   6.017
  178K+      K+  843   6.614   8.181   6.429
  179K+      K+  844   2.792   5.381   5.910
  180K+      K+  845   3.752   4.324   6.431
  181K+      K+  846   7.897   0.175   8.769
  182K+      K+  847   8.113   5.549   5.750
  183K+      K+  848   7.947   4.600   0.421
  184K+      K+  849   5.142   3.808   6.048
  185K+      K+  850   3.119   2.205   2.823
  186K+      K+  851   0.457   6.458   9.642
  187K+      K+  852   8.351   3.106   8.220
  188K+      K+  853   3.523   4.864   8.750
  189K+      K+  854   9.771   0.094   2.078
  190K+      K+  855   1.913   7.739   6.123
  191K+      K+  856   8.981   5.411   3.705
  192K+      K+  857   7.626   5.213   9.019
  193K+      K+  858   4.498   9.567   0.266
  194K+      K+  859   9.759   9.723   3.414
  195K+      K+  860   4.024   4.553   5.051
  196K+      K+  861   8.106   2.435   8.472
  197K+      K+  862   0.413   3.100   3.667
  198K+      K+  863   1.329   0.017   2.635
  199K+      K+  864   7.055   2.253   4.710
  200K+      K+  865   4.562   3.021   4.392
  201K+      K+  866   4.304   3.420   4.871
  202K+      K+  867   6.243   0.273   0.123
  203K+      K+  868   9.091   6.557   0.645
  204K+      K+  869   5.123   5.766   6.838
  205K+      K+  870   3.123   4.112   4.636
  206K+      K+  871   1.481   1.592   1.055
  207K+      K+  872   4.516   6.443   4.868
  208K+      K+  873   5.734   3.135   0.290
  209K+      K+  874   5.456   5.092   5.434
  210K+      K+  875   1.272   3.072   2.651
  211K+      K+  876   5.062   7.447   2.319
  212WAT      O  877   7.123   9.737   5.245
  212WAT     H1  878   7.024   9.739   5.232
  212WAT     H2  879   7.148   9.794   5.323
  213WAT      O  880   0.039   3.478   2.569
  213WAT     H1  881   0.013   3.401   2.627
  213WAT     H2  882   0.087   3.444   2.488
  214WAT      O  883   0.312   8.951   2.380
  214WAT     H1  884   0.342   8.909   2.466
  214WAT     H2  885   0.350   9.043   2.373
  215WAT      O  886   2.135   7.738   2.253
  215WAT     H1  887   2.064   7.761   2.319
  215WAT     H2  888   2.203   7.678   2.297
  216WAT      O  889   2.784   0.223   5.788
  216WAT     H1  890   2.690   0.241   5.759
  216WAT     H2  891   2.783   0.162   5.868
  217WAT      O  892   3.784   5.023   3.491
  217WAT     H1  893   3.773   4.928   3.462
  217WAT     H2  894   3.799   5.027   3.590
  218WAT      O  895   3.453   3.613   2.329
  218WAT     H1  896   3.420   3.618   2.424
  218WAT     H2  897   3.375   3.604   2.268
  219WAT      O  898   4.950   4.009   5.499
  219WAT     H1  899   5.027   4.012   5.563
  219WAT     H2  900   4.879   4.071   5.530
  220WAT      O  901   8.229   4.346   2.799
  220WAT     H1  902   8.271   4.311   2.715
  220WAT     H2  903   8.271   4.301   2.878
  221WAT      O  904   3.245   9.704   1.332
  221WAT     H1  905   3.183   9.684   1.257
  221WAT     H2  906   3.219   9.791   1.374
  222WAT      O  907   8.383   2.100   6.419
  222WAT     H1  908   8.412   2.023   6.476
  222WAT     H2  909   8.283   2.099   6.410
  223WAT      O  910   8.222   0.345   0.903
  223WAT     H1  911   8.202   0.314   0.996
  223WAT     H2  912   8.317   0.375   0.898
  224WAT      O  913   1.249   6.343   1.360
  224WAT     H1  914   1.260   6.440   1.384
  224WAT     H2  915   1.304   6.287   1.422
  225WAT      O  916   1.202   7.401   8.628
  225WAT     H1  917   1.115   7.356   8.649
  225WAT     H2  918   1.278   7.342   8.655
  226WAT      O  919   5.326   9.250   0.455
  226WAT     H1  920   5.229   9.259   0.476
  226WAT     H2  921   5.374   9.210   0.532
  227WAT      O  922   5.975   9.533   0.572
  227WAT     H1  923   6.052   9.549   0.634
  227WAT     H2  924   5.918   9.459   0.607
  228WAT      O  925   4.627   0.835   3.862
  228WAT     H1  926   4.629   0.841   3.961
  228WAT     H2  927   4.622   0.739   3.834
  229WAT      O  928   1.755   6.894   4.630
  229WAT     H1  929   1.733   6.962   4.560
  229WAT     H2  930   1.671   6.862   4.673
  230WAT      O  931   6.319   7.523   0.939
  230WAT     H1  932   6.220   7.531   0.945
  230WAT     H2  933   6.353   7.584   0.867
  231WAT      O  934   8.453   5.140   8.391
  231WAT     H1  935   8.439   5.145   8.292
  231WAT     H2  936   8.533   5.083   8.411
  232WAT      O  937   7.122   5.077   6.736
  232WAT     H1  938   7.138   4.993   6.789
  232WAT     H2  939   7.046   5.062   6.673
  233WAT      O  940   7.773   2.128   4.683
  233WAT     H1  941   7.868   2.147   4.709
  233WAT     H2  942   7.757   2.030   4.688
  234WAT      O  943   5.860   2.858   1.703
  234WAT     H1  944   5.896   2.859   1.610
  234WAT     H2  945   5.917   2.914   1.763
  235WAT      O  946   4.419   1.791   6.192
  235WAT     H1  947   4.331   1.794   6.239
  235WAT     H2  948   4.441   1.882   6.157
  236WAT      O  949   2.015   6.738   9.773
  236WAT     H1  950   2.017   6.649   9.726
  236WAT     H2  951   1.949   6.734   9.847
  237WAT      O  952   3.881   6.187   9.043
  237WAT     H1  953   3.864   6.117   9.113
  237WAT     H2  954   3.974   6.223   9.055
  238WAT      O  955   1.377   1.284   8.260
  238WAT     H1  956   1.346   1.332   8.178
  238WAT     H2  957   1.319   1.204   8.276
  239WAT      O  958   0.916   3.589   4.036
  239WAT     H1  959   0.907   3.565   4.133
  239WAT     H2  960   0.837   3.554   3.985
  240WAT      O  961   1.001   0.639   4.206
  240WAT     H1  962   0.961   0.549   4.225
  240WAT     H2  963   0.931   0.700   4.171
  241WAT      O  964   1.536   6.255   6.934
  241WAT     H1  965   1.569   6.337   6.981
  241WAT     H2  966   1.598   6.179   6.953
  242WAT      O  967   4.009   1.038   6.691
  242WAT     H1  968   4.092   1.042   6.636
  242WAT     H2  969   4.002   0.949   6.735
  243WAT      O  970   6.586   8.506   7.150
  243WAT     H1  971   6.513   8.468   7.206
  243WAT     H2  972   6.550   8.530   7.060
  244WAT      O  973   8.216   0.222   1.134
  244WAT     H1  974   8.124   0.190   1.155
  244WAT     H2  975   8.241   0.297   1.196
  245WAT      O  976   8.383   1.872   5.565
  245WAT     H1  977   8.301   1.929   5.565
  245WAT     H2  978   8.356   1.775   5.568
  246WAT      O  979   9.309   2.091   9.771
  246WAT     H1  980   9.355   2.067   9.686
  246WAT     H2  981   9.256   2.012   9.803
  247WAT      O  982   2.827   1.002   9.024
  247WAT     H1  983   2.882   0.989   8.941
  247WAT     H2  984   2.734   0.969   9.007
  248WAT      O  985   4.109   0.924   3.486
  248WAT     H1  986   4.181   0.882   3.542
  248WAT     H2  987   4.099   0.872   3.400
  249WAT      O  988   8.089   3.826   6.586
  249WAT     H1  989   8.132   3.861   6.502
  249WAT     H2  990   8.040   3.901   6.631
  250WAT      O  991   8.278   7.143   7.873
  250WAT     H1  992   8.304   7.168   7.780
  250WAT     H2  993   8.312   7.051   7.893
  251WAT      O  994   6.137   4.303   6.738
  251WAT     H1  995   6.154   4.275   6.643
  251WAT     H2  996   6.144   4.403   6.745
  252WAT      O  997   7.968   2.070   2.442
  252WAT     H1  998   8.014   1.989   2.478
  252WAT     H2  999   8.034   2.143   2.429
  253WAT      O 1000   0.452   6.220   6.941
  253WAT     H1 1001   0.387   6.157   6.984
  253WAT     H2 1002   0.541   6.176   6.933
  254WAT      O 1003   6.588   7.326   1.888
  254WAT     H1 1004   6.643   7.247   1.914
  254WAT     H2 1005   6.528   7.301   1.812
  255WAT      O 1006   2.289   5.407   9.705
  255WAT     H1 1007   2.243   5.393   9.617
  255WAT     H2 1008   2.335   5.322   9.732
  256WAT      O 1009   2.970   8.569   1.737
  256WAT     H1 1010   2.943   8.490   1.682
  256WAT     H2 1011   3.028   8.538   1.812
  257WAT      O 1012   3.151   6.024   3.819
  257WAT     H1 1013   3.246   6.002   3.795
  257WAT     H2 1014   3.124   5.969   3.898
  258WAT      O 1015   3.099   1.971   5.354
  258WAT     H1 1016   3.078   2.068   5.370
  258WAT     H2 1017   3.191   1.963   5.316
  259WAT      O 1018   6.662   0.468   7.480
  259WAT     H1 1019   6.564   0.486   7.494
  259WAT     H2 1020   6.691   0.395   7.541
  260WAT      O 1021   5.331   1.354   0.007
  260WAT     H1 1022   5.308   1.271   0.057
  260WAT     H2 1023   5.415   1.394   0.044
  261WAT      O 1024   0.936   3.170   3.519
  261WAT     H1 1025   0.977   3.225   3.592
  261WAT     H2 1026   0.911   3.080   3.554
  262WAT      O 1027   4.732   4.167   8.658
  262WAT     H1 1028   4.650   4.154   8.602
  262WAT     H2 1029   4.798   4.223   8.607
  263WAT      O 1030   3.458   5.000   2.711
  263WAT     H1 1031   3.419   4.937   2.777
  263WAT     H2 1032   3.558   4.993   2.712
  264WAT      O 1033   8.733   1.715   0.952
  264WAT     H1 1034   8.753   1.654   1.029
  264WAT     H2 1035   8.647   1.763   0.969
  265WAT      O 1036   3.041   7.309   9.705
  265WAT     H1 1037   2.972   7.255   9.656
  265WAT     H2 1038   3.107   7.247   9.748
  266WAT      O 1039   4.138   6.973   1.712
  266WAT     H1 1040   4.097   6.966   1.803
  266WAT     H2 1041   4.237   6.957   1.718
  267WAT      O 1042   9.762   0.230   9.799
  267WAT     H1 1043   9.822   0.292   9.849
  267WAT     H2 1044   9.817   0.161   9.752
  268WAT      O 1045   0.737   6.562   3.599
  268WAT     H1 1046   0.683   6.484   3.631
  268WAT     H2 1047   0.681   6.618   3.539
  269WAT      O 1048   5.249   2.283   8.246
  269WAT     H1 1049   5.297   2.347   8.185
  269WAT     H2 1050   5.302   2.270   8.329
  270WAT      O 1051   8.376   4.226   3.862
  270WAT     H1 1052   8.441   4.286   3.910
  270WAT     H2 1053   8.326   4.170   3.928
  271WAT      O 1054   8.201   8.541   8.878
  271WAT     H1 1055   8.230   8.588   8.794
  271WAT     H2 1056   8.114   8.495   8.862
  272WAT      O 1057   6.301   9.208   0.206
  272WAT     H1 1058   6.284   9.166   0.296
  272WAT     H2 1059   6.225   9.188   0.145
  273WAT      O 1060   6.241   7.222   5.394
  273WAT     H1 1061   6.205   7.295   5.453
  273WAT     H2 1062   6.245   7.255   5.300
  274WAT      O 1063   2.724   6.641   8.901
  274WAT     H1 1064   2.773   6.668   8.818
  274WAT     H2 1065   2.652   6.708   8.920
  275WAT      O 1066   1.310   3.656   4.752
  275WAT     H1 1067   1.289   3.616   4.841
  275WAT     H2 1068   1.249   3.733   4.734
  276WAT      O 1069   7.398   2.768   6.288
  276WAT     H1 1070   7.449   2.844   6.328
  276WAT     H2 1071   7.309   2.761   6.334
  277WAT      O 1072   0.739   4.831   2.002
  277WAT     H1 1073   0.824   4.833   1.950
  277WAT     H2 1074   0.661   4.833   1.939
  278WAT      O 1075   5.112   3.822   4.367
  278WAT     H1 1076   5.074   3.732   4.383
  278WAT     H2 1077   5.211   3.820   4.383
  279WAT      O 1078   6.967   9.782   0.243
  279WAT     H1 1079   7.000   9.856   0.184
  279WAT     H2 1080   6.905   9.724   0.191
  280WAT      O 1081   2.931   7.304   2.960
  280WAT     H1 1082   2.862   7.321   3.030
  280WAT     H2 1083   2.945   7.386   2.905
  281WAT      O 1084   7.682   0.879   2.259
  281WAT     H1 1085   7.681   0.817   2.180
  281WAT     H2 1086   7.615   0.848   2.326
  282WAT      O 1087   7.400   6.761   8.850
  282WAT     H1 1088   7.474   6.805   8.900
  282WAT     H2 1089   7.334   6.723   8.915
  283WAT      O 1090   7.236   7.786   4.993
  283WAT     H1 1091   7.294   7.717   4.949
  283WAT     H2 1092   7.293   7.845   5.051
  284WAT      O 1093   6.786   7.790   5.087
  284WAT     H1 1094   6.758   7.695   5.096
  284WAT     H2 1095   6.853   7.799   5.014
  285WAT      O 1096   6.853   2.823   6.171
  285WAT     H1 1097   6.945   2.786   6.179
  285WAT     H2 1098   6.824   2.817   6.075
  286WAT      O 1099   3.756   8.438   8.596
  286WAT     H1 1100   3.808   8.453   8.512
  286WAT     H2 1101   3.782   8.351   8.637
  287WAT      O 1102   7.334   3.554   4.535
  287WAT     H1 1103   7.248   3.504   4.530
  287WAT     H2 1104   7.408   3.497   4.499
  288WAT      O 1105   3.412   5.864   5.863
  288WAT     H1 1106   3.493   5.845   5.919
  288WAT     H2 1107   3.331   5.866   5.922
  289WAT      O 1108   1.270   4.936   9.124
  289WAT     H1 1109   1.274   4.836   9.115
  289WAT     H2 1110   1.363   4.973   9.118
  290WAT      O 1111   4.540   0.871   3.613
  290WAT     H1 1112   4.574   0.863   3.706
  290WAT     H2 1113   4.445   0.838   3.609
  291WAT      O 1114   3.190   9.621   5.901
  291WAT     H1 1115   3.221   9.715   5.914
  291WAT     H2 1116   3.094   9.614   5.929
  292WAT      O 1117   3.529   5.450   3.900
  292WAT     H1 1118   3.519   5.545   3.872
  292WAT     H2 1119   3.495   5.390   3.828
  293WAT      O 1120   6.339   1.504   5.008
  293WAT     H1 1121   6.282   1.481   5.087
  293WAT     H2 1122   6.435   1.509   5.037
  294WAT      O 1123   4.319   7.623   4.647
  294WAT     H1 1124   4.316   7.621   4.547
  294WAT     H2 1125   4.398   7.675   4.677
  295WAT      O 1126   7.069   5.951   7.526
  295WAT     H1 1127   7.062   5.890   7.605
  295WAT     H2 1128   7.161   5.945   7.487
  296WAT      O 1129   4.980   0.370   0.048
  296WAT     H1 1130   4.973   0.270   0.050
  296WAT     H2 1131   5.065   0.396   0.002
  297WAT      O 1132   2.501   0.867   8.714
  297WAT     H1 1133   2.565   0.790   8.724
  297WAT     H2 1134   2.503   0.899   8.620
  298WAT      O 1135   0.488   4.335   1.848
  298WAT     H1 1136   0.493   4.392   1.766
  298WAT     H2 1137   0.490   4.394   1.929
  299WAT      O 1138   4.871   5.890   9.315
  299WAT     H1 1139   4.908   5.960   9.254
  299WAT     H2 1140   4.886   5.917   9.410
  300WAT      O 1141   7.527   8.071   3.339
  300WAT     H1 1142   7.510   8.054   3.436
  300WAT     H2 1143   7.581   8.155   3.329
  301WAT      O 1144   7.450   8.808   8.298
  301WAT     H1 1145   7.393   8.728   8.317
  301WAT     H2 1146   7.546   8.781   8.300
  302WAT      O 1147   4.530   4.300   6.670
  302WAT     H1 1148   4.518   4.282   6.572
  302WAT     H2 1149   4.441   4.314   6.713
  303WAT      O 1150   9.319   5.561   5.297
  303WAT     H1 1151   9.285   5.619   5.223
  303WAT     H2 1152   9.335   5.616   5.379
  304WAT      O 1153   3.868   7.616   6.899
  304WAT     H1 1154   3.860   7.626   6.998
  304WAT     H2 1155   3.962   7.590   6.875
  305WAT      O 1156   6.875   1.047   1.880
  305WAT     H1 1157   6.868   1.030   1.979
  305WAT     H2 1158   6.947   1.113   1.862
  306WAT      O 1159   7.945   0.088   4.141
  306WAT     H1 1160   7.932   0.023   4.215
  306WAT     H2 1161   7.946   0.039   4.053
  307WAT      O 1162   0.015   9.420   4.888
  307WAT     H1 1163  -0.068   9.376   4.854
  307WAT     H2 1164   0.060   9.361   4.954
  308WAT      O 1165   3.544   8.671   9.778
  308WAT     H1 1166   3.477   8.662   9.851
  308WAT     H2 1167   3.625   8.618   9.801
  309WAT      O 1168   9.227   2.605   2.683
  309WAT     H1 1169   9.268   2.516   2.663
  309WAT     H2 1170   9.154   2.623   2.617
  310WAT      O 1171   9.394   1.847   4.286
  310WAT     H1 1172   9.359   1.777   4.347
  310WAT     H2 1173   9.408   1.932   4.336
  311WAT      O 1174   0.762   1.360   2.234
  311WAT     H1 1175   0.833   1.333   2.169
  311WAT     H2 1176   0.726   1.450   2.208
  312WAT      O 1177   8.361   2.895   8.488
  312WAT     H1 1178   8.449   2.907   8.443
  312WAT     H2 1179   8.362   2.808   8.539
  313WAT      O 1180   4.804   9.684   8.536
  313WAT     H1 1181   4.755   9.610   8.581
  313WAT     H2 1182   4.800   9.672   8.437
  314WAT      O 1183   4.348   9.705   4.633
  314WAT     H1 1184   4.283   9.633   4.606
  314WAT     H2 1185   4.302   9.794   4.631
  315WAT      O 1186   7.215   7.181   1.549
  315WAT     H1 1187   7.199   7.191   1.451
  315WAT     H2 1188   7.311   7.203   1.569
  316WAT      O 1189   8.018   1.033   0.845
  316WAT     H1 1190   7.922   1.012   0.823
  316WAT     H2 1191   8.072   1.029   0.761
  317WAT      O 1192   1.500   1.796   9.638
  317WAT     H1 1193   1.598   1.804   9.658
  317WAT     H2 1194   1.467   1.707   9.671
  318WAT      O 1195   6.224   6.024   3.202
  318WAT     H1 1196   6.320   5.997   3.209
  318WAT     H2 1197   6.210   6.109   3.252
  319WAT      O 1198   4.527   3.201   6.935
  319WAT     H1 1199   4.515   3.182   6.838
  319WAT     H2 1200   4.439   3.192   6.982
  320WAT      O 1201   2.121   0.759   3.042
  320WAT     H1 1202   2.197   0.814   3.008
  320WAT     H2 1203   2.141   0.662   3.029
  321WAT      O 1204   0.206   7.047   1.858
  321WAT     H1 1205   0.166   7.050   1.950
  321WAT     H2 1206   0.172   6.966   1.810
  322WAT      O 1207   2.055   8.354   3.677
  322WAT     H1 1208   2.146   8.332   3.711
  322WAT     H2 1209   2.059   8.373   3.579
  323WAT      O 1210   8.399   1.025   1.808
  323WAT     H1 1211   8.421   0.975   1.893
  323WAT     H2 1212   8.482   1.035   1.753
  324WAT      O 1213   6.328   8.272   9.311
  324WAT     H1 1214   6.338   8.197   9.247
  324WAT     H2 1215   6.245   8.260   9.366
  325WAT      O 1216   9.394   7.590   0.994
  325WAT     H1 1217   9.345   7.657   1.050
  325WAT     H2 1218   9.444   7.637   0.921
  326WAT      O 1219   6.232   7.718   7.355
  326WAT     H1 1220   6.194   7.630   7.326
  326WAT     H2 1221   6.163   7.790   7.342
  327WAT      O 1222   5.124   0.914   2.963
  327WAT     H1 1223   5.052   0.946   2.902
  327WAT     H2 1224   5.148   0.986   3.027
  328WAT      O 1225   9.131   6.610   6.541
  328WAT     H1 1226   9.050   6.552   6.549
  328WAT     H2 1227   9.140   6.643   6.447
  329WAT      O 1228   6.469   6.100   4.172
  329WAT     H1 1229   6.409   6.174   4.205
  329WAT     H2 1230   6.497   6.119   4.078
  330WAT      O 1231   0.572   8.787   2.979
  330WAT     H1 1232   0.603   8.706   2.930
  330WAT     H2 1233   0.624   8.867   2.946
  331WAT      O 1234   5.872   8.102   7.456
  331WAT     H1 1235   5.813   8.088   7.536
  331WAT     H2 1236   5.820   8.146   7.383
  332WAT      O 1237   0.140   7.561   6.536
  332WAT     H1 1238   0.074   7.625   6.577
  332WAT     H2 1239   0.115   7.545   6.440
  333WAT      O 1240   3.775   6.216   1.588
  333WAT     H1 1241   3.865   6.200   1.629
  333WAT     H2 1242   3.766   6.312   1.564
  334WAT      O 1243   1.705   9.748   2.399
  334WAT     H1 1244   1.728   9.807   2.476
  334WAT     H2 1245   1.785   9.696   2.371
  335WAT      O 1246   4.970   1.370   4.677
  335WAT     H1 1247   4.981   1.469   4.684
  335WAT     H2 1248   5.058   1.329   4.651
  336WAT      O 1249   1.113   9.621   0.898
  336WAT     H1 1250   1.039   9.684   0.873
  336WAT     H2 1251   1.102   9.595   0.994
  337WAT      O 1252   5.781   3.098   0.994
  337WAT     H1 1253   5.847   3.077   0.922
  337WAT     H2 1254   5.688   3.089   0.957
  338WAT      O 1255   3.884   2.873   5.434
  338WAT     H1 1256   3.841   2.933   5.367
  338WAT     H2 1257   3.920   2.792   5.389
  339WAT      O 1258   2.004   5.348   7.538
  339WAT     H1 1259   2.017   5.376   7.634
  339WAT     H2 1260   1.927   5.397   7.499
  340WAT      O 1261   3.656   5.193   4.774
  340WAT     H1 1262   3.577   5.202   4.713
  340WAT     H2 1263   3.740   5.193   4.721
  341WAT      O 1264   5.363   7.445   7.947
  341WAT     H1 1265   5.347   7.411   8.039
  341WAT     H2 1266   5.370   7.368   7.884
  342WAT      O 1267   5.207   8.310   5.505
  342WAT     H1 1268   5.279   8.377   5.489
  342WAT     H2 1269   5.247   8.225   5.540
  343WAT      O 1270   6.499   9.666   0.597
  343WAT     H1 1271   6.474   9.583   0.647
  343WAT     H2 1272   6.483   9.652   0.499
  344WAT      O 1273   4.172   2.593   4.713
  344WAT     H1 1274   4.220   2.549   4.637
  344WAT     H2 1275   4.079   2.615   4.686
  345WAT      O 1276   7.779   5.487   9.644
  345WAT     H1 1277   7.698   5.479   9.702
  345WAT     H2 1278   7.754   5.527   9.556
  346WAT      O 1279   7.315   6.536   2.389
  346WAT     H1 1280   7.311   6.454   2.331
  346WAT     H2 1281   7.408   6.547   2.424
  347WAT      O 1282   0.885   5.040   3.195
  347WAT     H1 1283   0.866   5.068   3.289
  347WAT     H2 1284   0.804   4.994   3.157
  348WAT      O 1285   2.781   0.135   3.777
  348WAT     H1 1286   2.702   0.074   3.778
  348WAT     H2 1287   2.848   0.103   3.844
  349WAT      O 1288   7.820   1.482   4.454
  349WAT     H1 1289   7.741   1.531   4.417
  349WAT     H2 1290   7.894   1.547   4.471
  350WAT      O 1291   3.075   8.862   2.891
  350WAT     H1 1292   3.078   8.961   2.874
  350WAT     H2 1293   2.992   8.841   2.944
  351WAT      O 1294   4.451   9.652   9.764
  351WAT     H1 1295   4.408   9.623   9.849
  351WAT     H2 1296   4.460   9.573   9.703
  352WAT      O 1297   4.081   4.210   4.637
  352WAT     H1 1298   4.109   4.191   4.543
  352WAT     H2 1299   4.032   4.130   4.674
  353WAT      O 1300   6.379   3.979   7.927
  353WAT     H1 1301   6.412   3.938   8.012
  353WAT     H2 1302   6.390   3.913   7.853
  354WAT      O 1303   6.224   9.208   9.370
  354WAT     H1 1304   6.259   9.214   9.277
  354WAT     H2 1305   6.124   9.203   9.368
  355WAT      O 1306   5.772   0.311   1.382
  355WAT     H1 1307   5.813   0.258   1.307
  355WAT     H2 1308   5.766   0.255   1.464
  356WAT      O 1309   5.571   6.537   1.914
  356WAT     H1 1310   5.530   6.452   1.950
  356WAT     H2 1311   5.613   6.587   1.990
  357WAT      O 1312   1.113   7.236   7.701
  357WAT     H1 1313   1.026   7.285   7.706
  357WAT     H2 1314   1.152   7.227   7.793
  358WAT      O 1315   7.031   6.615   3.360
  358WAT     H1 1316   7.043   6.612   3.459
  358WAT     H2 1317   7.032   6.522   3.323
  359WAT      O 1318   0.972   8.826   8.029
  359WAT     H1 1319   0.911   8.855   7.956
  359WAT     H2 1320   0.938   8.860   8.117
  360WAT      O 1321   4.783   6.300   8.056
  360WAT     H1 1322   4.739   6.230   8.113
  360WAT     H2 1323   4.879   6.277   8.043
  361WAT      O 1324   6.927   0.460   3.993
  361WAT     H1 1325   6.963   0.380   4.041
  361WAT     H2 1326   6.828   0.462   4.001
  362WAT      O 1327   3.717   2.312   7.928
  362WAT     H1 1328   3.749   2.380   7.994
  362WAT     H2 1329   3.632   2.271   7.961
  363WAT      O 1330   5.211   0.799   6.902
  363WAT     H1 1331   5.295   0.794   6.957
  363WAT     H2 1332   5.208   0.887   6.855
  364WAT      O 1333   1.200   1.434   1.469
  364WAT     H1 1334   1.171   1.476   1.555
  364WAT     H2 1335   1.253   1.352   1.489
  365WAT      O 1336   4.896   1.777   1.293
  365WAT     H1 1337   4.983   1.744   1.259
  365WAT     H2 1338   4.832   1.700   1.301
  366WAT      O 1339   5.556   7.812   9.249
  366WAT     H1 1340   5.516   7.874   9.182
  366WAT     H2 1341   5.576   7.724   9.206
  367WAT      O 1342   8.000   7.510   8.572
  367WAT     H1 1343   7.905   7.485   8.555
  367WAT     H2 1344   8.057   7.483   8.495
  368WAT      O 1345   9.284   3.217   6.837
  368WAT     H1 1346   9.285   3.128   6.883
  368WAT     H2 1347   9.295   3.203   6.738
  369WAT      O 1348   8.430   3.921   1.931
  369WAT     H1 1349   8.481   3.902   1.847
  369WAT     H2 1350   8.489   3.967   1.997
  370WAT      O 1351   5.026   2.620   6.547
  370WAT     H1 1352   5.070   2.540   6.587
  370WAT     H2 1353   4.933   2.630   6.583
  371WAT      O 1354   9.242   2.261   7.579
  371WAT     H1 1355   9.212   2.347   7.622
  371WAT     H2 1356   9.300   2.211   7.644
  372WAT      O 1357   3.323   8.847   6.888
  372WAT     H1 1358   3.418   8.833   6.915
  372WAT     H2 1359   3.271   8.763   6.905
  373WAT      O 1360   4.246   8.351   5.435
  373WAT     H1 1361   4.338   8.358   5.475
  373WAT     H2 1362   4.207   8.262   5.456
  374WAT      O 1363   3.883   4.426   1.230
  374WAT     H1 1364   3.916   4.510   1.188
  374WAT     H2 1365   3.898   4.429   1.328
  375WAT      O 1366   2.220   4.902   4.762
  375WAT     H1 1367   2.169   4.988   4.772
  375WAT     H2 1368   2.273   4.905   4.677
  376WAT      O 1369   5.255   8.962   1.410
  376WAT     H1 1370   5.239   9.036   1.476
  376WAT     H2 1371   5.276   9.002   1.320
  377WAT      O 1372   8.797   3.042   7.288
  377WAT     H1 1373   8.882   3.062   7.240
  377WAT     H2 1374   8.773   2.946   7.274
  378WAT      O 1375   9.003   6.119   1.929
  378WAT     H1 1376   8.967   6.065   1.852
  378WAT     H2 1377   9.103   6.116   1.927
  379WAT      O 1378   2.111   7.241   3.637
  379WAT     H1 1379   2.041   7.284   3.695
  379WAT     H2 1380   2.067   7.203   3.555
  380WAT      O 1381   6.657   1.806   4.466
  380WAT     H1 1382   6.702   1.734   4.518
  380WAT     H2 1383   6.681   1.895   4.505
  381WAT      O 1384   9.214   9.264   4.677
  381WAT     H1 1385   9.275   9.241   4.753
  381WAT     H2 1386   9.181   9.180   4.634
  382WAT      O 1387   3.411   2.758   8.625
  382WAT     H1 1388   3.400   2.665   8.658
  382WAT     H2 1389   3.489   2.763   8.563
  383WAT      O 1390   4.834   4.350   0.237
  383WAT     H1 1391   4.883   4.365   0.324
  383WAT     H2 1392   4.788   4.434   0.209
  384WAT      O 1393   1.463   6.929   6.367
  384WAT     H1 1394   1.426   6.982   6.443
  384WAT     H2 1395   1.559   6.907   6.384
  385WAT      O 1396   1.198   0.149   3.056
  385WAT     H1 1397   1.186   0.100   3.143
  385WAT     H2 1398   1.112   0.151   3.007
  386WAT      O 1399   5.674   9.254   3.351
  386WAT     H1 1400   5.642   9.333   3.402
  386WAT     H2 1401   5.649   9.263   3.254
  387WAT      O 1402   5.295   4.104   0.336
  387WAT     H1 1403   5.242   4.177   0.378
  387WAT     H2 1404   5.286   4.109   0.237
  388WAT      O 1405   1.075   4.315   2.333
  388WAT     H1 1406   1.172   4.338   2.337
  388WAT     H2 1407   1.043   4.326   2.239
  389WAT      O 1408   5.634   4.990   8.357
  389WAT     H1 1409   5.658   5.051   8.282
  389WAT     H2 1410   5.650   4.895   8.330
  390WAT      O 1411   7.285   6.994   2.560
  390WAT     H1 1412   7.190   6.963   2.557
  390WAT     H2 1413   7.345   6.923   2.525
  391WAT      O 1414   7.100   3.178   1.352
  391WAT     H1 1415   7.154   3.131   1.422
  391WAT     H2 1416   7.161   3.233   1.295
  392WAT      O 1417   1.893   7.857   1.568
  392WAT     H1 1418   1.799   7.836   1.541
  392WAT     H2 1419   1.903   7.841   1.667
  393WAT      O 1420   9.859   1.142   9.859
  393WAT     H1 1421   9.867   1.218   9.795
  393WAT     H2 1422   9.792   1.165   9.929
  394WAT      O 1423   1.602   6.850   3.836
  394WAT     H1 1424   1.622   6.947   3.823
  394WAT     H2 1425   1.648   6.817   3.919
  395WAT      O 1426   3.101   6.561   7.401
  395WAT     H1 1427   3.021   6.581   7.346
  395WAT     H2 1428   3.083   6.585   7.496
  396WAT      O 1429   5.541   7.142   0.679
  396WAT     H1 1430   5.531   7.042   0.678
  396WAT     H2 1431   5.469   7.182   0.735
  397WAT      O 1432   0.697   8.739   6.005
  397WAT     H1 1433   0.619   8.788   5.967
  397WAT     H2 1434   0.700   8.753   6.104
  398WAT      O 1435   4.098   5.235   3.611
  398WAT     H1 1436   4.183   5.196   3.647
  398WAT     H2 1437   4.020   5.182   3.644
  399WAT      O 1438   2.341   8.649   8.385
  399WAT     H1 1439   2.314   8.626   8.478
  399WAT     H2 1440   2.318   8.574   8.323
  400WAT      O 1441   6.629   6.300   0.490
  400WAT     H1 1442   6.606   6.266   0.399
  400WAT     H2 1443   6.647   6.398   0.485
  401WAT      O 1444   3.148   0.453   4.816
  401WAT     H1 1445   3.097   0.515   4.875
  401WAT     H2 1446   3.132   0.358   4.844
  402WAT      O 1447   1.565   0.798   6.060
  402WAT     H1 1448   1.582   0.777   5.963
  402WAT     H2 1449   1.648   0.778   6.113
  403WAT      O 1450   9.717   7.670   1.821
  403WAT     H1 1451   9.685   7.693   1.729
  403WAT     H2 1452   9.680   7.737   1.886
  404WAT      O 1453   3.167   5.642   8.893
  404WAT     H1 1454   3.116   5.565   8.854
  404WAT     H2 1455   3.117   5.727   8.876
  405WAT      O 1456   4.609   0.223   8.528
  405WAT     H1 1457   4.622   0.140   8.582
  405WAT     H2 1458   4.698   0.266   8.511
  406WAT      O 1459   2.034   5.309   7.977
  406WAT     H1 1460   1.942   5.315   8.014
  406WAT     H2 1461   2.054   5.390   7.923
  407WAT      O 1462   3.856   4.976   9.464
  407WAT     H1 1463   3.827   4.988   9.559
  407WAT     H2 1464   3.950   5.007   9.453
  408WAT      O 1465   7.699   1.626   6.864
  408WAT     H1 1466   7.703   1.528   6.845
  408WAT     H2 1467   7.770   1.650   6.929
  409WAT      O 1468   5.783   5.944   9.827
  409WAT     H1 1469   5.827   5.861   9.860
  409WAT     H2 1470   5.800   5.954   9.728
  410WAT      O 1471   5.197   6.191   7.759
  410WAT     H1 1472   5.138   6.178   7.679
  410WAT     H2 1473   5.269   6.122   7.759
  411WAT      O 1474   4.985   3.993   2.512
  411WAT     H1 1475   4.942   3.983   2.602
  411WAT     H2 1476   4.963   4.083   2.475
  412WAT      O 1477   7.516   7.106   8.663
  412WAT     H1 1478   7.496   7.182   8.602
  412WAT     H2 1479   7.431   7.064   8.694
  413WAT      O 1480   1.911   5.289   6.754
  413WAT     H1 1481   1.919   5.231   6.835
  413WAT     H2 1482   1.998   5.293   6.706
  414WAT      O 1483   3.164   8.357   1.283
  414WAT     H1 1484   3.236   8.418   1.316
  414WAT     H2 1485   3.123   8.395   1.200
  415WAT      O 1486   7.837   9.118   3.807
  415WAT     H1 1487   7.934   9.133   3.827
  415WAT     H2 1488   7.809   9.029   3.845
  416WAT      O 1489   5.342   1.112   0.126
  416WAT     H1 1490   5.436   1.084   0.105
  416WAT     H2 1491   5.324   1.095   0.222
  417WAT      O 1492   2.168   0.289   5.392
  417WAT     H1 1493   2.155   0.345   5.474
  417WAT     H2 1494   2.176   0.348   5.312
  418WAT      O 1495   7.552   3.008   1.987
  418WAT     H1 1496   7.640   3.042   1.954
  418WAT     H2 1497   7.496   3.084   2.018
  419WAT      O 1498   2.098   0.590   9.404
  419WAT     H1 1499   2.132   0.536   9.327
  419WAT     H2 1500   2.014   0.549   9.439
  420WAT      O 1501   7.772   4.869   5.936
  420WAT     H1 1502   7.752   4.771   5.940
  420WAT     H2 1503   7.708   4.914   5.874
  421WAT      O 1504   7.638   0.132   9.228
  421WAT     H1 1505   7.549   0.091   9.208
  421WAT     H2 1506   7.675   0.093   9.313
  422WAT      O 1507   3.555   6.443   6.355
  422WAT     H1 1508   3.522   6.505   6.284
  422WAT     H2 1509   3.507   6.355   6.347
  423WAT      O 1510   8.038   6.159   4.337
  423WAT     H1 1511   7.969   6.215   4.290
  423WAT     H2 1512   8.114   6.141   4.275
  424WAT      O 1513   4.752   8.848   6.734
  424WAT     H1 1514   4.791   8.910   6.666
  424WAT     H2 1515   4.653   8.861   6.737
  425WAT      O 1516   2.641   0.732   0.977
  425WAT     H1 1517   2.607   0.813   1.026
  425WAT     H2 1518   2.738   0.718   0.999
  426WAT      O 1519   0.673   8.140   2.776
  426WAT     H1 1520   0.634   8.121   2.686
  426WAT     H2 1521   0.766   8.174   2.765
  427WAT      O 1522   3.065   7.375   5.034
  427WAT     H1 1523   3.071   7.469   5.066
  427WAT     H2 1524   3.095   7.313   5.107
  428WAT      O 1525   5.258   7.299   4.288
  428WAT     H1 1526   5.215   7.379   4.244
  428WAT     H2 1527   5.323   7.330   4.357
  429WAT      O 1528   9.655   3.776   7.426
  429WAT     H1 1529   9.556   3.780   7.442
  429WAT     H2 1530   9.692   3.869   7.423
  430WAT      O 1531   7.503   3.185   2.900
  430WAT     H1 1532   7.492   3.128   2.819
  430WAT     H2 1533   7.429   3.165   2.965
  431WAT      O 1534   1.511   6.994   8.905
  431WAT     H1 1535   1.417   6.987   8.939
  431WAT     H2 1536   1.566   6.920   8.945
  432WAT      O 1537   4.879   3.760   0.269
  432WAT     H1 1538   4.964   3.806   0.295
  432WAT     H2 1539   4.848   3.796   0.181
  433WAT      O 1540   4.488   1.513   7.409
  433WAT     H1 1541   4.560   1.450   7.438
  433WAT     H2 1542   4.505   1.541   7.314
  434WAT      O 1543   3.464   6.743   2.531
  434WAT     H1 1544   3.463   6.839   2.504
  434WAT     H2 1545   3.522   6.691   2.468
  435WAT      O 1546   2.376   1.202   8.314
  435WAT     H1 1547   2.339   1.133   8.376
  435WAT     H2 1548   2.335   1.291   8.335
  436WAT      O 1549   4.617   0.786   6.455
  436WAT     H1 1550   4.580   0.871   6.492
  436WAT     H2 1551   4.570   0.763   6.370
  437WAT      O 1552   8.650   8.854   2.922
  437WAT     H1 1553   8.642   8.881   2.826
  437WAT     H2 1554   8.624   8.930   2.981
  438WAT      O 1555   2.388   1.617   5.392
  438WAT     H1 1556   2.462   1.571   5.442
  438WAT     H2 1557   2.319   1.549   5.366
  439WAT      O 1558   4.330   9.042   4.775
  439WAT     H1 1559   4.331   9.008   4.869
  439WAT     H2 1560   4.267   9.120   4.769
  440WAT      O 1561   4.118   9.141   0.853
  440WAT     H1 1562   4.157   9.100   0.771
  440WAT     H2 1563   4.097   9.237   0.835
  441WAT      O 1564   5.982   9.237   8.985
  441WAT     H1 1565   5.925   9.190   9.052
  441WAT     H2 1566   5.962   9.335   8.986
  442WAT      O 1567   8.090   6.450   9.299
  442WAT     H1 1568   8.075   6.377   9.232
  442WAT     H2 1569   8.183   6.444   9.335
  443WAT      O 1570   8.156   7.128   3.148
  443WAT     H1 1571   8.211   7.102   3.068
  443WAT     H2 1572   8.089   7.198   3.120
  444WAT      O 1573   5.757   7.341   8.523
  444WAT     H1 1574   5.825   7.280   8.565
  444WAT     H2 1575   5.669   7.293   8.518
  445WAT      O 1576   5.657   0.684   5.066
  445WAT     H1 1577   5.726   0.644   5.126
  445WAT     H2 1578   5.661   0.783   5.070
  446WAT      O 1579   0.197   4.922   0.374
  446WAT     H1 1580   0.287   4.889   0.402
  446WAT     H2 1581   0.198   4.946   0.277
  447WAT      O 1582   8.750   5.435   4.253
  447WAT     H1 1583   8.842   5.450   4.290
  447WAT     H2 1584   8.713   5.523   4.221
  448WAT      O 1585   8.332   5.557   9.244
  448WAT     H1 1586   8.283   5.512   9.319
  448WAT     H2 1587   8.294   5.649   9.231
  449WAT      O 1588   7.767   9.502   2.190
  449WAT     H1 1589   7.760   9.423   2.252
  449WAT     H2 1590   7.842   9.488   2.126
  450WAT      O 1591   7.385   9.698   9.763
  450WAT     H1 1592   7.442   9.705   9.681
  450WAT     H2 1593   7.293   9.666   9.738
  451WAT      O 1594   1.582   0.058   7.765
  451WAT     H1 1595   1.641   0.134   7.791
  451WAT     H2 1596   1.599   0.032   7.671
  452WAT      O 1597   6.579   6.387   4.239
  452WAT     H1 1598   6.565   6.427   4.330
  452WAT     H2 1599   6.674   6.399   4.212
  453WAT      O 1600   9.842   8.863   7.778
  453WAT     H1 1601   9.744   8.878   7.792
  453WAT     H2 1602   9.893   8.934   7.825
  454WAT      O 1603   2.023   1.035   1.517
  454WAT     H1 1604   1.994   0.939   1.524
  454WAT     H2 1605   1.943   1.094   1.522
  455WAT      O 1606   5.280   9.660   8.100
  455WAT     H1 1607   5.199   9.715   8.078
  455WAT     H2 1608   5.267   9.614   8.188
  456WAT      O 1609   5.118   2.122   7.853
  456WAT     H1 1610   5.028   2.142   7.890
  456WAT     H2 1611   5.117   2.032   7.809
  457WAT      O 1612   9.153   9.167   6.028
  457WAT     H1 1613   9.098   9.152   5.946
  457WAT     H2 1614   9.195   9.257   6.025
  458WAT      O 1615   9.799   7.530   7.498
  458WAT     H1 1616   9.728   7.475   7.542
  458WAT     H2 1617   9.764   7.622   7.482
  459WAT      O 1618   2.416   9.730   2.501
  459WAT     H1 1619   2.342   9.750   2.566
  459WAT     H2 1620   2.460   9.645   2.527
  460WAT      O 1621   4.823   8.621   2.508
  460WAT     H1 1622   4.893   8.574   2.453
  460WAT     H2 1623   4.752   8.657   2.447
  461WAT      O 1624   2.734   1.287   0.867
  461WAT     H1 1625   2.815   1.332   0.831
  461WAT     H2 1626   2.675   1.355   0.910
  462WAT      O 1627   3.059   7.718   4.465
  462WAT     H1 1628   3.080   7.722   4.367
  462WAT     H2 1629   3.015   7.631   4.486
  463WAT      O 1630   4.610   8.173   2.193
  463WAT     H1 1631   4.693   8.194   2.244
  463WAT     H2 1632   4.557   8.105   2.243
  464WAT      O 1633   7.125   4.766   1.124
  464WAT     H1 1634   7.171   4.679   1.106
  464WAT     H2 1635   7.152   4.833   1.055
  465WAT      O 1636   1.891   8.455   9.853
  465WAT     H1 1637   1.960   8.382   9.861
  465WAT     H2 1638   1.801   8.415   9.836
  466WAT      O 1639   7.512   1.015   0.628
  466WAT     H1 1640   7.521   0.962   0.544
  466WAT     H2 1641   7.602   1.027   0.670
  467WAT      O 1642   0.852   1.168   5.568
  467WAT     H1 1643   0.928   1.197   5.627
  467WAT     H2 1644   0.795   1.101   5.617
  468WAT      O 1645   3.330   0.518   2.105
  468WAT     H1 1646   3.360   0.613   2.094
  468WAT     H2 1647   3.409   0.457   2.098
  469WAT      O 1648   3.435   2.320   8.822
  469WAT     H1 1649   3.404   2.375   8.745
  469WAT     H2 1650   3.444   2.378   8.903
  470WAT      O 1651   9.254   6.351   8.643
  470WAT     H1 1652   9.327   6.329   8.707
  470WAT     H2 1653   9.238   6.274   8.582
  471WAT      O 1654   3.166   3.040   9.441
  471WAT     H1 1655   3.196   3.038   9.345
  471WAT     H2 1656   3.165   3.135   9.473
  472WAT      O 1657   4.343   8.260   9.633
  472WAT     H1 1658   4.263   8.201   9.620
  472WAT     H2 1659   4.315   8.348   9.671
  473WAT      O 1660   7.249   3.259   2.737
  473WAT     H1 1661   7.316   3.185   2.735
  473WAT     H2 1662   7.256   3.314   2.654
  474WAT      O 1663   5.385   1.858   0.685
  474WAT     H1 1664   5.432   1.785   0.634
  474WAT     H2 1665   5.313   1.818   0.741
  475WAT      O 1666   6.620   0.280   4.337
  475WAT     H1 1667   6.608   0.261   4.434
  475WAT     H2 1668   6.530   0.295   4.295
  476WAT      O 1669   8.167   3.897   1.380
  476WAT     H1 1670   8.208   3.974   1.430
  476WAT     H2 1671   8.136   3.828   1.445
  477WAT      O 1672   6.868   0.399   4.366
  477WAT     H1 1673   6.801   0.328   4.344
  477WAT     H2 1674   6.825   0.489   4.360
  478WAT      O 1675   4.744   7.930   9.160
  478WAT     H1 1676   4.772   7.834   9.161
  478WAT     H2 1677   4.644   7.936   9.154
  479WAT      O 1678   4.521   1.242   5.513
  479WAT     H1 1679   4.508   1.315   5.581
  479WAT     H2 1680   4.520   1.282   5.421
  480WAT      O 1681   3.646   5.398   0.548
  480WAT     H1 1682   3.657   5.304   0.515
  480WAT     H2 1683   3.590   5.398   0.631
  481WAT      O 1684   2.007   9.212   6.597
  481WAT     H1 1685   1.914   9.194   6.563
  481WAT     H2 1686   2.062   9.253   6.524
  482WAT      O 1687   8.850   6.459   1.187
  482WAT     H1 1688   8.788   6.536   1.203
  482WAT     H2 1689   8.840   6.392   1.260
  483WAT      O 1690   2.439   0.789   3.324
  483WAT     H1 1691   2.454   0.693   3.347
  483WAT     H2 1692   2.516   0.822   3.268
  484WAT      O 1693   2.247   2.106   7.191
  484WAT     H1 1694   2.162   2.128   7.144
  484WAT     H2 1695   2.226   2.073   7.284
  485WAT      O 1696   0.802   4.614   2.170
  485WAT     H1 1697   0.741   4.678   2.123
  485WAT     H2 1698   0.874   4.584   2.107
  486WAT      O 1699   7.577   1.376   8.265
  486WAT     H1 1700   7.510   1.381   8.191
  486WAT     H2 1701   7.548   1.306   8.331
  487WAT      O 1702   6.139   3.169   1.411
  487WAT     H1 1703   6.059   3.184   1.352
  487WAT     H2 1704   6.223   3.191   1.360
  488WAT      O 1705   6.102   0.476   7.806
  488WAT     H1 1706   6.036   0.403   7.820
  488WAT     H2 1707   6.193   0.437   7.788
  489WAT      O 1708   2.720   1.759   2.767
  489WAT     H1 1709   2.731   1.752   2.668
  489WAT     H2 1710   2.809   1.768   2.810
  490WAT      O 1711   4.473   1.451   3.191
  490WAT     H1 1712   4.505   1.397   3.114
  490WAT     H2 1713   4.527   1.430   3.272
  491WAT      O 1714   9.626   1.157   9.382
  491WAT     H1 1715   9.664   1.238   9.336
  491WAT     H2 1716   9.658   1.074   9.335
  492WAT      O 1717   4.918   5.478   9.464
  492WAT     H1 1718   4.867   5.395   9.487
  492WAT     H2 1719   4.991   5.492   9.531
  493WAT      O 1720   1.241   5.169   4.844
  493WAT     H1 1721   1.186   5.151   4.926
  493WAT     H2 1722   1.256   5.083   4.794
  494WAT      O 1723   9.404   2.143   1.262
  494WAT     H1 1724   9.394   2.188   1.350
  494WAT     H2 1725   9.424   2.046   1.276
  495WAT      O 1726   0.941   0.079   5.955
  495WAT     H1 1727   0.927   0.058   5.858
  495WAT     H2 1728   0.938  -0.006   6.008
  496WAT      O 1729   5.229   3.486   4.646
  496WAT     H1 1730   5.227   3.406   4.705
  496WAT     H2 1731   5.324   3.518   4.636
  497WAT      O 1732   0.085   8.013   5.002
  497WAT     H1 1733   0.177   8.005   5.040
  497WAT     H2 1734   0.023   7.951   5.050
  498WAT      O 1735   4.305   8.278   6.144
  498WAT     H1 1736   4.308   8.226   6.229
  498WAT     H2 1737   4.215   8.269   6.102
  499WAT      O 1738   4.074   7.415   9.013
  499WAT     H1 1739   4.104   7.474   9.088
  499WAT     H2 1740   4.033   7.471   8.941
  500WAT      O 1741   6.507   7.551   8.687
  500WAT     H1 1742   6.494   7.579   8.592
  500WAT     H2 1743   6.517   7.631   8.745
  501WAT      O 1744   4.500   3.381   6.021
  501WAT     H1 1745   4.440   3.301   6.013
  501WAT     H2 1746   4.564   3.367   6.096
  502WAT      O 1747   0.727   6.772   7.934
  502WAT     H1 1748   0.694   6.711   8.007
  502WAT     H2 1749   0.723   6.867   7.965
  503WAT      O 1750   7.881   5.650   2.968
  503WAT     H1 1751   7.850   5.648   3.063
  503WAT     H2 1752   7.809   5.616   2.909
  504WAT      O 1753   8.745   6.015   9.795
  504WAT     H1 1754   8.663   6.069   9.814
  504WAT     H2 1755   8.782   6.041   9.706
  505WAT      O 1756   7.692   0.728   1.361
  505WAT     H1 1757   7.610   0.786   1.355
  505WAT     H2 1758   7.707   0.685   1.272
  506WAT      O 1759   5.133   3.303   0.220
  506WAT     H1 1760   5.096   3.247   0.146
  506WAT     H2 1761   5.071   3.379   0.239
  507WAT      O 1762   8.609   3.325   8.655
  507WAT     H1 1763   8.549   3.257   8.614
  507WAT     H2 1764   8.555   3.389   8.709
  508WAT      O 1765   1.863   1.405   0.746
  508WAT     H1 1766   1.872   1.306   0.759
  508WAT     H2 1767   1.820   1.424   0.658
  509WAT      O 1768   8.795   5.667   4.566
  509WAT     H1 1769   8.790   5.616   4.652
  509WAT     H2 1770   8.720   5.638   4.506
  510WAT      O 1771   3.082   4.137   7.027
  510WAT     H1 1772   3.013   4.064   7.023
  510WAT     H2 1773   3.043   4.218   7.070
  511WAT      O 1774   6.923   5.215   5.073
  511WAT     H1 1775   7.012   5.183   5.105
  511WAT     H2 1776   6.857   5.209   5.148
  512WAT      O 1777   4.159   3.973   9.566
  512WAT     H1 1778   4.211   3.964   9.481
  512WAT     H2 1779   4.065   3.943   9.551
  513WAT      O 1780   6.952   3.633   6.081
  513WAT     H1 1781   6.933   3.582   5.997
  513WAT     H2 1782   7.018   3.581   6.137
  514WAT      O 1783   4.135   1.755   2.767
  514WAT     H1 1784   4.218   1.724   2.814
  514WAT     H2 1785   4.160   1.793   2.677
  515WAT      O 1786   2.358   1.462   6.475
  515WAT     H1 1787   2.320   1.543   6.520
  515WAT     H2 1788   2.397   1.400   6.544
  516WAT      O 1789   4.475   5.096   3.555
  516WAT     H1 1790   4.429   5.163   3.496
  516WAT     H2 1791   4.448   5.004   3.528
  517WAT      O 1792   7.784   5.164   6.278
  517WAT     H1 1793   7.748   5.257   6.271
  517WAT     H2 1794   7.712   5.102   6.309
  518WAT      O 1795   2.373   6.337   7.343
  518WAT     H1 1796   2.450   6.347   7.281
  518WAT     H2 1797   2.407   6.326   7.437
  519WAT      O 1798   4.496   8.818   0.965
  519WAT     H1 1799   4.542   8.820   0.876
  519WAT     H2 1800   4.424   8.887   0.967
  520WAT      O 1801   5.019   1.491   4.333
  520WAT     H1 1802   4.988   1.541   4.252
  520WAT     H2 1803   5.098   1.434   4.309
  521WAT      O 1804   7.412   7.236   0.787
  521WAT     H1 1805   7.496   7.289   0.778
  521WAT     H2 1806   7.424   7.146   0.747
  522WAT      O 1807   9.748   2.504   6.507
  522WAT     H1 1808   9.716   2.598   6.516
  522WAT     H2 1809   9.841   2.497   6.543
  523WAT      O 1810   3.532   6.718   4.167
  523WAT     H1 1811   3.485   6.779   4.231
  523WAT     H2 1812   3.518   6.623   4.195
  524WAT      O 1813   5.994   8.466   7.569
  524WAT     H1 1814   5.900   8.435   7.579
  524WAT     H2 1815   6.053   8.387   7.552
  525WAT      O 1816   1.431   0.437   1.260
  525WAT     H1 1817   1.457   0.427   1.164
  525WAT     H2 1818   1.367   0.364   1.285
  526WAT      O 1819   8.321   8.278   1.952
  526WAT     H1 1820   8.225   8.284   1.982
  526WAT     H2 1821   8.326   8.225   1.868
  527WAT      O 1822   5.952   8.302   8.835
  527WAT     H1 1823   5.884   8.232   8.855
  527WAT     H2 1824   5.976   8.351   8.919
  528WAT      O 1825   4.383   9.733   7.361
  528WAT     H1 1826   4.468   9.708   7.315
  528WAT     H2 1827   4.350   9.655   7.416
  529WAT      O 1828   0.281   8.017   0.408
  529WAT     H1 1829   0.326   8.104   0.386
  529WAT     H2 1830   0.205   8.002   0.345
  530WAT      O 1831   6.733   4.992   1.249
  530WAT     H1 1832   6.678   5.054   1.193
  530WAT     H2 1833   6.719   5.014   1.346
  531WAT      O 1834   5.290   3.435   1.535
  531WAT     H1 1835   5.370   3.451   1.594
  531WAT     H2 1836   5.207   3.444   1.588
  532WAT      O 1837   0.201   4.688   9.889
  532WAT     H1 1838   0.178   4.731   9.802
  532WAT     H2 1839   0.125   4.632   9.920
  533WAT      O 1840   5.300   1.253   2.487
  533WAT     H1 1841   5.267   1.239   2.580
  533WAT     H2 1842   5.222   1.256   2.424
  534WAT      O 1843   3.084   1.661   3.246
  534WAT     H1 1844   3.150   1.607   3.193
  534WAT     H2 1845   3.101   1.647   3.344
  535WAT      O 1846   6.289   8.053   6.544
  535WAT     H1 1847   6.256   7.980   6.604
  535WAT     H2 1848   6.271   8.141   6.586
  536WAT      O 1849   7.612   9.363   7.623
  536WAT     H1 1850   7.586   9.454   7.592
  536WAT     H2 1851   7.698   9.336   7.579
  537WAT      O 1852   0.554   2.015   2.751
  537WAT     H1 1853   0.470   2.046   2.708
  537WAT     H2 1854   0.569   1.918   2.731
  538WAT      O 1855   6.655   2.539   4.811
  538WAT     H1 1856   6.627   2.582   4.897
  538WAT     H2 1857   6.712   2.603   4.759
  539WAT      O 1858   5.593   8.260   0.055
  539WAT     H1 1859   5.572   8.223   0.145
  539WAT     H2 1860   5.691   8.280   0.048
  540WAT      O 1861   7.068   9.369   9.258
  540WAT     H1 1862   6.997   9.428   9.297
  540WAT     H2 1863   7.147   9.367   9.319
  541WAT      O 1864   0.677   4.134   1.494
  541WAT     H1 1865   0.695   4.144   1.592
  541WAT     H2 1866   0.579   4.116   1.480
  542WAT      O 1867   4.530   4.794   0.708
  542WAT     H1 1868   4.541   4.813   0.805
  542WAT     H2 1869   4.439   4.754   0.692
  543WAT      O 1870   1.367   0.940   8.548
  543WAT     H1 1871   1.336   1.011   8.612
  543WAT     H2 1872   1.440   0.887   8.591
  544WAT      O 1873   8.002   9.154   8.738
  544WAT     H1 1874   8.025   9.242   8.778
  544WAT     H2 1875   8.074   9.088   8.758
  545WAT      O 1876   3.085   4.201   8.608
  545WAT     H1 1877   3.021   4.245   8.671
  545WAT     H2 1878   3.096   4.105   8.632
  546WAT      O 1879   8.245   4.801   0.045
  546WAT     H1 1880   8.278   4.822  -0.047
  546WAT     H2 1881   8.277   4.872   0.108
  547WAT      O 1882   4.667   9.477   3.284
  547WAT     H1 1883   4.746   9.501   3.228
  547WAT     H2 1884   4.616   9.403   3.240
  548WAT      O 1885   8.901   8.059   7.296
  548WAT     H1 1886   8.924   8.026   7.205
  548WAT     H2 1887   8.821   8.009   7.331
  549WAT      O 1888   7.168   7.367   0.524
  549WAT     H1 1889   7.112   7.286   0.541
  549WAT     H2 1890   7.128   7.446   0.571
  550WAT      O 1891   4.812   1.565   9.593
  550WAT     H1 1892   4.749   1.641   9.608
  550WAT     H2 1893   4.846   1.568   9.499
  551WAT      O 1894   1.353   9.686   1.423
  551WAT     H1 1895   1.384   9.766   1.372
  551WAT     H2 1896   1.353   9.606   1.362
  552WAT      O 1897   1.547   4.129   5.112
  552WAT     H1 1898   1.531   4.207   5.173
  552WAT     H2 1899   1.522   4.044   5.159
  553WAT      O 1900   4.711   8.224   6.286
  553WAT     H1 1901   4.659   8.297   6.241
  553WAT     H2 1902   4.705   8.140   6.231
  554WAT      O 1903   3.207   2.982   4.960
  554WAT     H1 1904   3.211   2.885   4.982
  554WAT     H2 1905   3.273   3.003   4.888
  555WAT      O 1906   8.560   4.162   3.095
  555WAT     H1 1907   8.557   4.172   3.194
  555WAT     H2 1908   8.605   4.242   3.055
  556WAT      O 1909   6.759   6.831   4.087
  556WAT     H1 1910   6.845   6.781   4.098
  556WAT     H2 1911   6.688   6.769   4.057
  557WAT      O 1912   5.149   9.295   4.323
  557WAT     H1 1913   5.056   9.331   4.320
  557WAT     H2 1914   5.159   9.237   4.404
  558WAT      O 1915   7.874   9.118   4.274
  558WAT     H1 1916   7.848   9.214   4.267
  558WAT     H2 1917   7.922   9.103   4.360
  559WAT      O 1918   2.521   7.711   8.266
  559WAT     H1 1919   2.465   7.629   8.270
  559WAT     H2 1920   2.577   7.710   8.183
  560WAT      O 1921   9.431   3.801   5.864
  560WAT     H1 1922   9.378   3.867   5.918
  560WAT     H2 1923   9.511   3.848   5.824
  561WAT      O 1924   5.464   0.041   4.310
  561WAT     H1 1925   5.416   0.033   4.222
  561WAT     H2 1926   5.541   0.104   4.300
  562WAT      O 1927   8.569   8.586   6.825
  562WAT     H1 1928   8.503   8.661   6.818
  562WAT     H2 1929   8.605   8.583   6.919
  563WAT      O 1930   6.519   8.584   6.870
  563WAT     H1 1931   6.541   8.517   6.799
  563WAT     H2 1932   6.564   8.671   6.848
  564WAT      O 1933   6.165   6.589   1.212
  564WAT     H1 1934   6.214   6.515   1.257
  564WAT     H2 1935   6.194   6.677   1.250
  565WAT      O 1936   5.427   7.569   7.538
  565WAT     H1 1937   5.336   7.527   7.531
  565WAT     H2 1938   5.422   7.650   7.596
  566WAT      O 1939   9.508   4.709   3.812
  566WAT     H1 1940   9.574   4.665   3.751
  566WAT     H2 1941   9.556   4.754   3.887
  567WAT      O 1942   5.677   7.779   9.485
  567WAT     H1 1943   5.621   7.817   9.411
  567WAT     H2 1944   5.670   7.838   9.565
  568WAT      O 1945   4.656   0.225   0.195
  568WAT     H1 1946   4.685   0.297   0.131
  568WAT     H2 1947   4.727   0.155   0.200
  569WAT      O 1948   0.580   2.001   6.920
  569WAT     H1 1949   0.570   1.909   6.882
  569WAT     H2 1950   0.599   1.995   7.017
  570WAT      O 1951   1.070   9.332   4.967
  570WAT     H1 1952   1.152   9.385   4.988
  570WAT     H2 1953   1.090   9.267   4.894
  571WAT      O 1954   3.198   7.771   0.682
  571WAT     H1 1955   3.179   7.785   0.779
  571WAT     H2 1956   3.290   7.733   0.671
  572WAT      O 1957   1.533   6.458   1.918
  572WAT     H1 1958   1.629   6.465   1.891
  572WAT     H2 1959   1.484   6.400   1.854
  573WAT      O 1960   4.325   3.662   6.074
  573WAT     H1 1961   4.333   3.704   6.164
  573WAT     H2 1962   4.287   3.570   6.084
  574WAT      O 1963   6.400   1.833   4.116
  574WAT     H1 1964   6.410   1.822   4.018
  574WAT     H2 1965   6.334   1.766   4.151
  575WAT      O 1966   6.059   7.353   0.583
  575WAT     H1 1967   6.094   7.325   0.494
  575WAT     H2 1968   6.106   7.302   0.655
  576WAT      O 1969   5.640   3.150   3.289
  576WAT     H1 1970   5.684   3.230   3.249
  576WAT     H2 1971   5.589   3.177   3.371
  577WAT      O 1972   1.143   8.765   7.326
  577WAT     H1 1973   1.183   8.811   7.405
  577WAT     H2 1974   1.182   8.673   7.318
  578WAT      O 1975   4.400   9.299   2.797
  578WAT     H1 1976   4.322   9.253   2.755
  578WAT     H2 1977   4.484   9.250   2.774
  579WAT      O 1978   6.137   7.971   1.934
  579WAT     H1 1979   6.157   7.988   2.031
  579WAT     H2 1980   6.162   8.052   1.881
  580WAT      O 1981   2.810   0.391   7.427
  580WAT     H1 1982   2.822   0.479   7.381
  580WAT     H2 1983   2.877   0.382   7.501
  581WAT      O 1984   8.254   9.612   6.259
  581WAT     H1 1985   8.295   9.574   6.177
  581WAT     H2 1986   8.181   9.676   6.234
  582WAT      O 1987   3.133   6.621   2.408
  582WAT     H1 1988   3.041   6.649   2.435
  582WAT     H2 1989   3.159   6.538   2.457
  583WAT      O 1990   8.929   4.792   4.766
  583WAT     H1 1991   8.977   4.877   4.744
  583WAT     H2 1992   8.990   4.732   4.819
  584WAT      O 1993   4.877   4.560   1.990
  584WAT     H1 1994   4.903   4.649   1.953
  584WAT     H2 1995   4.959   4.508   2.015
  585WAT      O 1996   5.059   7.043   6.970
  585WAT     H1 1997   4.960   7.058   6.967
  585WAT     H2 1998   5.080   6.950   6.940
  586WAT      O 1999   8.708   7.541   9.717
  586WAT     H1 2000   8.720   7.566   9.621
  586WAT     H2 2001   8.670   7.448   9.722
  587WAT      O 2002   2.471   6.206   4.572
  587WAT     H1 2003   2.420   6.274   4.519
  587WAT     H2 2004   2.408   6.133   4.601
  588WAT      O 2005   3.214   6.412   0.721
  588WAT     H1 2006   3.133   6.458   0.687
  588WAT     H2 2007   3.212   6.411   0.821
  589WAT      O 2008   1.316   1.614   8.143
  589WAT     H1 2009   1.245   1.641   8.209
  589WAT     H2 2010   1.404   1.652   8.172
  590WAT      O 2011   5.875   7.334   6.094
  590WAT     H1 2012   5.926   7.249   6.109
  590WAT     H2 2013   5.788   7.329   6.142
  591WAT      O 2014   3.093   0.370   2.976
  591WAT     H1 2015   3.054   0.407   2.891
  591WAT     H2 2016   3.036   0.398   3.053
  592WAT      O 2017   1.993   5.758   5.067
  592WAT     H1 2018   1.905   5.755   5.019
  592WAT     H2 2019   2.038   5.845   5.049
  593WAT      O 2020   8.223   7.713   1.146
  593WAT     H1 2021   8.228   7.764   1.061
  593WAT     H2 2022   8.315   7.703   1.185
  594WAT      O 2023   8.134   2.136   9.415
  594WAT     H1 2024   8.164   2.046   9.448
  594WAT     H2 2025   8.034   2.140   9.416
  595WAT      O 2026   7.996   9.258   9.790
  595WAT     H1 2027   8.050   9.177   9.815
  595WAT     H2 2028   7.984   9.315   9.871
  596WAT      O 2029   2.563   7.536   7.692
  596WAT     H1 2030   2.643   7.572   7.645
  596WAT     H2 2031   2.507   7.611   7.725
  597WAT      O 2032   2.897   4.379   9.860
  597WAT     H1 2033   2.994   4.399   9.849
  597WAT     H2 2034   2.885   4.284   9.888
  598WAT      O 2035   3.096   9.126   8.963
  598WAT     H1 2036   3.026   9.075   8.913
  598WAT     H2 2037   3.087   9.223   8.943
  599WAT      O 2038   2.498   3.371   7.148
  599WAT     H1 2039   2.546   3.345   7.064
  599WAT     H2 2040   2.494   3.470   7.154
  600WAT      O 2041   2.387   6.323   3.884
  600WAT     H1 2042   2.291   6.345   3.905
  600WAT     H2 2043   2.429   6.402   3.838
  601WAT      O 2044   3.639   7.842   0.573
  601WAT     H1 2045   3.580   7.919   0.548
  601WAT     H2 2046   3.608   7.759   0.527
  602WAT      O 2047   0.394   6.374   2.605
  602WAT     H1 2048   0.371   6.284   2.641
  602WAT     H2 2049   0.478   6.369   2.551
  603WAT      O 2050   8.275   4.861   8.229
  603WAT     H1 2051   8.216   4.817   8.161
  603WAT     H2 2052   8.236   4.850   8.320
  604WAT      O 2053   8.041   8.687   8.588
  604WAT     H1 2054   7.945   8.658   8.580
  604WAT     H2 2055   8.059   8.760   8.522
  605WAT      O 2056   7.195   6.987   1.757
  605WAT     H1 2057   7.160   7.062   1.702
  605WAT     H2 2058   7.177   7.004   1.853
  606WAT      O 2059   7.989   7.268   9.587
  606WAT     H1 2060   7.921   7.261   9.514
  606WAT     H2 2061   7.945   7.301   9.670
  607WAT      O 2062   2.653   3.215   2.794
  607WAT     H1 2063   2.700   3.174   2.715
  607WAT     H2 2064   2.721   3.253   2.857
  608WAT      O 2065   4.259   0.191   3.044
  608WAT     H1 2066   4.353   0.221   3.029
  608WAT     H2 2067   4.242   0.180   3.142
  609WAT      O 2068   1.366   0.857   3.386
  609WAT     H1 2069   1.417   0.914   3.451
  609WAT     H2 2070   1.287   0.817   3.433
  610WAT      O 2071   7.606   4.917   7.204
  610WAT     H1 2072   7.638   4.842   7.146
  610WAT     H2 2073   7.570   4.990   7.147
  611WAT      O 2074   4.361   8.891   0.316
  611WAT     H1 2075   4.331   8.986   0.320
  611WAT     H2 2076   4.284   8.833   0.289
  612WAT      O 2077   6.406   7.400   3.456
  612WAT     H1 2078   6.487   7.458   3.468
  612WAT     H2 2079   6.418   7.315   3.508
  613WAT      O 2080   1.381   7.770   7.224
  613WAT     H1 2081   1.379   7.863   7.261
  613WAT     H2 2082   1.331   7.709   7.285
  614WAT      O 2083   3.036   9.776   3.580
  614WAT     H1 2084   2.996   9.847   3.522
  614WAT     H2 2085   3.128   9.802   3.607
  615WAT      O 2086   2.044   7.221   5.631
  615WAT     H1 2087   1.973   7.152   5.617
  615WAT     H2 2088   2.096   7.233   5.547
  616WAT      O 2089   8.333   0.415   8.130
  616WAT     H1 2090   8.276   0.335   8.109
  616WAT     H2 2091   8.281   0.499   8.113
  617WAT      O 2092   2.517   6.037   5.666
  617WAT     H1 2093   2.469   6.023   5.753
  617WAT     H2 2094   2.551   6.130   5.662
  618WAT      O 2095   5.308   4.711   7.120
  618WAT     H1 2096   5.301   4.613   7.137
  618WAT     H2 2097   5.392   4.729   7.068
  619WAT      O 2098   0.216   9.507   8.859
  619WAT     H1 2099   0.270   9.562   8.796
  619WAT     H2 2100   0.235   9.537   8.953
  620WAT      O 2101   8.856   2.095   1.794
  620WAT     H1 2102   8.923   2.150   1.745
  620WAT     H2 2103   8.832   2.140   1.880
  621WAT      O 2104   9.224   7.660   1.426
  621WAT     H1 2105   9.214   7.757   1.446
  621WAT     H2 2106   9.161   7.608   1.483
  622WAT      O 2107   1.525   5.259   5.575
  622WAT     H1 2108   1.532   5.222   5.482
  622WAT     H2 2109   1.616   5.268   5.614
  623WAT      O 2110   4.353   5.499   8.174
  623WAT     H1 2111   4.363   5.449   8.260
  623WAT     H2 2112   4.266   5.477   8.132
  624WAT      O 2113   8.920   7.657   8.708
  624WAT     H1 2114   8.943   7.560   8.703
  624WAT     H2 2115   8.876   7.685   8.623
  625WAT      O 2116   1.075   4.828   6.740
  625WAT     H1 2117   1.040   4.911   6.697
  625WAT     H2 2118   1.008   4.794   6.806
  626WAT      O 2119   8.389   2.526   6.980
  626WAT     H1 2120   8.485   2.523   6.953
  626WAT     H2 2121   8.347   2.436   6.963
  627WAT      O 2122   2.201   1.332   2.668
  627WAT     H1 2123   2.147   1.330   2.753
  627WAT     H2 2124   2.139   1.331   2.589
  628WAT      O 2125   7.558   6.172   0.582
  628WAT     H1 2126   7.470   6.127   0.596
  628WAT     H2 2127   7.575   6.182   0.484
  629WAT      O 2128   5.093   8.591   1.327
  629WAT     H1 2129   5.131   8.539   1.250
  629WAT     H2 2130   5.031   8.661   1.291
  630WAT      O 2131   3.244   1.770   0.841
  630WAT     H1 2132   3.234   1.869   0.844
  630WAT     H2 2133   3.242   1.739   0.746
  631WAT      O 2134   9.521   5.522   7.565
  631WAT     H1 2135   9.482   5.432   7.583
  631WAT     H2 2136   9.601   5.536   7.622
  632WAT      O 2137   2.702   9.112   8.448
  632WAT     H1 2138   2.728   9.195   8.398
  632WAT     H2 2139   2.653   9.050   8.387
  633WAT      O 2140   9.657   5.203   9.182
  633WAT     H1 2141   9.619   5.120   9.140
  633WAT     H2 2142   9.583   5.266   9.203
  634WAT      O 2143   3.870   4.725   3.100
  634WAT     H1 2144   3.849   4.737   3.198
  634WAT     H2 2145   3.804   4.661   3.060
  635WAT      O 2146   6.252   3.467   4.265
  635WAT     H1 2147   6.316   3.440   4.337
  635WAT     H2 2148   6.189   3.536   4.301
  636WAT      O 2149   9.485   8.756   3.839
  636WAT     H1 2150   9.557   8.739   3.771
  636WAT     H2 2151   9.397   8.764   3.792
  637WAT      O 2152   3.983   4.602   6.267
  637WAT     H1 2153   4.008   4.506   6.280
  637WAT     H2 2154   3.884   4.612   6.282
  638WAT      O 2155   2.305   4.377   7.107
  638WAT     H1 2156   2.355   4.365   7.193
  638WAT     H2 2157   2.309   4.292   7.054
  639WAT      O 2158   3.308   6.524   4.770
  639WAT     H1 2159   3.358   6.527   4.684
  639WAT     H2 2160   3.216   6.487   4.755
  640WAT      O 2161   5.660   3.832   4.248
  640WAT     H1 2162   5.609   3.761   4.200
  640WAT     H2 2163   5.676   3.805   4.342
  641WAT      O 2164   0.751   7.977   1.491
  641WAT     H1 2165   0.669   7.946   1.539
  641WAT     H2 2166   0.824   7.996   1.557
  642WAT      O 2167   5.065   1.894   3.391
  642WAT     H1 2168   5.156   1.919   3.424
  642WAT     H2 2169   5.008   1.976   3.385
  643WAT      O 2170   8.392   0.176   0.669
  643WAT     H1 2171   8.452   0.106   0.631
  643WAT     H2 2172   8.315   0.191   0.607
  644WAT      O 2173   2.561   7.939   4.785
  644WAT     H1 2174   2.624   7.897   4.719
  644WAT     H2 2175   2.607   8.014   4.832
  645WAT      O 2176   7.390   5.427   4.500
  645WAT     H1 2177   7.433   5.339   4.522
  645WAT     H2 2178   7.311   5.412   4.441
  646WAT      O 2179   7.521   1.465   3.443
  646WAT     H1 2180   7.556   1.445   3.534
  646WAT     H2 2181   7.443   1.528   3.450
  647WAT      O 2182   9.818   3.372   2.930
  647WAT     H1 2183   9.742   3.429   2.961
  647WAT     H2 2184   9.904   3.405   2.970
  648WAT      O 2185   5.093   5.939   7.289
  648WAT     H1 2186   4.998   5.951   7.317
  648WAT     H2 2187   5.151   5.999   7.345
  649WAT      O 2188   1.477   6.164   3.608
  649WAT     H1 2189   1.454   6.107   3.530
  649WAT     H2 2190   1.413   6.147   3.682
  650WAT      O 2191   7.103   3.149   2.996
  650WAT     H1 2192   7.129   3.098   2.914
  650WAT     H2 2193   7.103   3.247   2.976
  651WAT      O 2194   5.674   3.411   4.076
  651WAT     H1 2195   5.615   3.341   4.115
  651WAT     H2 2196   5.747   3.433   4.142
  652WAT      O 2197   4.871   5.420   3.970
  652WAT     H1 2198   4.953   5.477   3.966
  652WAT     H2 2199   4.819   5.431   3.885
  653WAT      O 2200   0.423   2.518   6.850
  653WAT     H1 2201   0.523   2.519   6.851
  653WAT     H2 2202   0.390   2.441   6.904
  654WAT      O 2203   7.527   7.221   7.628
  654WAT     H1 2204   7.515   7.152   7.557
  654WAT     H2 2205   7.616   7.266   7.617
  655WAT      O 2206   6.513   5.117   1.113
  655WAT     H1 2207   6.547   5.211   1.116
  655WAT     H2 2208   6.415   5.118   1.090
  656WAT      O 2209   0.697   1.115   8.569
  656WAT     H1 2210   0.677   1.209   8.541
  656WAT     H2 2211   0.646   1.093   8.652
  657WAT      O 2212   3.729   3.596   6.484
  657WAT     H1 2213   3.695   3.570   6.394
  657WAT     H2 2214   3.820   3.558   6.498
  658WAT      O 2215   1.065   6.232   8.067
  658WAT     H1 2216   0.984   6.279   8.099
  658WAT     H2 2217   1.038   6.156   8.007
  659WAT      O 2218   7.197   8.221   0.184
  659WAT     H1 2219   7.211   8.122   0.183
  659WAT     H2 2220   7.258   8.264   0.118
  660WAT      O 2221   3.917   8.417   9.430
  660WAT     H1 2222   3.873   8.498   9.469
  660WAT     H2 2223   3.978   8.444   9.356
  661WAT      O 2224   0.550   6.343   3.555
  661WAT     H1 2225   0.509   6.309   3.640
  661WAT     H2 2226   0.613   6.275   3.518
  662WAT      O 2227   2.420   2.991   3.304
  662WAT     H1 2228   2.341   2.985   3.243
  662WAT     H2 2229   2.429   3.084   3.339
  663WAT      O 2230   0.967   1.992   1.639
  663WAT     H1 2231   0.988   1.973   1.735
  663WAT     H2 2232   1.041   2.047   1.599
  664WAT      O 2233   4.875   2.052   2.294
  664WAT     H1 2234   4.959   2.055   2.349
  664WAT     H2 2235   4.800   2.094   2.345
  665WAT      O 2236   7.939   5.349   0.448
  665WAT     H1 2237   7.870   5.351   0.376
  665WAT     H2 2238   7.895   5.329   0.536
  666WAT      O 2239   1.995   9.085   0.040
  666WAT     H1 2240   1.907   9.118   0.072
  666WAT     H2 2241   1.990   9.067  -0.059
  667WAT      O 2242   5.514   3.358   0.693
  667WAT     H1 2243   5.549   3.436   0.641
  667WAT     H2 2244   5.566   3.276   0.670
  668WAT      O 2245   5.744   3.691   8.179
  668WAT     H1 2246   5.747   3.706   8.278
  668WAT     H2 2247   5.736   3.779   8.132
  669WAT      O 2248   6.638   7.670   5.492
  669WAT     H1 2249   6.654   7.755   5.441
  669WAT     H2 2250   6.608   7.598   5.429
  670WAT      O 2251   4.874   1.386   2.984
  670WAT     H1 2252   4.847   1.320   3.055
  670WAT     H2 2253   4.850   1.350   2.894
  671WAT      O 2254   2.067   1.565   3.080
  671WAT     H1 2255   2.106   1.653   3.053
  671WAT     H2 2256   2.020   1.524   3.002
  672WAT      O 2257   1.451   6.923   7.403
  672WAT     H1 2258   1.418   6.838   7.443
  672WAT     H2 2259   1.448   6.996   7.471
  673WAT      O 2260   0.326   5.795   0.912
  673WAT     H1 2261   0.384   5.804   0.993
  673WAT     H2 2262   0.380   5.758   0.836
  674WAT      O 2263   7.877   0.181   7.948
  674WAT     H1 2264   7.833   0.092   7.961
  674WAT     H2 2265   7.933   0.179   7.865
  675WAT      O 2266   2.973   8.845   1.569
  675WAT     H1 2267   2.974   8.933   1.617
  675WAT     H2 2268   2.882   8.805   1.574
  676WAT      O 2269   1.698   7.274   8.316
  676WAT     H1 2270   1.700   7.175   8.331
  676WAT     H2 2271   1.626   7.297   8.250
  677WAT      O 2272   7.706   6.476   6.414
  677WAT     H1 2273   7.675   6.551   6.355
  677WAT     H2 2274   7.738   6.513   6.501
  678WAT      O 2275   4.773   6.213   1.354
  678WAT     H1 2276   4.788   6.170   1.443
  678WAT     H2 2277   4.859   6.217   1.305
  679WAT      O 2278   4.775   8.890   1.796
  679WAT     H1 2279   4.790   8.834   1.877
  679WAT     H2 2280   4.679   8.882   1.768
  680WAT      O 2281   0.788   8.498   9.175
  680WAT     H1 2282   0.783   8.462   9.081
  680WAT     H2 2283   0.858   8.448   9.226
  681WAT      O 2284   3.079   1.371   4.997
  681WAT     H1 2285   3.156   1.429   5.024
  681WAT     H2 2286   3.087   1.348   4.900
  682WAT      O 2287   8.148   6.895   7.074
  682WAT     H1 2288   8.147   6.924   7.170
  682WAT     H2 2289   8.145   6.795   7.069
  683WAT      O 2290   7.064   7.567   0.712
  683WAT     H1 2291   6.970   7.536   0.731
  683WAT     H2 2292   7.088   7.639   0.776
  684WAT      O 2293   8.024   2.944   5.186
  684WAT     H1 2294   7.961   2.895   5.125
  684WAT     H2 2295   7.975   3.018   5.232
  685WAT      O 2296   5.405   2.820   3.856
  685WAT     H1 2297   5.389   2.878   3.776
  685WAT     H2 2298   5.424   2.877   3.936
  686WAT      O 2299   8.247   6.859   7.649
  686WAT     H1 2300   8.165   6.916   7.640
  686WAT     H2 2301   8.297   6.885   7.731
  687WAT      O 2302   4.132   1.826   2.505
  687WAT     H1 2303   4.061   1.895   2.487
  687WAT     H2 2304   4.144   1.770   2.423
  688WAT      O 2305   5.655   0.249   5.781
  688WAT     H1 2306   5.678   0.187   5.856
  688WAT     H2 2307   5.680   0.207   5.694
  689WAT      O 2308   5.328   3.591   1.308
  689WAT     H1 2309   5.294   3.544   1.389
  689WAT     H2 2310   5.422   3.621   1.324
  690WAT      O 2311   5.310   9.450   2.372
  690WAT     H1 2312   5.346   9.451   2.465
  690WAT     H2 2313   5.299   9.356   2.341
  691WAT      O 2314   2.000   4.793   5.509
  691WAT     H1 2315   2.084   4.848   5.509
  691WAT     H2 2316   2.011   4.716   5.446
  692WAT      O 2317   2.821   0.249   2.330
  692WAT     H1 2318   2.819   0.321   2.399
  692WAT     H2 2319   2.887   0.179   2.356
  693WAT      O 2320   3.684   3.307   7.399
  693WAT     H1 2321   3.643   3.280   7.312
  693WAT     H2 2322   3.646   3.252   7.473
  694WAT      O 2323   8.228   1.966   1.609
  694WAT     H1 2324   8.130   1.961   1.587
  694WAT     H2 2325   8.276   1.892   1.563
  695WAT      O 2326   7.098   9.324   2.707
  695WAT     H1 2327   7.085   9.385   2.629
  695WAT     H2 2328   7.014   9.319   2.760
  696WAT      O 2329   6.379   9.127   0.737
  696WAT     H1 2330   6.387   9.045   0.795
  696WAT     H2 2331   6.471   9.162   0.718
  697WAT      O 2332   4.313   7.560   7.871
  697WAT     H1 2333   4.290   7.472   7.829
  697WAT     H2 2334   4.397   7.595   7.831
  698WAT      O 2335   4.378   6.341   8.575
  698WAT     H1 2336   4.451   6.391   8.622
  698WAT     H2 2337   4.322   6.293   8.642
  699WAT      O 2338   6.924   2.694   9.477
  699WAT     H1 2339   6.893   2.599   9.481
  699WAT     H2 2340   6.930   2.723   9.382
  700WAT      O 2341   8.069   7.652   9.888
  700WAT     H1 2342   8.108   7.720   9.951
  700WAT     H2 2343   8.123   7.568   9.891
  701WAT      O 2344   5.214   5.876   6.555
  701WAT     H1 2345   5.288   5.890   6.621
  701WAT     H2 2346   5.250   5.887   6.462
  702WAT      O 2347   7.856   1.183   9.260
  702WAT     H1 2348   7.953   1.170   9.280
  702WAT     H2 2349   7.838   1.158   9.165
  703WAT      O 2350   3.958   8.175   5.473
  703WAT     H1 2351   3.944   8.236   5.395
  703WAT     H2 2352   3.870   8.143   5.507
  704WAT      O 2353   4.267   3.809   3.912
  704WAT     H1 2354   4.305   3.798   4.003
  704WAT     H2 2355   4.327   3.765   3.845
  705WAT      O 2356   7.598   3.470   5.597
  705WAT     H1 2357   7.515   3.511   5.633
  705WAT     H2 2358   7.655   3.541   5.554
  706WAT      O 2359   4.095   0.024   1.690
  706WAT     H1 2360   4.105   0.030   1.590
  706WAT     H2 2361   4.017   0.079   1.719
  707WAT      O 2362   0.240   4.739   6.612
  707WAT     H1 2363   0.268   4.832   6.587
  707WAT     H2 2364   0.275   4.717   6.703
  708WAT      O 2365   8.480   9.713   2.633
  708WAT     H1 2366   8.498   9.810   2.614
  708WAT     H2 2367   8.489   9.660   2.549
  709WAT      O 2368   7.437   5.382   9.172
  709WAT     H1 2369   7.381   5.415   9.096
  709WAT     H2 2370   7.428   5.445   9.249
  710WAT      O 2371   9.477   8.180   2.305
  710WAT     H1 2372   9.548   8.124   2.347
  710WAT     H2 2373   9.514   8.271   2.287
  711WAT      O 2374   1.649   8.832   8.095
  711WAT     H1 2375   1.716   8.764   8.124
  711WAT     H2 2376   1.570   8.785   8.053
  712WAT      O 2377   1.678   1.897   5.237
  712WAT     H1 2378   1.748   1.940   5.295
  712WAT     H2 2379   1.649   1.961   5.166
  713WAT      O 2380   3.821   9.651   3.993
  713WAT     H1 2381   3.797   9.717   3.921
  713WAT     H2 2382   3.757   9.574   3.989
  714WAT      O 2383   7.550   6.108   9.584
  714WAT     H1 2384   7.578   6.014   9.565
  714WAT     H2 2385   7.508   6.113   9.675
  715WAT      O 2386   8.994   8.603   1.699
  715WAT     H1 2387   8.944   8.616   1.785
  715WAT     H2 2388   9.087   8.573   1.719
  716WAT      O 2389   6.424   2.630   1.428
  716WAT     H1 2390   6.378   2.716   1.405
  716WAT     H2 2391   6.355   2.558   1.440
  717WAT      O 2392   1.183   3.964   0.390
  717WAT     H1 2393   1.157   3.987   0.484
  717WAT     H2 2394   1.167   4.043   0.331
  718WAT      O 2395   5.284   7.747   1.070
  718WAT     H1 2396   5.233   7.831   1.092
  718WAT     H2 2397   5.220   7.676   1.040
  719WAT      O 2398   6.794   3.410   2.453
  719WAT     H1 2399   6.871   3.451   2.502
  719WAT     H2 2400   6.710   3.459   2.475
  720WAT      O 2401   4.945   9.276   8.699
  720WAT     H1 2402   5.022   9.212   8.693
  720WAT     H2 2403   4.866   9.229   8.739
  721WAT      O 2404   5.581   3.233   4.810
  721WAT     H1 2405   5.607   3.185   4.726
  721WAT     H2 2406   5.517   3.177   4.863
  722WAT      O 2407   4.586   8.267   0.492
  722WAT     H1 2408   4.587   8.169   0.511
  722WAT     H2 2409   4.508   8.310   0.538
  723WAT      O 2410   4.019   5.689   0.109
  723WAT     H1 2411   4.090   5.685   0.180
  723WAT     H2 2412   4.058   5.662   0.021
  724WAT      O 2413   6.469   3.189   8.669
  724WAT     H1 2414   6.437   3.283   8.679
  724WAT     H2 2415   6.533   3.184   8.592
  725WAT      O 2416   1.745   2.698   4.836
  725WAT     H1 2417   1.808   2.686   4.758
  725WAT     H2 2418   1.667   2.636   4.826
  726WAT      O 2419   0.745   4.414   6.015
  726WAT     H1 2420   0.738   4.320   6.048
  726WAT     H2 2421   0.803   4.416   5.933
  727WAT      O 2422   0.558   1.225   6.011
  727WAT     H1 2423   0.530   1.249   6.104
  727WAT     H2 2424   0.480   1.186   5.962
  728WAT      O 2425   4.984   3.637   3.805
  728WAT     H1 2426   4.938   3.708   3.751
  728WAT     H2 2427   5.075   3.669   3.830
  729WAT      O 2428   0.985   0.806   8.685
  729WAT     H1 2429   1.080   0.783   8.666
  729WAT     H2 2430   0.940   0.729   8.729
  730WAT      O 2431   7.157   0.669   8.329
  730WAT     H1 2432   7.205   0.587   8.360
  730WAT     H2 2433   7.058   0.651   8.327
  731WAT      O 2434   8.236   3.686   7.222
  731WAT     H1 2435   8.141   3.656   7.230
  731WAT     H2 2436   8.275   3.650   7.137
  732WAT      O 2437   5.651   4.259   7.437
  732WAT     H1 2438   5.672   4.357   7.446
  732WAT     H2 2439   5.663   4.214   7.525
  733WAT      O 2440   1.103   9.673   6.506
  733WAT     H1 2441   1.164   9.670   6.585
  733WAT     H2 2442   1.080   9.580   6.478
  734WAT      O 2443   9.732   6.587   6.971
  734WAT     H1 2444   9.676   6.508   6.995
  734WAT     H2 2445   9.739   6.594   6.872
  735WAT      O 2446   5.123   1.949   0.871
  735WAT     H1 2447   5.094   2.040   0.841
  735WAT     H2 2448   5.138   1.950   0.970
  736WAT      O 2449   6.308   3.782   7.724
  736WAT     H1 2450   6.343   3.737   7.642
  736WAT     H2 2451   6.217   3.747   7.746
  737WAT      O 2452   2.216   2.033   9.736
  737WAT     H1 2453   2.299   2.047   9.791
  737WAT     H2 2454   2.222   1.944   9.691
  738WAT      O 2455   7.940   5.968   6.934
  738WAT     H1 2456   7.925   5.984   7.032
  738WAT     H2 2457   7.860   5.998   6.883
  739WAT      O 2458   6.582   5.534   6.659
  739WAT     H1 2459   6.535   5.588   6.728
  739WAT     H2 2460   6.520   5.520   6.581
  740WAT      O 2461   1.501   0.306   6.979
  740WAT     H1 2462   1.534   0.379   6.919
  740WAT     H2 2463   1.573   0.239   6.993
  741WAT      O 2464   7.584   6.864   9.013
  741WAT     H1 2465   7.634   6.813   9.083
  741WAT     H2 2466   7.639   6.942   8.984
  742WAT      O 2467   4.755   3.646   2.675
  742WAT     H1 2468   4.751   3.648   2.575
  742WAT     H2 2469   4.775   3.738   2.709
  743WAT      O 2470   8.284   8.594   8.615
  743WAT     H1 2471   8.193   8.635   8.608
  743WAT     H2 2472   8.292   8.519   8.549
  744WAT      O 2473   1.989   2.665   3.607
  744WAT     H1 2474   1.907   2.709   3.644
  744WAT     H2 2475   1.986   2.567   3.627
  745WAT      O 2476   3.059   3.931   0.504
  745WAT     H1 2477   3.079   3.959   0.598
  745WAT     H2 2478   3.088   3.836   0.490
  746WAT      O 2479   3.580   3.782   0.736
  746WAT     H1 2480   3.519   3.703   0.747
  746WAT     H2 2481   3.652   3.759   0.671
  747WAT      O 2482   0.287   7.343   7.897
  747WAT     H1 2483   0.349   7.366   7.822
  747WAT     H2 2484   0.196   7.322   7.861
  748WAT      O 2485   8.339   9.269   8.150
  748WAT     H1 2486   8.384   9.333   8.088
  748WAT     H2 2487   8.369   9.176   8.131
  749WAT      O 2488   4.517   7.418   2.804
  749WAT     H1 2489   4.481   7.468   2.725
  749WAT     H2 2490   4.587   7.474   2.849
  750WAT      O 2491   9.236   2.563   9.626
  750WAT     H1 2492   9.331   2.574   9.656
  750WAT     H2 2493   9.178   2.629   9.674
  751WAT      O 2494   1.138   0.446   8.471
  751WAT     H1 2495   1.229   0.419   8.502
  751WAT     H2 2496   1.146   0.519   8.403
  752WAT      O 2497   8.224   9.472   4.688
  752WAT     H1 2498   8.287   9.549   4.695
  752WAT     H2 2499   8.259   9.406   4.622
  753WAT      O 2500   6.789   6.218   0.663
  753WAT     H1 2501   6.754   6.260   0.746
  753WAT     H2 2502   6.723   6.228   0.589
  754WAT      O 2503   1.922   6.894   2.791
  754WAT     H1 2504   1.999   6.934   2.841
  754WAT     H2 2505   1.845   6.881   2.854
  755WAT      O 2506   0.614   2.152   3.926
  755WAT     H1 2507   0.660   2.071   3.889
  755WAT     H2 2508   0.654   2.234   3.885
  756WAT      O 2509   1.298   6.405   8.120
  756WAT     H1 2510   1.223   6.342   8.099
  756WAT     H2 2511   1.372   6.354   8.165
  757WAT      O 2512   6.834   6.349   4.961
  757WAT     H1 2513   6.882   6.372   4.876
  757WAT     H2 2514   6.898   6.315   5.028
  758WAT      O 2515   3.899   8.878   4.092
  758WAT     H1 2516   3.897   8.887   3.993
  758WAT     H2 2517   3.844   8.799   4.119
  759WAT      O 2518   5.961   6.213   1.234
  759WAT     H1 2519   5.864   6.220   1.257
  759WAT     H2 2520   5.976   6.132   1.178
  760WAT      O 2521   9.210   7.410   7.746
  760WAT     H1 2522   9.269   7.391   7.824
  760WAT     H2 2523   9.262   7.396   7.661
  761WAT      O 2524   3.916   8.985   6.048
  761WAT     H1 2525   3.877   8.948   6.131
  761WAT     H2 2526   3.937   9.082   6.061
  762WAT      O 2527   5.079   3.574   2.450
  762WAT     H1 2528   5.018   3.533   2.518
  762WAT     H2 2529   5.025   3.626   2.384
  763WAT      O 2530   9.513   3.908   3.080
  763WAT     H1 2531   9.535   3.813   3.100
  763WAT     H2 2532   9.592   3.966   3.100
  764WAT      O 2533   5.285   9.325   9.104
  764WAT     H1 2534   5.282   9.372   9.016
  764WAT     H2 2535   5.241   9.382   9.174
  765WAT      O 2536   2.637   5.165   5.864
  765WAT     H1 2537   2.538   5.176   5.857
  765WAT     H2 2538   2.660   5.068   5.858
  766WAT      O 2539   6.355   8.444   4.891
  766WAT     H1 2540   6.291   8.367   4.888
  766WAT     H2 2541   6.393   8.459   4.800
  767WAT      O 2542   0.511   6.799   5.656
  767WAT     H1 2543   0.542   6.893   5.651
  767WAT     H2 2544   0.583   6.741   5.695
  768WAT      O 2545   6.274   6.443   9.114
  768WAT     H1 2546   6.215   6.375   9.071
  768WAT     H2 2547   6.316   6.404   9.196
  769WAT      O 2548   8.850   8.538   5.161
  769WAT     H1 2549   8.785   8.468   5.192
  769WAT     H2 2550   8.849   8.543   5.061
  770WAT      O 2551   5.391   1.094   4.447
  770WAT     H1 2552   5.431   1.062   4.532
  770WAT     H2 2553   5.312   1.152   4.466
  771WAT      O 2554   0.667   0.505   0.731
  771WAT     H1 2555   0.710   0.498   0.641
  771WAT     H2 2556   0.571   0.478   0.724
  772WAT      O 2557   4.778   7.489   6.841
  772WAT     H1 2558   4.804   7.585   6.847
  772WAT     H2 2559   4.723   7.464   6.921
  773WAT      O 2560   8.057   5.353   7.767
  773WAT     H1 2561   8.009   5.433   7.802
  773WAT     H2 2562   8.059   5.356   7.667
  774WAT      O 2563   5.322   5.339   0.351
  774WAT     H1 2564   5.248   5.363   0.288
  774WAT     H2 2565   5.367   5.423   0.381
  775WAT      O 2566   9.840   7.318   8.605
  775WAT     H1 2567   9.809   7.384   8.536
  775WAT     H2 2568   9.771   7.310   8.677
  776WAT      O 2569   0.391   1.775   1.098
  776WAT     H1 2570   0.472   1.716   1.095
  776WAT     H2 2571   0.391   1.829   1.182
  777WAT      O 2572   2.303   5.075   4.466
  777WAT     H1 2573   2.366   5.034   4.532
  777WAT     H2 2574   2.266   5.160   4.503
  778WAT      O 2575   1.655   7.814   1.440
  778WAT     H1 2576   1.603   7.777   1.363
  778WAT     H2 2577   1.638   7.913   1.448
  779WAT      O 2578   9.007   3.258   6.947
  779WAT     H1 2579   8.962   3.346   6.933
  779WAT     H2 2580   9.096   3.257   6.900
  780WAT      O 2581   8.622   4.696   7.185
  780WAT     H1 2582   8.685   4.619   7.181
  780WAT     H2 2583   8.559   4.685   7.262
  781WAT      O 2584   3.813   7.584   9.712
  781WAT     H1 2585   3.868   7.568   9.794
  781WAT     H2 2586   3.868   7.563   9.631
  782WAT      O 2587   1.177   1.564   0.173
  782WAT     H1 2588   1.231   1.547   0.090
  782WAT     H2 2589   1.232   1.546   0.253
  783WAT      O 2590   1.725   7.002   7.262
  783WAT     H1 2591   1.765   6.943   7.192
  783WAT     H2 2592   1.626   6.986   7.266
  784WAT      O 2593   0.640   1.980   7.212
  784WAT     H1 2594   0.605   1.898   7.257
  784WAT     H2 2595   0.645   2.055   7.277
  785WAT      O 2596   2.248   6.599   0.075
  785WAT     H1 2597   2.285   6.685   0.110
  785WAT     H2 2598   2.159   6.582   0.118
  786WAT      O 2599   2.695   8.941   8.682
  786WAT     H1 2600   2.679   8.996   8.600
  786WAT     H2 2601   2.756   8.865   8.660
  787WAT      O 2602   4.083   5.739   2.239
  787WAT     H1 2603   4.182   5.735   2.231
  787WAT     H2 2604   4.057   5.751   2.334
  788WAT      O 2605   1.965   8.056   2.407
  788WAT     H1 2606   1.962   8.001   2.324
  788WAT     H2 2607   2.022   8.010   2.476
  789WAT      O 2608   0.721   9.800   8.517
  789WAT     H1 2609   0.670   9.741   8.454
  789WAT     H2 2610   0.739   9.888   8.474
  790WAT      O 2611   1.335   9.703   0.676
  790WAT     H1 2612   1.314   9.656   0.590
  790WAT     H2 2613   1.371   9.637   0.742
  791WAT      O 2614   9.754   5.867   3.822
  791WAT     H1 2615   9.693   5.843   3.898
  791WAT     H2 2616   9.748   5.965   3.804
  792WAT      O 2617   9.002   5.365   4.719
  792WAT     H1 2618   9.050   5.417   4.648
  792WAT     H2 2619   8.973   5.277   4.682
  793WAT      O 2620   3.191   7.580   8.468
  793WAT     H1 2621   3.224   7.660   8.519
  793WAT     H2 2622   3.116   7.538   8.519
  794WAT      O 2623   1.152   1.909   7.234
  794WAT     H1 2624   1.235   1.958   7.210
  794WAT     H2 2625   1.077   1.939   7.174
  795WAT      O 2626   3.493   3.618   1.073
  795WAT     H1 2627   3.415   3.626   1.135
  795WAT     H2 2628   3.565   3.563   1.117
  796WAT      O 2629   6.922   0.961   8.567
  796WAT     H1 2630   6.937   1.059   8.555
  796WAT     H2 2631   6.900   0.920   8.478
  797WAT      O 2632   7.958   0.452   4.525
  797WAT     H1 2633   8.046   0.406   4.510
  797WAT     H2 2634   7.893   0.387   4.565
  798WAT      O 2635   7.386   6.542   5.656
  798WAT     H1 2636   7.406   6.612   5.725
  798WAT     H2 2637   7.298   6.499   5.677
  799WAT      O 2638   8.783   3.830   9.056
  799WAT     H1 2639   8.693   3.855   9.023
  799WAT     H2 2640   8.777   3.745   9.109
  800WAT      O 2641   7.921   1.328   7.144
  800WAT     H1 2642   7.901   1.257   7.212
  800WAT     H2 2643   7.840   1.346   7.089
  801WAT      O 2644   8.170   0.589   1.727
  801WAT     H1 2645   8.242   0.529   1.692
  801WAT     H2 2646   8.185   0.682   1.693
  802WAT      O 2647   5.075   3.011   0.943
  802WAT     H1 2648   5.012   2.933   0.945
  802WAT     H2 2649   5.122   3.018   1.031
  803WAT      O 2650   9.041   8.989   0.561
  803WAT     H1 2651   9.026   9.086   0.540
  803WAT     H2 2652   9.119   8.980   0.623
  804WAT      O 2653   2.701   7.752   3.549
  804WAT     H1 2654   2.783   7.808   3.542
  804WAT     H2 2655   2.648   7.760   3.464
  805WAT      O 2656   6.076   3.736   0.858
  805WAT     H1 2657   6.111   3.830   0.865
  805WAT     H2 2658   5.977   3.736   0.877
  806WAT      O 2659   4.730   9.130   6.626
  806WAT     H1 2660   4.767   9.090   6.542
  806WAT     H2 2661   4.801   9.185   6.670
  807WAT      O 2662   0.473   6.155   7.962
  807WAT     H1 2663   0.423   6.241   7.977
  807WAT     H2 2664   0.465   6.129   7.866
  808WAT      O 2665   8.651   8.904   2.660
  808WAT     H1 2666   8.605   8.993   2.666
  808WAT     H2 2667   8.617   8.854   2.581
  809WAT      O 2668   1.433   1.407   0.155
  809WAT     H1 2669   1.467   1.500   0.140
  809WAT     H2 2670   1.510   1.343   0.156
  810WAT      O 2671   3.486   5.853   5.270
  810WAT     H1 2672   3.513   5.932   5.215
  810WAT     H2 2673   3.565   5.794   5.286
  811WAT      O 2674   7.787   6.383   7.231
  811WAT     H1 2675   7.755   6.347   7.143
  811WAT     H2 2676   7.724   6.454   7.263
  812WAT      O 2677   9.025   3.604   1.650
  812WAT     H1 2678   9.004   3.539   1.722
  812WAT     H2 2679   9.009   3.562   1.561
  813WAT      O 2680   8.073   4.357   7.587
  813WAT     H1 2681   8.040   4.301   7.663
  813WAT     H2 2682   8.050   4.453   7.604
  814WAT      O 2683   3.696   2.221   3.069
  814WAT     H1 2684   3.701   2.150   2.998
  814WAT     H2 2685   3.788   2.245   3.098
  815WAT      O 2686   1.782   3.762   8.464
  815WAT     H1 2687   1.740   3.804   8.544
  815WAT     H2 2688   1.778   3.663   8.472
  816WAT      O 2689   6.135   7.044   2.007
  816WAT     H1 2690   6.137   6.944   2.014
  816WAT     H2 2691   6.188   7.072   1.926
  817WAT      O 2692   9.157   3.283   2.330
  817WAT     H1 2693   9.121   3.374   2.309
  817WAT     H2 2694   9.230   3.291   2.397
  818WAT      O 2695   2.485   1.802   1.360
  818WAT     H1 2696   2.485   1.811   1.460
  818WAT     H2 2697   2.434   1.879   1.321
  819WAT      O 2698   0.033   1.605   4.914
  819WAT     H1 2699   0.100   1.595   4.988
  819WAT     H2 2700   0.043   1.695   4.872
  820WAT      O 2701   0.645   0.533   4.916
  820WAT     H1 2702   0.726   0.539   4.973
  820WAT     H2 2703   0.620   0.624   4.884
  821WAT      O 2704   8.194   2.931   1.128
  821WAT     H1 2705   8.126   2.970   1.065
  821WAT     H2 2706   8.189   2.978   1.216
  822WAT      O 2707   1.928   5.246   4.552
  822WAT     H1 2708   1.945   5.148   4.544
  822WAT     H2 2709   2.002   5.289   4.604
  823WAT      O 2710   8.649   1.857   6.479
  823WAT     H1 2711   8.722   1.874   6.413
  823WAT     H2 2712   8.633   1.758   6.485
  824WAT      O 2713   4.585   8.243   1.238
  824WAT     H1 2714   4.625   8.296   1.163
  824WAT     H2 2715   4.647   8.245   1.316
  825WAT      O 2716   8.065   2.473   6.571
  825WAT     H1 2717   8.154   2.507   6.540
  825WAT     H2 2718   8.012   2.441   6.492
  826WAT      O 2719   5.584   5.649   2.600
  826WAT     H1 2720   5.534   5.731   2.574
  826WAT     H2 2721   5.663   5.638   2.539
  827WAT      O 2722   0.122   9.159   8.409
  827WAT     H1 2723   0.101   9.250   8.376
  827WAT     H2 2724   0.050   9.129   8.473
  828WAT      O 2725   5.331   4.865   6.603
  828WAT     H1 2726   5.346   4.874   6.505
  828WAT     H2 2727   5.248   4.813   6.620
  829WAT      O 2728   5.937   2.334   4.066
  829WAT     H1 2729   5.872   2.259   4.062
  829WAT     H2 2730   6.026   2.300   4.093
  830WAT      O 2731   5.043   0.292   6.395
  830WAT     H1 2732   4.999   0.364   6.448
  830WAT     H2 2733   5.056   0.211   6.452
  831WAT      O 2734   5.397   3.207   9.790
  831WAT     H1 2735   5.460   3.130   9.776
  831WAT     H2 2736   5.333   3.211   9.714
  832WAT      O 2737   9.504   9.017   2.076
  832WAT     H1 2738   9.595   8.979   2.057
  832WAT     H2 2739   9.466   9.057   1.992
  833WAT      O 2740   8.421   8.295   7.937
  833WAT     H1 2741   8.435   8.371   7.874
  833WAT     H2 2742   8.508   8.246   7.950
  834WAT      O 2743   3.153   4.769   0.717
  834WAT     H1 2744   3.195   4.720   0.641
  834WAT     H2 2745   3.121   4.704   0.786
  835WAT      O 2746   0.216   3.896   8.242
  835WAT     H1 2747   0.156   3.818   8.260
  835WAT     H2 2748   0.209   3.920   8.145
  836WAT      O 2749   2.815   8.859   7.809
  836WAT     H1 2750   2.803   8.759   7.812
  836WAT     H2 2751   2.729   8.902   7.781
  837WAT      O 2752   7.398   0.525   7.083
  837WAT     H1 2753   7.487   0.514   7.126
  837WAT     H2 2754   7.332   0.559   7.149
  838WAT      O 2755   7.933   2.901   6.778
  838WAT     H1 2756   7.967   2.994   6.765
  838WAT     H2 2757   7.914   2.885   6.875
  839WAT      O 2758   5.506   8.140   0.925
  839WAT     H1 2759   5.518   8.043   0.944
  839WAT     H2 2760   5.504   8.191   1.012
  840WAT      O 2761   9.405   1.853   2.248
  840WAT     H1 2762   9.436   1.762   2.272
  840WAT     H2 2763   9.311   1.849   2.215
  841WAT      O 2764   3.402   9.548   3.596
  841WAT     H1 2765   3.407   9.648   3.601
  841WAT     H2 2766   3.456   9.508   3.670
  842WAT      O 2767   4.612   1.866   5.397
  842WAT     H1 2768   4.655   1.956   5.404
  842WAT     H2 2769   4.516   1.872   5.424
  843WAT      O 2770   3.446   4.418   8.104
  843WAT     H1 2771   3.523   4.453   8.051
  843WAT     H2 2772   3.476   4.339   8.158
  844WAT      O 2773   2.922   6.534   6.863
  844WAT     H1 2774   3.007   6.483   6.854
  844WAT     H2 2775   2.930   6.599   6.938
  845WAT      O 2776   4.940   7.941   4.217
  845WAT     H1 2777   4.927   7.972   4.311
  845WAT     H2 2778   4.918   8.017   4.155
  846WAT      O 2779   3.841   2.620   7.325
  846WAT     H1 2780   3.775   2.643   7.396
  846WAT     H2 2781   3.814   2.534   7.280
  847WAT      O 2782   1.927   3.077   0.547
  847WAT     H1 2783   2.002   3.143   0.539
  847WAT     H2 2784   1.840   3.125   0.541
  848WAT      O 2785   3.834   5.214   0.819
  848WAT     H1 2786   3.738   5.197   0.797
  848WAT     H2 2787   3.869   5.288   0.761
  849WAT      O 2788   2.704   4.150   2.844
  849WAT     H1 2789   2.782   4.190   2.797
  849WAT     H2 2790   2.730   4.122   2.937
  850WAT      O 2791   7.299   5.526   7.231
  850WAT     H1 2792   7.345   5.502   7.145
  850WAT     H2 2793   7.262   5.619   7.224
  851WAT      O 2794   4.302   7.186   9.865
  851WAT     H1 2795   4.347   7.203   9.777
  851WAT     H2 2796   4.203   7.192   9.853
  852WAT      O 2797   5.194   8.229   1.256
  852WAT     H1 2798   5.165   8.206   1.349
  852WAT     H2 2799   5.173   8.325   1.238
  853WAT      O 2800   7.137   8.050   9.380
  853WAT     H1 2801   7.124   8.146   9.405
  853WAT     H2 2802   7.194   8.045   9.298
  854WAT      O 2803   5.594   1.565   1.686
  854WAT     H1 2804   5.526   1.492   1.693
  854WAT     H2 2805   5.666   1.550   1.753
  855WAT      O 2806   9.024   5.017   7.763
  855WAT     H1 2807   9.007   4.918   7.768
  855WAT     H2 2808   8.954   5.060   7.707
  856WAT      O 2809   6.355   4.903   5.063
  856WAT     H1 2810   6.446   4.889   5.025
  856WAT     H2 2811   6.289   4.914   4.988
  857WAT      O 2812   1.743   8.599   9.102
  857WAT     H1 2813   1.694   8.669   9.153
  857WAT     H2 2814   1.762   8.632   9.009
  858WAT      O 2815   7.573   4.535   3.909
  858WAT     H1 2816   7.478   4.550   3.935
  858WAT     H2 2817   7.619   4.483   3.981
  859WAT      O 2818   4.916   2.802   0.892
  859WAT     H1 2819   4.824   2.802   0.854
  859WAT     H2 2820   4.916   2.754   0.980
  860WAT      O 2821   0.071   7.804   8.705
  860WAT     H1 2822  -0.023   7.781   8.729
  860WAT     H2 2823   0.071   7.879   8.639
  861WAT      O 2824   3.560   3.113   9.659
  861WAT     H1 2825   3.488   3.148   9.719
  861WAT     H2 2826   3.526   3.036   9.605
  862WAT      O 2827   8.870   3.540   1.255
  862WAT     H1 2828   8.858   3.582   1.165
  862WAT     H2 2829   8.952   3.578   1.298
  863WAT      O 2830   6.609   5.753   3.106
  863WAT     H1 2831   6.544   5.704   3.048
  863WAT     H2 2832   6.665   5.814   3.050
  864WAT      O 2833   0.719   3.993   7.761
  864WAT     H1 2834   0.769   4.051   7.826
  864WAT     H2 2835   0.690   4.048   7.683
  865WAT      O 2836   5.043   4.663   7.252
  865WAT     H1 2837   5.121   4.718   7.225
  865WAT     H2 2838   4.965   4.685   7.194
  866WAT      O 2839   4.059   7.310   6.797
  866WAT     H1 2840   3.976   7.258   6.814
  866WAT     H2 2841   4.132   7.248   6.769
  867WAT      O 2842   3.756   4.991   4.935
  867WAT     H1 2843   3.834   5.017   4.991
  867WAT     H2 2844   3.715   5.073   4.895
  868WAT      O 2845   6.960   6.574   5.661
  868WAT     H1 2846   6.909   6.532   5.736
  868WAT     H2 2847   6.903   6.573   5.578
  869WAT      O 2848   8.989   0.271   8.889
  869WAT     H1 2849   9.062   0.333   8.860
  869WAT     H2 2850   9.024   0.178   8.895
  870WAT      O 2851   4.524   3.565   4.944
  870WAT     H1 2852   4.610   3.527   4.911
  870WAT     H2 2853   4.507   3.533   5.037
  871WAT      O 2854   2.251   2.035   4.063
  871WAT     H1 2855   2.298   1.979   4.132
  871WAT     H2 2856   2.317   2.100   4.023
  872WAT      O 2857   7.361   4.814   7.297
  872WAT     H1 2858   7.370   4.733   7.355
  872WAT     H2 2859   7.452   4.843   7.267
  873WAT      O 2860   0.709   2.918   6.410
  873WAT     H1 2861   0.747   2.998   6.364
  873WAT     H2 2862   0.721   2.837   6.353
  874WAT      O 2863   3.416   7.825   4.548
  874WAT     H1 2864   3.372   7.744   4.586
  874WAT     H2 2865   3.457   7.878   4.623
  875WAT      O 2866   5.210   8.819   2.161
  875WAT     H1 2867   5.306   8.801   2.180
  875WAT     H2 2868   5.160   8.825   2.247
  876WAT      O 2869   1.840   0.793   1.028
  876WAT     H1 2870   1.901   0.724   1.065
  876WAT     H2 2871   1.779   0.826   1.100
  877WAT      O 2872   4.797   0.267   7.697
  877WAT     H1 2873   4.856   0.348   7.703
  877WAT     H2 2874   4.854   0.185   7.691
  878WAT      O 2875   8.567   8.400   6.323
  878WAT     H1 2876   8.654   8.430   6.285
  878WAT     H2 2877   8.547   8.307   6.290
  879WAT      O 2878   2.501   6.200   8.944
  879WAT     H1 2879   2.465   6.201   9.038
  879WAT     H2 2880   2.580   6.139   8.939
  880WAT      O 2881   6.619   1.606   2.992
  880WAT     H1 2882   6.535   1.625   2.941
  880WAT     H2 2883   6.599   1.606   3.090
  881WAT      O 2884   6.393   9.723   1.820
  881WAT     H1 2885   6.314   9.776   1.849
  881WAT     H2 2886   6.365   9.652   1.756
  882WAT      O 2887   1.866   4.190   5.799
  882WAT     H1 2888   1.781   4.140   5.816
  882WAT     H2 2889   1.943   4.138   5.837
  883WAT      O 2890   6.826   4.049   3.296
  883WAT     H1 2891   6.918   4.078   3.269
  883WAT     H2 2892   6.833   3.988   3.375
  884WAT      O 2893   0.822   7.263   0.162
  884WAT     H1 2894   0.728   7.265   0.127
  884WAT     H2 2895   0.827   7.315   0.247
  885WAT      O 2896   2.898   0.233   5.535
  885WAT     H1 2897   2.850   0.288   5.467
  885WAT     H2 2898   2.859   0.249   5.625
  886WAT      O 2899   5.177   2.574   8.393
  886WAT     H1 2900   5.103   2.571   8.459
  886WAT     H2 2901   5.141   2.554   8.302
  887WAT      O 2902   8.032   2.435   4.420
  887WAT     H1 2903   7.935   2.454   4.404
  887WAT     H2 2904   8.042   2.339   4.447
  888WAT      O 2905   4.402   2.391   1.106
  888WAT     H1 2906   4.350   2.460   1.056
  888WAT     H2 2907   4.488   2.373   1.059
  889WAT      O 2908   7.663   7.994   1.327
  889WAT     H1 2909   7.720   7.914   1.309
  889WAT     H2 2910   7.665   8.055   1.248
  890WAT      O 2911   0.897   0.408   3.061
  890WAT     H1 2912   0.934   0.433   3.151
  890WAT     H2 2913   0.896   0.488   3.002
  891WAT      O 2914   4.645   3.165   9.624
  891WAT     H1 2915   4.702   3.225   9.680
  891WAT     H2 2916   4.569   3.131   9.680
  892WAT      O 2917   7.479   7.215   1.652
  892WAT     H1 2918   7.482   7.208   1.751
  892WAT     H2 2919   7.537   7.144   1.612
  893WAT      O 2920   3.604   1.061   2.325
  893WAT     H1 2921   3.613   0.965   2.352
  893WAT     H2 2922   3.597   1.067   2.226
  894WAT      O 2923   9.373   6.459   9.746
  894WAT     H1 2924   9.424   6.393   9.800
  894WAT     H2 2925   9.291   6.487   9.795
  895WAT      O 2926   3.146   3.559   0.813
  895WAT     H1 2927   3.241   3.589   0.804
  895WAT     H2 2928   3.140   3.486   0.880
  896WAT      O 2929   3.530   3.469   9.834
  896WAT     H1 2930   3.528   3.422   9.922
  896WAT     H2 2931   3.448   3.446   9.782
  897WAT      O 2932   3.284   0.187   9.264
  897WAT     H1 2933   3.365   0.244   9.280
  897WAT     H2 2934   3.292   0.142   9.175
  898WAT      O 2935   9.700   6.929   4.989
  898WAT     H1 2936   9.756   6.930   4.907
  898WAT     H2 2937   9.724   7.007   5.047
  899WAT      O 2938   1.531   0.116   2.481
  899WAT     H1 2939   1.462   0.131   2.410
  899WAT     H2 2940   1.593   0.043   2.452
  900WAT      O 2941   4.173   4.802   9.526
  900WAT     H1 2942   4.259   4.754   9.541
  900WAT     H2 2943   4.124   4.811   9.613
  901WAT      O 2944   1.627   0.694   2.672
  901WAT     H1 2945   1.600   0.644   2.589
  901WAT     H2 2946   1.546   0.708   2.730
  902WAT      O 2947   1.813   0.814   1.996
  902WAT     H1 2948   1.869   0.748   1.946
  902WAT     H2 2949   1.716   0.798   1.976
  903WAT      O 2950   2.751   7.904   8.367
  903WAT     H1 2951   2.686   7.831   8.349
  903WAT     H2 2952   2.786   7.896   8.460
  904WAT      O 2953   3.167   9.666   0.900
  904WAT     H1 2954   3.096   9.614   0.948
  904WAT     H2 2955   3.152   9.764   0.913
  905WAT      O 2956   7.383   9.146   7.996
  905WAT     H1 2957   7.450   9.207   7.953
  905WAT     H2 2958   7.358   9.183   8.085
  906WAT      O 2959   9.020   5.525   6.496
  906WAT     H1 2960   9.021   5.614   6.451
  906WAT     H2 2961   8.928   5.508   6.533
  907WAT      O 2962   3.789   8.577   8.143
  907WAT     H1 2963   3.833   8.573   8.233
  907WAT     H2 2964   3.703   8.527   8.146
  908WAT      O 2965   3.265   2.402   5.176
  908WAT     H1 2966   3.344   2.459   5.151
  908WAT     H2 2967   3.229   2.358   5.094
  909WAT      O 2968   3.750   4.514   2.654
  909WAT     H1 2969   3.847   4.506   2.632
  909WAT     H2 2970   3.734   4.599   2.704
  910WAT      O 2971   9.355   1.877   7.338
  910WAT     H1 2972   9.301   1.793   7.327
  910WAT     H2 2973   9.310   1.952   7.290
  911WAT      O 2974   5.342   3.585   2.511
  911WAT     H1 2975   5.244   3.586   2.490
  911WAT     H2 2976   5.393   3.607   2.428
  912WAT      O 2977   7.762   8.782   3.273
  912WAT     H1 2978   7.706   8.785   3.190
  912WAT     H2 2979   7.759   8.871   3.318
  913WAT      O 2980   3.042   2.320   7.351
  913WAT     H1 2981   3.012   2.305   7.445
  913WAT     H2 2982   2.962   2.328   7.291
  914WAT      O 2983   0.121   9.242   7.699
  914WAT     H1 2984   0.168   9.168   7.748
  914WAT     H2 2985   0.163   9.256   7.610
  915WAT      O 2986   8.061   2.559   5.343
  915WAT     H1 2987   8.051   2.478   5.399
  915WAT     H2 2988   8.068   2.640   5.402
  916WAT      O 2989   5.234   4.872   8.787
  916WAT     H1 2990   5.255   4.774   8.782
  916WAT     H2 2991   5.233   4.901   8.883
  917WAT      O 2992   1.356   3.120   5.143
  917WAT     H1 2993   1.380   3.206   5.097
  917WAT     H2 2994   1.435   3.089   5.197
  918WAT      O 2995   6.683   9.259   1.328
  918WAT     H1 2996   6.758   9.199   1.355
  918WAT     H2 2997   6.709   9.354   1.343
  919WAT      O 2998   2.530   1.856   3.395
  919WAT     H1 2999   2.615   1.825   3.437
  919WAT     H2 3000   2.538   1.851   3.296
  920WAT      O 3001   0.202   5.372   4.379
  920WAT     H1 3002   0.182   5.354   4.476
  920WAT     H2 3003   0.135   5.324   4.323
  921WAT      O 3004   2.428   5.387   3.048
  921WAT     H1 3005   2.357   5.337   3.097
  921WAT     H2 3006   2.424   5.483   3.073
  922WAT      O 3007   2.110   0.801   5.578
  922WAT     H1 3008   2.168   0.735   5.530
  922WAT     H2 3009   2.078   0.870   5.514
  923WAT      O 3010   5.567   9.149   8.591
  923WAT     H1 3011   5.617   9.142   8.677
  923WAT     H2 3012   5.573   9.063   8.541
  924WAT      O 3013   9.349   8.273   5.252
  924WAT     H1 3014   9.292   8.269   5.170
  924WAT     H2 3015   9.291   8.275   5.333
  925WAT      O 3016   3.065   6.426   4.767
  925WAT     H1 3017   2.999   6.409   4.694
  925WAT     H2 3018   3.038   6.509   4.817
  926WAT      O 3019   2.885   8.528   9.385
  926WAT     H1 3020   2.865   8.478   9.469
  926WAT     H2 3021   2.982   8.517   9.363
  927WAT      O 3022   8.739   6.733   4.031
  927WAT     H1 3023   8.806   6.796   3.991
  927WAT     H2 3024   8.742   6.647   3.982
  928WAT      O 3025   5.349   0.332   9.584
  928WAT     H1 3026   5.344   0.336   9.485
  928WAT     H2 3027   5.445   0.322   9.612
  929WAT      O 3028   5.746   1.652   4.078
  929WAT     H1 3029   5.719   1.700   4.162
  929WAT     H2 3030   5.710   1.559   4.080
  930WAT      O 3031   3.090   8.811   4.401
  930WAT     H1 3032   3.065   8.749   4.327
  930WAT     H2 3033   3.097   8.904   4.366
  931WAT      O 3034   2.881   4.330   7.973
  931WAT     H1 3035   2.795   4.284   7.950
  931WAT     H2 3036   2.886   4.343   8.072
  932WAT      O 3037   0.473   8.270   2.908
  932WAT     H1 3038   0.554   8.224   2.870
  932WAT     H2 3039   0.457   8.355   2.858
  933WAT      O 3040   3.299   6.638   9.675
  933WAT     H1 3041   3.275   6.724   9.719
  933WAT     H2 3042   3.353   6.656   9.592
  934WAT      O 3043   1.566   0.573   4.742
  934WAT     H1 3044   1.636   0.519   4.696
  934WAT     H2 3045   1.569   0.555   4.840
  935WAT      O 3046   3.346   3.534   9.313
  935WAT     H1 3047   3.273   3.526   9.246
  935WAT     H2 3048   3.339   3.621   9.361
  936WAT      O 3049   1.231   6.241   4.275
  936WAT     H1 3050   1.146   6.203   4.238
  936WAT     H2 3051   1.214   6.275   4.368
  937WAT      O 3052   8.400   3.267   0.292
  937WAT     H1 3053   8.337   3.326   0.342
  937WAT     H2 3054   8.444   3.320   0.219
  938WAT      O 3055   4.469   0.742   5.679
  938WAT     H1 3056   4.394   0.807   5.665
  938WAT     H2 3057   4.495   0.702   5.591
  939WAT      O 3058   7.960   4.966   6.103
  939WAT     H1 3059   7.891   4.926   6.043
  939WAT     H2 3060   7.916   5.006   6.183
  940WAT      O 3061   3.141   0.131   7.565
  940WAT     H1 3062   3.105   0.040   7.586
  940WAT     H2 3063   3.135   0.148   7.466
  941WAT      O 3064   7.637   4.665   7.076
  941WAT     H1 3065   7.680   4.665   6.986
  941WAT     H2 3066   7.593   4.577   7.093
  942WAT      O 3067   9.393   0.444   1.823
  942WAT     H1 3068   9.378   0.541   1.806
  942WAT     H2 3069   9.325   0.390   1.773
  943WAT      O 3070   6.755   3.695   9.140
  943WAT     H1 3071   6.688   3.636   9.095
  943WAT     H2 3072   6.844   3.649   9.142
  944WAT      O 3073   4.010   6.814   9.126
  944WAT     H1 3074   4.011   6.725   9.081
  944WAT     H2 3075   4.100   6.857   9.116
  945WAT      O 3076   5.586   9.627   8.685
  945WAT     H1 3077   5.553   9.627   8.780
  945WAT     H2 3078   5.510   9.651   8.624
  946WAT      O 3079   9.169   9.100   0.055
  946WAT     H1 3080   9.093   9.086   0.118
  946WAT     H2 3081   9.246   9.041   0.081
  947WAT      O 3082   1.024   8.591   7.633
  947WAT     H1 3083   0.970   8.563   7.713
  947WAT     H2 3084   1.024   8.517   7.566
  948WAT      O 3085   2.556   6.146   9.393
  948WAT     H1 3086   2.501   6.164   9.312
  948WAT     H2 3087   2.518   6.195   9.472
  949WAT      O 3088   1.426   9.737   1.666
  949WAT     H1 3089   1.465   9.665   1.724
  949WAT     H2 3090   1.402   9.699   1.577
  950WAT      O 3091   1.831   2.456   9.696
  950WAT     H1 3092   1.769   2.377   9.689
  950WAT     H2 3093   1.819   2.515   9.616
  951WAT      O 3094   0.432   0.912   8.940
  951WAT     H1 3095   0.370   0.907   9.019
  951WAT     H2 3096   0.396   0.855   8.866
  952WAT      O 3097   8.042   1.660   4.489
  952WAT     H1 3098   8.138   1.634   4.492
  952WAT     H2 3099   8.034   1.759   4.506
  953WAT      O 3100   0.891   9.569   5.588
  953WAT     H1 3101   0.989   9.577   5.608
  953WAT     H2 3102   0.855   9.487   5.632
  954WAT      O 3103   5.942   8.460   1.987
  954WAT     H1 3104   5.959   8.541   2.042
  954WAT     H2 3105   5.986   8.470   1.898
  955WAT      O 3106   7.019   0.030   4.409
  955WAT     H1 3107   7.057  -0.024   4.334
  955WAT     H2 3108   7.093   0.083   4.451
  956WAT      O 3109   4.310   7.416   6.499
  956WAT     H1 3110   4.248   7.349   6.540
  956WAT     H2 3111   4.349   7.474   6.570
  957WAT      O 3112   1.220   5.773   7.980
  957WAT     H1 3113   1.251   5.678   7.975
  957WAT     H2 3114   1.163   5.794   7.900
  958WAT      O 3115   3.575   6.589   1.232
  958WAT     H1 3116   3.532   6.674   1.265
  958WAT     H2 3117   3.589   6.595   1.134
  959WAT      O 3118   6.247   7.571   3.738
  959WAT     H1 3119   6.190   7.613   3.667
  959WAT     H2 3120   6.216   7.477   3.755
  960WAT      O 3121   1.523   8.273   7.665
  960WAT     H1 3122   1.439   8.237   7.623
  960WAT     H2 3123   1.516   8.265   7.764
  961WAT      O 3124   5.381   5.573   4.354
  961WAT     H1 3125   5.446   5.647   4.338
  961WAT     H2 3126   5.289   5.611   4.365
  962WAT      O 3127   7.457   5.033   3.899
  962WAT     H1 3128   7.465   4.942   3.940
  962WAT     H2 3129   7.392   5.088   3.952
  963WAT      O 3130   0.952   4.935   8.684
  963WAT     H1 3131   0.923   4.935   8.780
  963WAT     H2 3132   1.048   4.907   8.679
  964WAT      O 3133   0.924   0.193   9.682
  964WAT     H1 3134   1.020   0.174   9.701
  964WAT     H2 3135   0.904   0.172   9.586
  965WAT      O 3136   6.788   4.643   3.929
  965WAT     H1 3137   6.816   4.641   3.833
  965WAT     H2 3138   6.767   4.736   3.956
  966WAT      O 3139   8.212   6.055   4.025
  966WAT     H1 3140   8.117   6.082   4.041
  966WAT     H2 3141   8.254   6.118   3.958
  967WAT      O 3142   7.636   8.368   7.082
  967WAT     H1 3143   7.569   8.338   7.014
  967WAT     H2 3144   7.683   8.450   7.049
  968WAT      O 3145   5.074   5.087   3.388
  968WAT     H1 3146   5.040   5.178   3.413
  968WAT     H2 3147   4.999   5.032   3.351
  969WAT      O 3148   6.490   3.969   0.207
  969WAT     H1 3149   6.437   4.016   0.278
  969WAT     H2 3150   6.476   4.015   0.119
  970WAT      O 3151   7.925   6.120   5.129
  970WAT     H1 3152   7.901   6.183   5.055
  970WAT     H2 3153   8.020   6.092   5.119
  971WAT      O 3154   0.146   7.172   7.080
  971WAT     H1 3155   0.233   7.203   7.120
  971WAT     H2 3156   0.077   7.244   7.092
  972WAT      O 3157   7.493   6.857   2.008
  972WAT     H1 3158   7.508   6.951   1.977
  972WAT     H2 3159   7.518   6.850   2.105
  973WAT      O 3160   2.370   9.263   2.886
  973WAT     H1 3161   2.387   9.334   2.818
  973WAT     H2 3162   2.306   9.196   2.849
  974WAT      O 3163   6.266   4.275   9.585
  974WAT     H1 3164   6.353   4.325   9.584
  974WAT     H2 3165   6.224   4.283   9.676
  975WAT      O 3166   9.261   9.059   5.327
  975WAT     H1 3167   9.356   9.062   5.294
  975WAT     H2 3168   9.220   9.150   5.318
  976WAT      O 3169   5.792   5.264   8.849
  976WAT     H1 3170   5.858   5.209   8.900
  976WAT     H2 3171   5.729   5.204   8.800
  977WAT      O 3172   2.856   8.330   3.186
  977WAT     H1 3173   2.852   8.298   3.091
  977WAT     H2 3174   2.911   8.413   3.191
  978WAT      O 3175   7.830   6.245   4.879
  978WAT     H1 3176   7.819   6.204   4.789
  978WAT     H2 3177   7.740   6.276   4.912
  979WAT      O 3178   4.130   2.719   7.218
  979WAT     H1 3179   4.122   2.690   7.313
  979WAT     H2 3180   4.138   2.638   7.159
  980WAT      O 3181   9.099   6.517   1.150
  980WAT     H1 3182   9.005   6.485   1.162
  980WAT     H2 3183   9.098   6.611   1.116
  981WAT      O 3184   8.744   6.653   8.756
  981WAT     H1 3185   8.776   6.724   8.819
  981WAT     H2 3186   8.761   6.563   8.796
  982WAT      O 3187   6.993   0.052   1.438
  982WAT     H1 3188   6.926   0.104   1.492
  982WAT     H2 3189   7.056   0.115   1.393
  983WAT      O 3190   3.934   2.313   9.433
  983WAT     H1 3191   4.020   2.286   9.477
  983WAT     H2 3192   3.948   2.322   9.335
  984WAT      O 3193   3.880   8.430   8.372
  984WAT     H1 3194   3.833   8.367   8.311
  984WAT     H2 3195   3.978   8.411   8.371
  985WAT      O 3196   2.489   2.161   4.716
  985WAT     H1 3197   2.554   2.237   4.718
  985WAT     H2 3198   2.528   2.083   4.766
  986WAT      O 3199   9.369   6.696   0.916
  986WAT     H1 3200   9.354   6.607   0.873
  986WAT     H2 3201   9.455   6.694   0.966
  987WAT      O 3202   2.753   5.694   5.727
  987WAT     H1 3203   2.812   5.705   5.807
  987WAT     H2 3204   2.757   5.777   5.672
  988WAT      O 3205   0.836   5.791   7.934
  988WAT     H1 3206   0.858   5.812   8.029
  988WAT     H2 3207   0.769   5.717   7.930
  989WAT      O 3208   4.272   4.679   0.694
  989WAT     H1 3209   4.211   4.630   0.632
  989WAT     H2 3210   4.295   4.620   0.771
  990WAT      O 3211   2.005   2.172   4.782
  990WAT     H1 3212   2.090   2.224   4.775
  990WAT     H2 3213   2.004   2.120   4.867
  991WAT      O 3214   2.516   6.754   8.013
  991WAT     H1 3215   2.508   6.847   7.977
  991WAT     H2 3216   2.514   6.689   7.938
  992WAT      O 3217   5.456   8.261   1.165
  992WAT     H1 3218   5.486   8.349   1.201
  992WAT     H2 3219   5.363   8.242   1.198
  993WAT      O 3220   5.686   8.683   4.229
  993WAT     H1 3221   5.705   8.745   4.305
  993WAT     H2 3222   5.621   8.613   4.259
  994WAT      O 3223   4.081   5.805   6.686
  994WAT     H1 3224   4.175   5.809   6.720
  994WAT     H2 3225   4.055   5.710   6.672
  995WAT      O 3226   8.528   7.995   4.637
  995WAT     H1 3227   8.624   7.970   4.647
  995WAT     H2 3228   8.471   7.913   4.631
  996WAT      O 3229   6.440   7.777   8.509
  996WAT     H1 3230   6.442   7.848   8.579
  996WAT     H2 3231   6.346   7.754   8.487
  997WAT      O 3232   7.486   4.797   2.548
  997WAT     H1 3233   7.404   4.830   2.500
  997WAT     H2 3234   7.464   4.784   2.644
  998WAT      O 3235   6.247   0.048   3.783
  998WAT     H1 3236   6.151   0.077   3.778
  998WAT     H2 3237   6.263   0.001   3.870
  999WAT      O 3238   0.946   6.402   6.375
  999WAT     H1 3239   0.859   6.417   6.422
  999WAT     H2 3240   1.021   6.429   6.434
 1000WAT      O 3241   7.252   4.627   7.746
 1000WAT     H1 3242   7.322   4.634   7.676
 1000WAT     H2 3243   7.240   4.530   7.771
 1001WAT      O 3244   5.233   9.070   6.071
 1001WAT     H1 3245   5.205   8.982   6.034
 1001WAT     H2 3246   5.319   9.060   6.121
 1002WAT      O 3247   9.145   0.190   6.239
 1002WAT     H1 3248   9.101   0.110   6.198
 1002WAT     H2 3249   9.161   0.259   6.168
 1003WAT      O 3250   0.401   4.342   9.704
 1003WAT     H1 3251   0.365   4.283   9.777
 1003WAT     H2 3252   0.346   4.330   9.621
 1004WAT      O 3253   4.194   1.220   6.422
 1004WAT     H1 3254   4.139   1.209   6.339
 1004WAT     H2 3255   4.223   1.130   6.455
 1005WAT      O 3256   7.644   4.047   1.491
 1005WAT     H1 3257   7.730   3.996   1.496
 1005WAT     H2 3258   7.613   4.069   1.583
 1006WAT      O 3259   3.202   2.681   2.419
 1006WAT     H1 3260   3.112   2.639   2.418
 1006WAT     H2 3261   3.256   2.647   2.343
 1007WAT      O 3262   7.222   5.680   3.262
 1007WAT     H1 3263   7.316   5.649   3.274
 1007WAT     H2 3264   7.195   5.737   3.339
 1008WAT      O 3265   0.181   9.718   2.460
 1008WAT     H1 3266   0.154   9.680   2.549
 1008WAT     H2 3267   0.218   9.644   2.403
 1009WAT      O 3268   5.050   5.036   6.852
 1009WAT     H1 3269   5.087   4.953   6.894
 1009WAT     H2 3270   4.961   5.058   6.892
 1010WAT      O 3271   8.565   8.913   9.562
 1010WAT     H1 3272   8.572   8.935   9.464
 1010WAT     H2 3273   8.638   8.848   9.586
 1011WAT      O 3274   2.307   3.926   3.768
 1011WAT     H1 3275   2.249   3.991   3.817
 1011WAT     H2 3276   2.399   3.928   3.807
 1012WAT      O 3277   7.505   9.376   5.660
 1012WAT     H1 3278   7.423   9.339   5.617
 1012WAT     H2 3279   7.494   9.378   5.759
 1013WAT      O 3280   4.843   4.512   2.405
 1013WAT     H1 3281   4.942   4.508   2.418
 1013WAT     H2 3282   4.821   4.582   2.338
 1014WAT      O 3283   9.580   8.573   5.927
 1014WAT     H1 3284   9.596   8.617   6.015
 1014WAT     H2 3285   9.502   8.616   5.882
 1015WAT      O 3286   7.005   7.750   7.211
 1015WAT     H1 3287   7.059   7.723   7.291
 1015WAT     H2 3288   7.003   7.674   7.145
 1016WAT      O 3289   5.238   6.577   8.711
 1016WAT     H1 3290   5.231   6.482   8.681
 1016WAT     H2 3291   5.156   6.626   8.684
 1017WAT      O 3292   6.285   5.388   4.751
 1017WAT     H1 3293   6.217   5.461   4.759
 1017WAT     H2 3294   6.356   5.414   4.686
 1018WAT      O 3295   3.616   1.767   6.914
 1018WAT     H1 3296   3.532   1.764   6.967
 1018WAT     H2 3297   3.615   1.695   6.845
 1019WAT      O 3298   4.057   2.733   9.435
 1019WAT     H1 3299   4.150   2.761   9.410
 1019WAT     H2 3300   4.011   2.809   9.482
 1020WAT      O 3301   2.380   7.991   7.477
 1020WAT     H1 3302   2.476   7.974   7.496
 1020WAT     H2 3303   2.367   8.007   7.379
 1021WAT      O 3304   8.612   5.569   9.197
 1021WAT     H1 3305   8.514   5.586   9.210
 1021WAT     H2 3306   8.640   5.491   9.253
 1022WAT      O 3307   0.116   2.713   5.943
 1022WAT     H1 3308   0.044   2.728   6.011
 1022WAT     H2 3309   0.077   2.669   5.863
 1023WAT      O 3310   0.812   8.132   8.111
 1023WAT     H1 3311   0.876   8.083   8.171
 1023WAT     H2 3312   0.754   8.065   8.064
 1024WAT      O 3313   7.224   2.335   2.111
 1024WAT     H1 3314   7.202   2.255   2.055
 1024WAT     H2 3315   7.235   2.415   2.052
 1025WAT      O 3316   7.220   9.147   0.775
 1025WAT     H1 3317   7.305   9.102   0.800
 1025WAT     H2 3318   7.181   9.192   0.855
 1026WAT      O 3319   1.947   0.223   6.222
 1026WAT     H1 3320   1.904   0.254   6.307
 1026WAT     H2 3321   2.041   0.257   6.218
 1027WAT      O 3322   1.533   4.587   0.919
 1027WAT     H1 3323   1.609   4.525   0.941
 1027WAT     H2 3324   1.515   4.646   0.997
 1028WAT      O 3325   2.929   1.871   1.101
 1028WAT     H1 3326   3.005   1.806   1.103
 1028WAT     H2 3327   2.953   1.950   1.045
 1029WAT      O 3328   1.117   2.568   4.920
 1029WAT     H1 3329   1.155   2.632   4.853
 1029WAT     H2 3330   1.018   2.580   4.924
 1030WAT      O 3331   5.559   8.877   0.342
 1030WAT     H1 3332   5.510   8.791   0.338
 1030WAT     H2 3333   5.547   8.927   0.256
 1031WAT      O 3334   3.139   4.507   4.075
 1031WAT     H1 3335   3.070   4.439   4.049
 1031WAT     H2 3336   3.097   4.576   4.134
 1032WAT      O 3337   6.783   9.500   7.091
 1032WAT     H1 3338   6.745   9.495   6.999
 1032WAT     H2 3339   6.841   9.420   7.108
 1033WAT      O 3340   4.622   4.622   9.065
 1033WAT     H1 3341   4.541   4.663   9.107
 1033WAT     H2 3342   4.652   4.678   8.988
 1034WAT      O 3343   4.574   5.995   5.171
 1034WAT     H1 3344   4.513   5.997   5.092
 1034WAT     H2 3345   4.594   5.900   5.195
 1035WAT      O 3346   3.050   4.235   1.660
 1035WAT     H1 3347   3.013   4.300   1.593
 1035WAT     H2 3348   3.038   4.142   1.627
 1036WAT      O 3349   3.265   8.130   6.982
 1036WAT     H1 3350   3.209   8.113   7.063
 1036WAT     H2 3351   3.311   8.045   6.955
 1037WAT      O 3352   9.471   7.197   1.553
 1037WAT     H1 3353   9.446   7.141   1.632
 1037WAT     H2 3354   9.552   7.251   1.575
 1038WAT      O 3355   2.278   8.398   8.318
 1038WAT     H1 3356   2.228   8.338   8.382
 1038WAT     H2 3357   2.212   8.441   8.256
 1039WAT      O 3358   6.905   6.260   5.617
 1039WAT     H1 3359   6.940   6.307   5.699
 1039WAT     H2 3360   6.844   6.186   5.645
 1040WAT      O 3361   7.200   0.905   8.644
 1040WAT     H1 3362   7.110   0.895   8.601
 1040WAT     H2 3363   7.271   0.900   8.574
 1041WAT      O 3364   7.542   2.920   3.121
 1041WAT     H1 3365   7.469   2.984   3.143
 1041WAT     H2 3366   7.506   2.826   3.124
 1042WAT      O 3367   7.448   0.867   5.183
 1042WAT     H1 3368   7.542   0.833   5.174
 1042WAT     H2 3369   7.406   0.871   5.093
 1043WAT      O 3370   0.999   0.607   5.250
 1043WAT     H1 3371   0.937   0.684   5.264
 1043WAT     H2 3372   0.993   0.545   5.329
 1044WAT      O 3373   9.288   3.684   1.825
 1044WAT     H1 3374   9.376   3.713   1.786
 1044WAT     H2 3375   9.232   3.642   1.753
 1045WAT      O 3376   7.185   6.330   0.556
 1045WAT     H1 3377   7.206   6.396   0.629
 1045WAT     H2 3378   7.088   6.335   0.534
 1046WAT      O 3379   6.135   0.963   9.343
 1046WAT     H1 3380   6.110   0.884   9.400
 1046WAT     H2 3381   6.072   0.969   9.266
 1047WAT      O 3382   3.146   3.781   7.407
 1047WAT     H1 3383   3.239   3.783   7.371
 1047WAT     H2 3384   3.104   3.871   7.398
 1048WAT      O 3385   0.032   0.462   3.850
 1048WAT     H1 3386   0.074   0.471   3.940
 1048WAT     H2 3387  -0.067   0.476   3.858
 1049WAT      O 3388   9.066   4.810   6.713
 1049WAT     H1 3389   9.039   4.878   6.646
 1049WAT     H2 3390   9.156   4.773   6.689
 1050WAT      O 3391   0.933   4.035   5.636
 1050WAT     H1 3392   1.011   4.084   5.677
 1050WAT     H2 3393   0.849   4.062   5.682
 1051WAT      O 3394   7.147   5.142   5.210
 1051WAT     H1 3395   7.239   5.182   5.207
 1051WAT     H2 3396   7.151   5.053   5.256
 1052WAT      O 3397   6.318   6.843   4.563
 1052WAT     H1 3398   6.225   6.853   4.528
 1052WAT     H2 3399   6.333   6.908   4.637
 1053WAT      O 3400   0.796   6.437   7.954
 1053WAT     H1 3401   0.842   6.408   8.038
 1053WAT     H2 3402   0.774   6.356   7.898
 1054WAT      O 3403   8.057   9.818   7.796
 1054WAT     H1 3404   8.061   9.753   7.871
 1054WAT     H2 3405   8.144   9.866   7.789
 1055WAT      O 3406   0.294   5.637   5.271
 1055WAT     H1 3407   0.367   5.664   5.209
 1055WAT     H2 3408   0.215   5.697   5.259
 1056WAT      O 3409   1.429   9.758   8.426
 1056WAT     H1 3410   1.365   9.811   8.481
 1056WAT     H2 3411   1.449   9.807   8.341
 1057WAT      O 3412   6.410   3.313   0.770
 1057WAT     H1 3413   6.379   3.328   0.676
 1057WAT     H2 3414   6.509   3.328   0.774
 1058WAT      O 3415   2.896   6.970   8.725
 1058WAT     H1 3416   2.978   6.979   8.782
 1058WAT     H2 3417   2.903   6.888   8.669
 1059WAT      O 3418   2.393   6.780   5.120
 1059WAT     H1 3419   2.454   6.774   5.041
 1059WAT     H2 3420   2.326   6.706   5.116
 1060WAT      O 3421   3.897   0.048   1.167
 1060WAT     H1 3422   3.842   0.009   1.241
 1060WAT     H2 3423   3.964   0.111   1.205
 1061WAT      O 3424   0.311   2.732   7.324
 1061WAT     H1 3425   0.354   2.647   7.354
 1061WAT     H2 3426   0.235   2.710   7.262
 1062WAT      O 3427   7.119   8.291   1.241
 1062WAT     H1 3428   7.165   8.251   1.162
 1062WAT     H2 3429   7.054   8.225   1.279
 1063WAT      O 3430   6.255   6.288   0.822
 1063WAT     H1 3431   6.175   6.323   0.773
 1063WAT     H2 3432   6.308   6.228   0.761
 1064WAT      O 3433   6.358   7.685   2.194
 1064WAT     H1 3434   6.368   7.594   2.155
 1064WAT     H2 3435   6.404   7.752   2.136
 1065WAT      O 3436   6.954   0.642   8.728
 1065WAT     H1 3437   7.053   0.628   8.719
 1065WAT     H2 3438   6.917   0.575   8.794
 1066WAT      O 3439   4.744   5.493   2.835
 1066WAT     H1 3440   4.702   5.494   2.926
 1066WAT     H2 3441   4.679   5.530   2.768
 1067WAT      O 3442   2.121   5.032   2.288
 1067WAT     H1 3443   2.145   5.127   2.270
 1067WAT     H2 3444   2.192   4.989   2.343
 1068WAT      O 3445   3.814   8.694   2.133
 1068WAT     H1 3446   3.884   8.623   2.134
 1068WAT     H2 3447   3.798   8.724   2.039
 1069WAT      O 3448   3.589   0.247   5.679
 1069WAT     H1 3449   3.601   0.147   5.679
 1069WAT     H2 3450   3.525   0.272   5.752
 1070WAT      O 3451   7.633   6.816   6.604
 1070WAT     H1 3452   7.669   6.886   6.542
 1070WAT     H2 3453   7.701   6.743   6.615
 1071WAT      O 3454   0.268   7.276   9.214
 1071WAT     H1 3455   0.367   7.272   9.227
 1071WAT     H2 3456   0.228   7.342   9.277
 1072WAT      O 3457   6.624   5.143   3.636
 1072WAT     H1 3458   6.534   5.184   3.618
 1072WAT     H2 3459   6.684   5.209   3.679
 1073WAT      O 3460   4.550   3.591   5.852
 1073WAT     H1 3461   4.531   3.679   5.895
 1073WAT     H2 3462   4.558   3.520   5.922
 1074WAT      O 3463   1.327   7.750   4.162
 1074WAT     H1 3464   1.256   7.775   4.228
 1074WAT     H2 3465   1.376   7.669   4.195
 1075WAT      O 3466   2.841   4.644   1.293
 1075WAT     H1 3467   2.865   4.638   1.390
 1075WAT     H2 3468   2.920   4.674   1.241
 1076WAT      O 3469   4.460   5.162   5.463
 1076WAT     H1 3470   4.542   5.207   5.429
 1076WAT     H2 3471   4.471   5.063   5.455
 1077WAT      O 3472   2.564   8.219   6.341
 1077WAT     H1 3473   2.534   8.304   6.384
 1077WAT     H2 3474   2.649   8.235   6.291
 1078WAT      O 3475   3.987   5.018   8.347
 1078WAT     H1 3476   4.020   4.974   8.264
 1078WAT     H2 3477   3.895   5.054   8.331
 1079WAT      O 3478   5.645   4.709   3.833
 1079WAT     H1 3479   5.592   4.627   3.856
 1079WAT     H2 3480   5.738   4.700   3.869
 1080WAT      O 3481   6.067   0.949   6.614
 1080WAT     H1 3482   6.002   0.879   6.584
 1080WAT     H2 3483   6.017   1.029   6.647
 1081WAT      O 3484   9.088   4.996   1.415
 1081WAT     H1 3485   9.072   4.906   1.455
 1081WAT     H2 3486   9.179   4.998   1.374
 1082WAT      O 3487   3.801   2.490   8.159
 1082WAT     H1 3488   3.752   2.578   8.165
 1082WAT     H2 3489   3.762   2.426   8.225
 1083WAT      O 3490   7.025   8.772   7.670
 1083WAT     H1 3491   6.974   8.726   7.598
 1083WAT     H2 3492   7.001   8.870   7.671
 1084WAT      O 3493   2.775   1.684   4.320
 1084WAT     H1 3494   2.794   1.599   4.370
 1084WAT     H2 3495   2.692   1.726   4.356
 1085WAT      O 3496   1.158   4.899   4.015
 1085WAT     H1 3497   1.088   4.965   4.043
 1085WAT     H2 3498   1.148   4.880   3.917
 1086WAT      O 3499   9.697   0.196   8.158
 1086WAT     H1 3500   9.707   0.141   8.241
 1086WAT     H2 3501   9.652   0.283   8.182
 1087WAT      O 3502   3.497   2.633   4.266
 1087WAT     H1 3503   3.588   2.671   4.280
 1087WAT     H2 3504   3.428   2.698   4.299
 1088WAT      O 3505   4.368   1.939   6.658
 1088WAT     H1 3506   4.317   1.854   6.653
 1088WAT     H2 3507   4.465   1.921   6.642
 1089WAT      O 3508   0.101   1.904   0.393
 1089WAT     H1 3509   0.118   1.892   0.296
 1089WAT     H2 3510   0.056   1.992   0.409
 1090WAT      O 3511   2.181   3.167   0.084
 1090WAT     H1 3512   2.182   3.148  -0.014
 1090WAT     H2 3513   2.263   3.220   0.109
 1091WAT      O 3514   1.723   0.902   9.247
 1091WAT     H1 3515   1.686   0.876   9.336
 1091WAT     H2 3516   1.769   0.990   9.254
 1092WAT      O 3517   0.709   5.236   5.719
 1092WAT     H1 3518   0.739   5.327   5.691
 1092WAT     H2 3519   0.669   5.188   5.640
 1093WAT      O 3520   8.685   7.377   6.430
 1093WAT     H1 3521   8.759   7.444   6.431
 1093WAT     H2 3522   8.683   7.330   6.342
 1094WAT      O 3523   9.388   6.113   6.131
 1094WAT     H1 3524   9.404   6.185   6.063
 1094WAT     H2 3525   9.331   6.149   6.205
 1095WAT      O 3526   1.846   3.775   5.169
 1095WAT     H1 3527   1.806   3.806   5.083
 1095WAT     H2 3528   1.843   3.850   5.235
 1096WAT      O 3529   8.133   5.475   2.109
 1096WAT     H1 3530   8.041   5.472   2.147
 1096WAT     H2 3531   8.156   5.386   2.070
 1097WAT      O 3532   8.784   6.460   9.653
 1097WAT     H1 3533   8.753   6.555   9.661
 1097WAT     H2 3534   8.753   6.422   9.566
 1098WAT      O 3535   3.221   9.301   1.831
 1098WAT     H1 3536   3.273   9.319   1.748
 1098WAT     H2 3537   3.152   9.232   1.813
 1099WAT      O 3538   4.246   9.680   5.115
 1099WAT     H1 3539   4.222   9.630   5.198
 1099WAT     H2 3540   4.341   9.663   5.092
 1100WAT      O 3541   7.463   4.258   3.367
 1100WAT     H1 3542   7.472   4.252   3.267
 1100WAT     H2 3543   7.438   4.352   3.392
 1101WAT      O 3544   4.969   2.567   8.593
 1101WAT     H1 3545   4.888   2.609   8.553
 1101WAT     H2 3546   4.968   2.582   8.692
 1102WAT      O 3547   6.520   5.073   0.233
 1102WAT     H1 3548   6.597   5.021   0.268
 1102WAT     H2 3549   6.544   5.111   0.143
 1103WAT      O 3550   8.735   8.500   2.663
 1103WAT     H1 3551   8.671   8.516   2.587
 1103WAT     H2 3552   8.828   8.492   2.626
 1104WAT      O 3553   6.490   4.359   5.583
 1104WAT     H1 3554   6.546   4.375   5.501
 1104WAT     H2 3555   6.475   4.446   5.630
 1105WAT      O 3556   3.501   6.630   3.913
 1105WAT     H1 3557   3.498   6.665   4.007
 1105WAT     H2 3558   3.542   6.699   3.853
 1106WAT      O 3559   5.017   8.819   4.527
 1106WAT     H1 3560   4.980   8.829   4.434
 1106WAT     H2 3561   4.947   8.845   4.593
 1107WAT      O 3562   4.797   6.938   8.558
 1107WAT     H1 3563   4.823   7.032   8.579
 1107WAT     H2 3564   4.701   6.936   8.530
 1108WAT      O 3565   3.530   6.739   8.165
 1108WAT     H1 3566   3.563   6.752   8.259
 1108WAT     H2 3567   3.593   6.679   8.116
 1109WAT      O 3568   3.008   8.352   6.263
 1109WAT     H1 3569   3.097   8.381   6.228
 1109WAT     H2 3570   3.004   8.372   6.361
 1110WAT      O 3571   4.180   5.209   6.482
 1110WAT     H1 3572   4.218   5.239   6.394
 1110WAT     H2 3573   4.177   5.109   6.485
 1111WAT      O 3574   7.760   2.416   0.162
 1111WAT     H1 3575   7.826   2.489   0.146
 1111WAT     H2 3576   7.676   2.436   0.112
 1112WAT      O 3577   1.380   1.864   4.204
 1112WAT     H1 3578   1.403   1.824   4.292
 1112WAT     H2 3579   1.354   1.960   4.216
 1113WAT      O 3580   9.156   4.966   4.925
 1113WAT     H1 3581   9.147   5.059   4.961
 1113WAT     H2 3582   9.210   4.967   4.841
 1114WAT      O 3583   4.051   1.538   7.045
 1114WAT     H1 3584   4.069   1.534   7.143
 1114WAT     H2 3585   3.953   1.533   7.028
 1115WAT      O 3586   8.814   8.735   9.545
 1115WAT     H1 3587   8.862   8.648   9.537
 1115WAT     H2 3588   8.877   8.810   9.525
 1116WAT      O 3589   2.543   4.943   0.292
 1116WAT     H1 3590   2.499   5.002   0.224
 1116WAT     H2 3591   2.642   4.946   0.278
 1117WAT      O 3592   7.861   7.316   7.625
 1117WAT     H1 3593   7.850   7.257   7.706
 1117WAT     H2 3594   7.942   7.373   7.636
 1118WAT      O 3595   1.508   4.939   7.065
 1118WAT     H1 3596   1.575   4.876   7.026
 1118WAT     H2 3597   1.528   5.032   7.036
 1119WAT      O 3598   8.532   6.975   1.904
 1119WAT     H1 3599   8.456   7.041   1.906
 1119WAT     H2 3600   8.556   6.948   1.997
 1120WAT      O 3601   8.000   7.971   2.209
 1120WAT     H1 3602   8.007   7.874   2.184
 1120WAT     H2 3603   7.908   8.004   2.186
 1121WAT      O 3604   7.363   1.610   5.199
 1121WAT     H1 3605   7.446   1.598   5.145
 1121WAT     H2 3606   7.387   1.639   5.292
 1122WAT      O 3607   3.109   3.823   2.388
 1122WAT     H1 3608   3.101   3.918   2.358
 1122WAT     H2 3609   3.062   3.812   2.476
 1123WAT      O 3610   2.351   7.378   1.445
 1123WAT     H1 3611   2.398   7.426   1.371
 1123WAT     H2 3612   2.364   7.427   1.531
 1124WAT      O 3613   9.075   7.627   9.543
 1124WAT     H1 3614   9.014   7.675   9.607
 1124WAT     H2 3615   9.023   7.557   9.494
 1125WAT      O 3616   8.101   1.558   9.885
 1125WAT     H1 3617   8.024   1.589   9.830
 1125WAT     H2 3618   8.173   1.523   9.825
 1126WAT      O 3619   6.440   4.230   4.646
 1126WAT     H1 3620   6.415   4.154   4.585
 1126WAT     H2 3621   6.518   4.279   4.607
 1127WAT      O 3622   2.973   5.504   2.303
 1127WAT     H1 3623   2.881   5.521   2.269
 1127WAT     H2 3624   2.994   5.569   2.376
 1128WAT      O 3625   7.738   3.894   8.441
 1128WAT     H1 3626   7.740   3.863   8.536
 1128WAT     H2 3627   7.737   3.815   8.380
 1129WAT      O 3628   0.257   8.646   5.154
 1129WAT     H1 3629   0.253   8.745   5.155
 1129WAT     H2 3630   0.326   8.616   5.087
 1130WAT      O 3631   3.636   5.038   0.211
 1130WAT     H1 3632   3.650   5.066   0.306
 1130WAT     H2 3633   3.542   5.059   0.184
 1131WAT      O 3634   1.964   1.038   1.014
 1131WAT     H1 3635   1.970   1.072   1.108
 1131WAT     H2 3636   1.907   0.956   1.012
 1132WAT      O 3637   9.606   0.390   6.623
 1132WAT     H1 3638   9.657   0.316   6.666
 1132WAT     H2 3639   9.588   0.367   6.527
 1133WAT      O 3640   6.336   0.342   7.755
 1133WAT     H1 3641   6.287   0.318   7.671
 1133WAT     H2 3642   6.373   0.259   7.797
 1134WAT      O 3643   5.644   3.918   5.322
 1134WAT     H1 3644   5.612   3.971   5.243
 1134WAT     H2 3645   5.655   3.979   5.401
 1135WAT      O 3646   7.421   9.163   7.609
 1135WAT     H1 3647   7.351   9.152   7.679
 1135WAT     H2 3648   7.483   9.237   7.634
 1136WAT      O 3649   9.085   8.283   0.493
 1136WAT     H1 3650   9.153   8.347   0.457
 1136WAT     H2 3651   9.020   8.260   0.421
 1137WAT      O 3652   5.254   0.150   3.201
 1137WAT     H1 3653   5.232   0.162   3.104
 1137WAT     H2 3654   5.205   0.071   3.237
 1138WAT      O 3655   3.838   9.318   7.309
 1138WAT     H1 3656   3.848   9.278   7.218
 1138WAT     H2 3657   3.789   9.405   7.303
 1139WAT      O 3658   3.573   5.514   8.314
 1139WAT     H1 3659   3.669   5.543   8.313
 1139WAT     H2 3660   3.518   5.580   8.364
 1140WAT      O 3661   3.315   1.667   8.122
 1140WAT     H1 3662   3.228   1.619   8.112
 1140WAT     H2 3663   3.299   1.756   8.165
 1141WAT      O 3664   7.103   0.749   9.328
 1141WAT     H1 3665   7.095   0.812   9.250
 1141WAT     H2 3666   7.150   0.666   9.299
 1142WAT      O 3667   3.853   0.932   3.609
 1142WAT     H1 3668   3.947   0.931   3.575
 1142WAT     H2 3669   3.830   0.843   3.647
 1143WAT      O 3670   2.090   3.847   2.103
 1143WAT     H1 3671   2.092   3.912   2.178
 1143WAT     H2 3672   2.182   3.812   2.087
 1144WAT      O 3673   6.971   2.208   3.434
 1144WAT     H1 3674   7.066   2.178   3.445
 1144WAT     H2 3675   6.932   2.163   3.353
 1145WAT      O 3676   5.769   7.374   7.278
 1145WAT     H1 3677   5.706   7.443   7.315
 1145WAT     H2 3678   5.851   7.371   7.334
 1146WAT      O 3679   6.435   9.311   2.236
 1146WAT     H1 3680   6.403   9.280   2.146
 1146WAT     H2 3681   6.451   9.231   2.294
 1147WAT      O 3682   3.698   4.365   0.001
 1147WAT     H1 3683   3.766   4.320  -0.058
 1147WAT     H2 3684   3.742   4.439   0.052
 1148WAT      O 3685   5.922   4.998   7.604
 1148WAT     H1 3686   5.931   4.951   7.517
 1148WAT     H2 3687   5.961   4.942   7.677
 1149WAT      O 3688   6.982   3.485   2.642
 1149WAT     H1 3689   6.986   3.584   2.633
 1149WAT     H2 3690   6.983   3.460   2.739
 1150WAT      O 3691   1.973   9.356   8.070
 1150WAT     H1 3692   2.047   9.349   8.002
 1150WAT     H2 3693   2.013   9.365   8.161
 1151WAT      O 3694   3.054   5.422   8.753
 1151WAT     H1 3695   3.007   5.450   8.669
 1151WAT     H2 3696   3.021   5.331   8.781
 1152WAT      O 3697   5.127   1.364   8.250
 1152WAT     H1 3698   5.045   1.374   8.306
 1152WAT     H2 3699   5.153   1.454   8.214
 1153WAT      O 3700   4.163   7.646   7.294
 1153WAT     H1 3701   4.205   7.655   7.385
 1153WAT     H2 3702   4.143   7.550   7.276
 1154WAT      O 3703   2.399   8.765   1.793
 1154WAT     H1 3704   2.430   8.751   1.887
 1154WAT     H2 3705   2.456   8.713   1.730
 1155WAT      O 3706   0.069   3.513   3.726
 1155WAT     H1 3707   0.090   3.442   3.793
 1155WAT     H2 3708   0.029   3.472   3.644
 1156WAT      O 3709   2.835   0.442   2.542
 1156WAT     H1 3710   2.753   0.400   2.583
 1156WAT     H2 3711   2.819   0.540   2.529
 1157WAT      O 3712   8.627   0.877   4.967
 1157WAT     H1 3713   8.703   0.841   5.022
 1157WAT     H2 3714   8.580   0.948   5.019
 1158WAT      O 3715   0.284   4.946   5.661
 1158WAT     H1 3716   0.247   4.893   5.737
 1158WAT     H2 3717   0.369   4.991   5.690
 1159WAT      O 3718   5.519   3.073   0.954
 1159WAT     H1 3719   5.478   3.014   1.024
 1159WAT     H2 3720   5.490   3.041   0.863
 1160WAT      O 3721   8.377   2.217   1.657
 1160WAT     H1 3722   8.314   2.289   1.629
 1160WAT     H2 3723   8.352   2.132   1.611
 1161WAT      O 3724   2.042   3.241   5.630
 1161WAT     H1 3725   1.969   3.200   5.685
 1161WAT     H2 3726   2.091   3.169   5.580
 1162WAT      O 3727   5.390   8.885   6.268
 1162WAT     H1 3728   5.297   8.864   6.296
 1162WAT     H2 3729   5.441   8.922   6.345
 1163WAT      O 3730   5.762   3.560   1.718
 1163WAT     H1 3731   5.816   3.556   1.802
 1163WAT     H2 3732   5.726   3.652   1.705
 1164WAT      O 3733   8.494   1.397   2.501
 1164WAT     H1 3734   8.442   1.463   2.556
 1164WAT     H2 3735   8.581   1.438   2.474
 1165WAT      O 3736   7.844   4.854   1.677
 1165WAT     H1 3737   7.870   4.861   1.774
 1165WAT     H2 3738   7.765   4.913   1.659
 1166WAT      O 3739   2.647   0.771   4.014
 1166WAT     H1 3740   2.734   0.772   4.062
 1166WAT     H2 3741   2.654   0.713   3.933
 1167WAT      O 3742   0.803   2.792   1.432
 1167WAT     H1 3743   0.812   2.807   1.334
 1167WAT     H2 3744   0.709   2.808   1.460
 1168WAT      O 3745   4.130   8.986   3.226
 1168WAT     H1 3746   4.199   8.980   3.299
 1168WAT     H2 3747   4.075   9.068   3.240
 1169WAT      O 3748   8.596   0.448   3.439
 1169WAT     H1 3749   8.606   0.497   3.352
 1169WAT     H2 3750   8.566   0.510   3.510
 1170WAT      O 3751   7.594   1.778   9.633
 1170WAT     H1 3752   7.519   1.736   9.581
 1170WAT     H2 3753   7.597   1.876   9.613
 1171WAT      O 3754   0.582   7.349   1.536
 1171WAT     H1 3755   0.530   7.331   1.620
 1171WAT     H2 3756   0.670   7.391   1.559
 1172WAT      O 3757   4.140   6.385   4.396
 1172WAT     H1 3758   4.080   6.465   4.402
 1172WAT     H2 3759   4.129   6.341   4.307
 1173WAT      O 3760   4.024   9.530   9.136
 1173WAT     H1 3761   4.012   9.534   9.037
 1173WAT     H2 3762   4.115   9.493   9.157
 1174WAT      O 3763   1.300   7.345   5.868
 1174WAT     H1 3764   1.370   7.306   5.928
 1174WAT     H2 3765   1.311   7.444   5.863
 1175WAT      O 3766   0.863   0.523   1.441
 1175WAT     H1 3767   0.907   0.588   1.379
 1175WAT     H2 3768   0.787   0.478   1.393
 1176WAT      O 3769   5.273   7.778   9.256
 1176WAT     H1 3770   5.212   7.857   9.261
 1176WAT     H2 3771   5.321   7.778   9.169
 1177WAT      O 3772   0.032   8.589   9.497
 1177WAT     H1 3773   0.072   8.515   9.444
 1177WAT     H2 3774  -0.065   8.572   9.512
 1178WAT      O 3775   8.266   0.026   0.075
 1178WAT     H1 3776   8.184   0.006   0.127
 1178WAT     H2 3777   8.342  -0.028   0.110
 1179WAT      O 3778   5.331   4.306   3.100
 1179WAT     H1 3779   5.320   4.344   3.008
 1179WAT     H2 3780   5.427   4.313   3.127
 1180WAT      O 3781   0.390   6.853   3.656
 1180WAT     H1 3782   0.437   6.793   3.720
 1180WAT     H2 3783   0.302   6.811   3.630
 1181WAT      O 3784   7.425   4.178   7.878
 1181WAT     H1 3785   7.494   4.248   7.859
 1181WAT     H2 3786   7.427   4.155   7.975
 1182WAT      O 3787   7.556   5.887   5.637
 1182WAT     H1 3788   7.548   5.962   5.704
 1182WAT     H2 3789   7.579   5.803   5.685
 1183WAT      O 3790   5.326   3.871   0.839
 1183WAT     H1 3791   5.323   3.796   0.905
 1183WAT     H2 3792   5.268   3.848   0.760
 1184WAT      O 3793   7.965   6.826   4.619
 1184WAT     H1 3794   7.890   6.847   4.681
 1184WAT     H2 3795   7.996   6.732   4.635
 1185WAT      O 3796   7.431   5.584   7.912
 1185WAT     H1 3797   7.382   5.497   7.903
 1185WAT     H2 3798   7.458   5.596   8.007
 1186WAT      O 3799   8.269   0.199   6.528
 1186WAT     H1 3800   8.203   0.269   6.498
 1186WAT     H2 3801   8.306   0.153   6.447
 1187WAT      O 3802   5.631   4.286   3.187
 1187WAT     H1 3803   5.681   4.258   3.105
 1187WAT     H2 3804   5.695   4.302   3.262
 1188WAT      O 3805   0.771   0.695   7.411
 1188WAT     H1 3806   0.868   0.710   7.429
 1188WAT     H2 3807   0.743   0.606   7.447
 1189WAT      O 3808   6.953   2.507   9.791
 1189WAT     H1 3809   6.858   2.483   9.810
 1189WAT     H2 3810   6.963   2.607   9.793
 1190WAT      O 3811   3.298   0.324   0.630
 1190WAT     H1 3812   3.303   0.302   0.532
 1190WAT     H2 3813   3.208   0.298   0.665
 1191WAT      O 3814   3.572   0.975   5.321
 1191WAT     H1 3815   3.641   0.935   5.381
 1191WAT     H2 3816   3.490   0.998   5.374
 1192WAT      O 3817   6.049   8.167   7.780
 1192WAT     H1 3818   6.013   8.074   7.789
 1192WAT     H2 3819   6.048   8.195   7.684
 1193WAT      O 3820   6.861   2.680   8.837
 1193WAT     H1 3821   6.909   2.624   8.770
 1193WAT     H2 3822   6.787   2.626   8.878
 1194WAT      O 3823   4.934   3.884   8.908
 1194WAT     H1 3824   5.022   3.846   8.879
 1194WAT     H2 3825   4.865   3.812   8.909
 1195WAT      O 3826   1.836   3.379   7.015
 1195WAT     H1 3827   1.888   3.391   7.100
 1195WAT     H2 3828   1.753   3.435   7.020
 1196WAT      O 3829   3.611   4.348   2.837
 1196WAT     H1 3830   3.633   4.396   2.752
 1196WAT     H2 3831   3.519   4.309   2.831
 1197WAT      O 3832   2.509   0.978   4.635
 1197WAT     H1 3833   2.427   0.985   4.579
 1197WAT     H2 3834   2.507   1.046   4.708
 1198WAT      O 3835   7.658   6.334   3.753
 1198WAT     H1 3836   7.600   6.337   3.672
 1198WAT     H2 3837   7.617   6.389   3.826
 1199WAT      O 3838   5.587   5.580   8.190
 1199WAT     H1 3839   5.586   5.671   8.149
 1199WAT     H2 3840   5.519   5.522   8.144
 1200WAT      O 3841   8.370   7.289   6.153
 1200WAT     H1 3842   8.459   7.332   6.142
 1200WAT     H2 3843   8.374   7.220   6.225
 1201WAT      O 3844   9.678   1.300   3.229
 1201WAT     H1 3845   9.731   1.385   3.229
 1201WAT     H2 3846   9.736   1.224   3.199
 1202WAT      O 3847   7.608   7.432   8.682
 1202WAT     H1 3848   7.650   7.519   8.708
 1202WAT     H2 3849   7.583   7.381   8.765
 1203WAT      O 3850   6.648   1.103   3.463
 1203WAT     H1 3851   6.726   1.060   3.508
 1203WAT     H2 3852   6.609   1.173   3.523
 1204WAT      O 3853   7.725   7.212   0.356
 1204WAT     H1 3854   7.731   7.126   0.306
 1204WAT     H2 3855   7.752   7.197   0.452
 1205WAT      O 3856   3.915   8.837   8.912
 1205WAT     H1 3857   3.843   8.771   8.891
 1205WAT     H2 3858   3.874   8.918   8.955
 1206WAT      O 3859   3.910   9.054   0.641
 1206WAT     H1 3860   3.870   9.023   0.554
 1206WAT     H2 3861   3.849   9.121   0.684
 1207WAT      O 3862   9.447   7.309   8.238
 1207WAT     H1 3863   9.468   7.223   8.285
 1207WAT     H2 3864   9.529   7.366   8.236
 1208WAT      O 3865   0.610   6.441   6.851
 1208WAT     H1 3866   0.590   6.504   6.926
 1208WAT     H2 3867   0.562   6.355   6.867
 1209WAT      O 3868   5.602   0.308   9.682
 1209WAT     H1 3869   5.657   0.258   9.615
 1209WAT     H2 3870   5.615   0.267   9.772
 1210WAT      O 3871   0.045   5.703   5.661
 1210WAT     H1 3872   0.118   5.635   5.664
 1210WAT     H2 3873   0.076   5.782   5.609
 1211WAT      O 3874   4.355   4.836   8.308
 1211WAT     H1 3875   4.296   4.789   8.242
 1211WAT     H2 3876   4.337   4.801   8.400
 1212WAT      O 3877   6.462   2.709   3.701
 1212WAT     H1 3878   6.425   2.687   3.611
 1212WAT     H2 3879   6.462   2.808   3.714
 1213WAT      O 3880   3.686   6.347   2.795
 1213WAT     H1 3881   3.601   6.340   2.743
 1213WAT     H2 3882   3.726   6.257   2.807
 1214WAT      O 3883   0.531   2.826   0.636
 1214WAT     H1 3884   0.615   2.879   0.645
 1214WAT     H2 3885   0.495   2.836   0.543
 1215WAT      O 3886   7.190   3.518   5.898
 1215WAT     H1 3887   7.273   3.547   5.944
 1215WAT     H2 3888   7.125   3.594   5.894
 1216WAT      O 3889   3.690   2.609   0.405
 1216WAT     H1 3890   3.670   2.515   0.432
 1216WAT     H2 3891   3.691   2.616   0.306
 1217WAT      O 3892   6.553   3.977   2.335
 1217WAT     H1 3893   6.473   3.920   2.356
 1217WAT     H2 3894   6.578   3.965   2.239
 1218WAT      O 3895   8.633   5.733   1.520
 1218WAT     H1 3896   8.594   5.757   1.609
 1218WAT     H2 3897   8.588   5.652   1.484
 1219WAT      O 3898   8.238   7.121   0.134
 1219WAT     H1 3899   8.228   7.218   0.157
 1219WAT     H2 3900   8.160   7.070   0.171
 1220WAT      O 3901   1.753   5.949   9.293
 1220WAT     H1 3902   1.838   5.959   9.242
 1220WAT     H2 3903   1.727   5.852   9.297
 1221WAT      O 3904   5.076   7.708   1.674
 1221WAT     H1 3905   5.043   7.801   1.686
 1221WAT     H2 3906   5.081   7.687   1.576
 1222WAT      O 3907   5.752   1.019   2.283
 1222WAT     H1 3908   5.760   1.096   2.219
 1222WAT     H2 3909   5.663   1.024   2.329
 1223WAT      O 3910   0.660   9.561   7.362
 1223WAT     H1 3911   0.614   9.541   7.449
 1223WAT     H2 3912   0.591   9.573   7.291
 1224WAT      O 3913   5.802   0.266   3.368
 1224WAT     H1 3914   5.847   0.294   3.283
 1224WAT     H2 3915   5.737   0.193   3.349
 1225WAT      O 3916   8.577   1.801   4.668
 1225WAT     H1 3917   8.618   1.838   4.753
 1225WAT     H2 3918   8.597   1.703   4.662
 1226WAT      O 3919   6.456   5.799   6.406
 1226WAT     H1 3920   6.453   5.699   6.400
 1226WAT     H2 3921   6.377   5.831   6.460
 1227WAT      O 3922   9.165   3.334   6.438
 1227WAT     H1 3923   9.183   3.240   6.465
 1227WAT     H2 3924   9.250   3.387   6.447
 1228WAT      O 3925   3.830   1.638   0.401
 1228WAT     H1 3926   3.894   1.583   0.455
 1228WAT     H2 3927   3.736   1.618   0.430
 1229WAT      O 3928   9.179   2.914   8.474
 1229WAT     H1 3929   9.151   2.823   8.504
 1229WAT     H2 3930   9.272   2.932   8.506
 1230WAT      O 3931   2.626   8.562   4.503
 1230WAT     H1 3932   2.707   8.504   4.504
 1230WAT     H2 3933   2.645   8.645   4.450
 1231WAT      O 3934   7.209   1.873   8.157
 1231WAT     H1 3935   7.135   1.871   8.089
 1231WAT     H2 3936   7.205   1.959   8.208
 1232WAT      O 3937   1.999   0.665   2.440
 1232WAT     H1 3938   1.959   0.573   2.442
 1232WAT     H2 3939   1.926   0.732   2.430
 1233WAT      O 3940   5.953   5.859   8.789
 1233WAT     H1 3941   6.002   5.799   8.725
 1233WAT     H2 3942   5.858   5.828   8.797
 1234WAT      O 3943   3.808   5.255   2.122
 1234WAT     H1 3944   3.751   5.240   2.203
 1234WAT     H2 3945   3.839   5.350   2.120
 1235WAT      O 3946   9.830   2.159   1.158
 1235WAT     H1 3947   9.877   2.073   1.135
 1235WAT     H2 3948   9.887   2.211   1.222
 1236WAT      O 3949   3.103   4.240   1.173
 1236WAT     H1 3950   3.121   4.173   1.101
 1236WAT     H2 3951   3.048   4.198   1.245
 1237WAT      O 3952   3.459   6.144   3.889
 1237WAT     H1 3953   3.544   6.185   3.855
 1237WAT     H2 3954   3.451   6.050   3.854
 1238WAT      O 3955   3.933   0.159   4.449
 1238WAT     H1 3956   3.836   0.142   4.432
 1238WAT     H2 3957   3.952   0.152   4.547
 1239WAT      O 3958   5.547   5.582   5.286
 1239WAT     H1 3959   5.610   5.628   5.223
 1239WAT     H2 3960   5.461   5.632   5.289
 1240WAT      O 3961   9.508   4.091   3.873
 1240WAT     H1 3962   9.555   4.171   3.836
 1240WAT     H2 3963   9.565   4.010   3.860
 1241WAT      O 3964   4.988   6.715   2.073
 1241WAT     H1 3965   5.053   6.726   1.998
 1241WAT     H2 3966   5.038   6.711   2.160
 1242WAT      O 3967   4.984   1.219   5.902
 1242WAT     H1 3968   5.026   1.208   5.993
 1242WAT     H2 3969   5.024   1.152   5.839
 1243WAT      O 3970   0.864   2.244   2.103
 1243WAT     H1 3971   0.781   2.257   2.050
 1243WAT     H2 3972   0.856   2.161   2.159
 1244WAT      O 3973   1.662   9.403   6.647
 1244WAT     H1 3974   1.742   9.447   6.606
 1244WAT     H2 3975   1.668   9.304   6.633
 1245WAT      O 3976   3.077   0.893   6.956
 1245WAT     H1 3977   2.980   0.909   6.971
 1245WAT     H2 3978   3.111   0.954   6.884
 1246WAT      O 3979   0.200   5.478   5.684
 1246WAT     H1 3980   0.150   5.392   5.675
 1246WAT     H2 3981   0.239   5.485   5.776
 1247WAT      O 3982   0.500   7.045   0.232
 1247WAT     H1 3983   0.443   7.102   0.172
 1247WAT     H2 3984   0.484   6.948   0.211
 1248WAT      O 3985   3.000   5.040   2.438
 1248WAT     H1 3986   3.093   5.042   2.475
 1248WAT     H2 3987   2.989   5.113   2.371
 1249WAT      O 3988   7.240   6.676   2.001
 1249WAT     H1 3989   7.316   6.735   1.972
 1249WAT     H2 3990   7.214   6.700   2.094
 1250WAT      O 3991   3.852   9.537   5.613
 1250WAT     H1 3992   3.867   9.636   5.606
 1250WAT     H2 3993   3.785   9.509   5.544
 1251WAT      O 3994   3.020   2.080   7.810
 1251WAT     H1 3995   3.107   2.032   7.796
 1251WAT     H2 3996   2.984   2.058   7.901
 1252WAT      O 3997   4.605   1.452   0.964
 1252WAT     H1 3998   4.511   1.484   0.967
 1252WAT     H2 3999   4.619   1.400   0.880
 1253WAT      O 4000   6.633   7.673   3.706
 1253WAT     H1 4001   6.555   7.712   3.754
 1253WAT     H2 4002   6.715   7.680   3.762
 1254WAT      O 4003   9.237   3.572   0.339
 1254WAT     H1 4004   9.302   3.645   0.318
 1254WAT     H2 4005   9.273   3.517   0.415
 1255WAT      O 4006   6.964   0.920   3.415
 1255WAT     H1 4007   6.909   0.837   3.425
 1255WAT     H2 4008   6.931   0.990   3.479
 1256WAT      O 4009   6.064   0.686   5.473
 1256WAT     H1 4010   6.039   0.591   5.490
 1256WAT     H2 4011   6.163   0.697   5.482
 1257WAT      O 4012   0.680   6.991   0.733
 1257WAT     H1 4013   0.686   7.086   0.703
 1257WAT     H2 4014   0.771   6.958   0.758
 1258WAT      O 4015   0.006   2.606   8.296
 1258WAT     H1 4016   0.039   2.652   8.378
 1258WAT     H2 4017   0.077   2.610   8.225
 1259WAT      O 4018   6.769   8.203   0.469
 1259WAT     H1 4019   6.726   8.260   0.399
 1259WAT     H2 4020   6.822   8.260   0.530
 1260WAT      O 4021   5.763   7.232   7.030
 1260WAT     H1 4022   5.771   7.136   7.059
 1260WAT     H2 4023   5.744   7.289   7.110
 1261WAT      O 4024   3.559   9.422   6.242
 1261WAT     H1 4025   3.565   9.478   6.324
 1261WAT     H2 4026   3.464   9.394   6.228
 1262WAT      O 4027   9.551   8.391   1.312
 1262WAT     H1 4028   9.516   8.340   1.234
 1262WAT     H2 4029   9.566   8.328   1.389
 1263WAT      O 4030   0.985   3.300   4.330
 1263WAT     H1 4031   0.926   3.234   4.375
 1263WAT     H2 4032   0.999   3.272   4.235
 1264WAT      O 4033   4.948   6.473   6.145
 1264WAT     H1 4034   4.909   6.483   6.236
 1264WAT     H2 4035   4.873   6.467   6.078
 1265WAT      O 4036   0.379   9.529   0.977
 1265WAT     H1 4037   0.284   9.532   0.946
 1265WAT     H2 4038   0.385   9.473   1.060
 1266WAT      O 4039   7.868   8.275   3.115
 1266WAT     H1 4040   7.838   8.253   3.022
 1266WAT     H2 4041   7.909   8.366   3.117
 1267WAT      O 4042   5.546   6.295   6.779
 1267WAT     H1 4043   5.450   6.268   6.779
 1267WAT     H2 4044   5.552   6.394   6.768
 1268WAT      O 4045   7.943   4.944   0.568
 1268WAT     H1 4046   7.949   4.903   0.477
 1268WAT     H2 4047   7.893   4.883   0.629
 1269WAT      O 4048   5.284   1.754   0.092
 1269WAT     H1 4049   5.317   1.676   0.146
 1269WAT     H2 4050   5.360   1.816   0.073
 1270WAT      O 4051   3.378   5.533   2.388
 1270WAT     H1 4052   3.338   5.540   2.480
 1270WAT     H2 4053   3.472   5.566   2.390
 1271WAT      O 4054   5.522   8.017   2.675
 1271WAT     H1 4055   5.504   8.052   2.767
 1271WAT     H2 4056   5.593   8.072   2.631
 1272WAT      O 4057   8.231   9.146   3.063
 1272WAT     H1 4058   8.307   9.173   3.121
 1272WAT     H2 4059   8.176   9.226   3.039
 1273WAT      O 4060   3.431   7.066   3.680
 1273WAT     H1 4061   3.474   6.976   3.672
 1273WAT     H2 4062   3.498   7.132   3.714
 1274WAT      O 4063   0.289   4.761   0.792
 1274WAT     H1 4064   0.241   4.726   0.712
 1274WAT     H2 4065   0.322   4.854   0.773
 1275WAT      O 4066   2.261   1.705   9.150
 1275WAT     H1 4067   2.195   1.778   9.133
 1275WAT     H2 4068   2.333   1.738   9.211
 1276WAT      O 4069   0.113   5.450   3.774
 1276WAT     H1 4070   0.121   5.514   3.851
 1276WAT     H2 4071   0.197   5.454   3.719
 1277WAT      O 4072   9.330   2.711   1.489
 1277WAT     H1 4073   9.375   2.635   1.443
 1277WAT     H2 4074   9.235   2.687   1.509
 1278WAT      O 4075   1.240   6.096   9.160
 1278WAT     H1 4076   1.248   6.104   9.060
 1278WAT     H2 4077   1.331   6.075   9.198
 1279WAT      O 4078   8.812   0.331   8.206
 1279WAT     H1 4079   8.843   0.254   8.262
 1279WAT     H2 4080   8.810   0.413   8.262
 1280WAT      O 4081   1.422   1.069   9.010
 1280WAT     H1 4082   1.473   0.983   9.008
 1280WAT     H2 4083   1.478   1.140   9.053
 1281WAT      O 4084   3.643   7.021   6.360
 1281WAT     H1 4085   3.731   7.067   6.369
 1281WAT     H2 4086   3.654   6.924   6.384
 1282WAT      O 4087   0.296   4.269   0.056
 1282WAT     H1 4088   0.310   4.337   0.128
 1282WAT     H2 4089   0.329   4.180   0.087
 1283WAT      O 4090   6.476   1.440   7.551
 1283WAT     H1 4091   6.481   1.410   7.455
 1283WAT     H2 4092   6.385   1.417   7.587
 1284WAT      O 4093   0.252   0.349   1.733
 1284WAT     H1 4094   0.192   0.399   1.795
 1284WAT     H2 4095   0.275   0.407   1.655
 1285WAT      O 4096   6.831   4.895   7.493
 1285WAT     H1 4097   6.860   4.799   7.491
 1285WAT     H2 4098   6.738   4.901   7.529
 1286WAT      O 4099   0.588   1.281   4.931
 1286WAT     H1 4100   0.633   1.272   4.842
 1286WAT     H2 4101   0.528   1.361   4.930
 1287WAT      O 4102   4.381   8.491   5.884
 1287WAT     H1 4103   4.474   8.467   5.857
 1287WAT     H2 4104   4.329   8.408   5.905
 1288WAT      O 4105   1.469   6.432   3.022
 1288WAT     H1 4106   1.485   6.345   3.070
 1288WAT     H2 4107   1.515   6.429   2.934
 1289WAT      O 4108   3.640   4.600   5.426
 1289WAT     H1 4109   3.552   4.566   5.392
 1289WAT     H2 4110   3.652   4.695   5.399
 1290WAT      O 4111   4.918   3.486   2.002
 1290WAT     H1 4112   4.855   3.522   1.934
 1290WAT     H2 4113   4.974   3.414   1.961
 1291WAT      O 4114   0.198   6.879   5.940
 1291WAT     H1 4115   0.270   6.926   5.989
 1291WAT     H2 4116   0.121   6.862   6.002
 1292WAT      O 4117   0.956   2.805   6.893
 1292WAT     H1 4118   0.911   2.877   6.947
 1292WAT     H2 4119   0.946   2.826   6.796
 1293WAT      O 4120   5.172   5.321   6.167
 1293WAT     H1 4121   5.271   5.320   6.174
 1293WAT     H2 4122   5.135   5.231   6.192
 1294WAT      O 4123   5.199   8.869   4.853
 1294WAT     H1 4124   5.222   8.861   4.950
 1294WAT     H2 4125   5.144   8.951   4.839
 1295WAT      O 4126   6.918   7.921   6.488
 1295WAT     H1 4127   6.842   7.931   6.551
 1295WAT     H2 4128   6.905   7.838   6.433
 1296WAT      O 4129   0.028   2.195   6.166
 1296WAT     H1 4130   0.029   2.153   6.075
 1296WAT     H2 4131   0.013   2.124   6.235
 1297WAT      O 4132   7.414   5.838   0.127
 1297WAT     H1 4133   7.324   5.864   0.162
 1297WAT     H2 4134   7.409   5.747   0.086
 1298WAT      O 4135   6.730   6.084   8.427
 1298WAT     H1 4136   6.660   6.068   8.497
 1298WAT     H2 4137   6.816   6.041   8.456
 1299WAT      O 4138   5.779   7.001   2.839
 1299WAT     H1 4139   5.728   6.932   2.787
 1299WAT     H2 4140   5.875   7.000   2.810
 1300WAT      O 4141   1.096   6.720   1.435
 1300WAT     H1 4142   1.055   6.727   1.526
 1300WAT     H2 4143   1.030   6.677   1.373
 1301WAT      O 4144   1.016   7.524   6.936
 1301WAT     H1 4145   1.104   7.564   6.961
 1301WAT     H2 4146   1.031   7.432   6.898
 1302WAT      O 4147   6.903   8.750   2.212
 1302WAT     H1 4148   6.852   8.722   2.130
 1302WAT     H2 4149   6.972   8.817   2.186
 1303WAT      O 4150   9.524   0.717   9.466
 1303WAT     H1 4151   9.598   0.763   9.515
 1303WAT     H2 4152   9.499   0.771   9.385
 1304WAT      O 4153   5.577   1.752   5.988
 1304WAT     H1 4154   5.630   1.824   5.943
 1304WAT     H2 4155   5.583   1.668   5.935
 1305WAT      O 4156   8.474   4.016   8.323
 1305WAT     H1 4157   8.451   3.926   8.361
 1305WAT     H2 4158   8.528   4.004   8.240
 1306WAT      O 4159   3.435   7.847   6.319
 1306WAT     H1 4160   3.471   7.847   6.412
 1306WAT     H2 4161   3.348   7.798   6.318
 1307WAT      O 4162   1.584   2.901   0.476
 1307WAT     H1 4163   1.634   2.898   0.389
 1307WAT     H2 4164   1.492   2.938   0.460
 1308WAT      O 4165   6.472   5.200   3.220
 1308WAT     H1 4166   6.493   5.220   3.125
 1308WAT     H2 4167   6.529   5.257   3.280
 1309WAT      O 4168   6.642   7.088   2.515
 1309WAT     H1 4169   6.578   7.023   2.558
 1309WAT     H2 4170   6.635   7.080   2.416
 1310WAT      O 4171   3.494   3.286   7.181
 1310WAT     H1 4172   3.446   3.323   7.261
 1310WAT     H2 4173   3.431   3.284   7.103
 1311WAT      O 4174   8.302   4.118   1.507
 1311WAT     H1 4175   8.379   4.151   1.561
 1311WAT     H2 4176   8.281   4.185   1.435
 1312WAT      O 4177   8.940   8.262   0.254
 1312WAT     H1 4178   8.880   8.211   0.194
 1312WAT     H2 4179   9.017   8.299   0.201
 1313WAT      O 4180   5.985   4.880   7.366
 1313WAT     H1 4181   5.973   4.782   7.350
 1313WAT     H2 4182   6.079   4.906   7.345
 1314WAT      O 4183   6.741   9.375   8.789
 1314WAT     H1 4184   6.683   9.456   8.802
 1314WAT     H2 4185   6.779   9.347   8.877
 1315WAT      O 4186   5.801   9.072   6.291
 1315WAT     H1 4187   5.863   9.147   6.267
 1315WAT     H2 4188   5.708   9.107   6.301
 1316WAT      O 4189   0.717   9.386   4.004
 1316WAT     H1 4190   0.657   9.409   4.080
 1316WAT     H2 4191   0.763   9.299   4.023
 1317WAT      O 4192   9.660   0.145   2.802
 1317WAT     H1 4193   9.757   0.118   2.804
 1317WAT     H2 4194   9.628   0.144   2.707
 1318WAT      O 4195   4.415   2.442   8.257
 1318WAT     H1 4196   4.385   2.497   8.179
 1318WAT     H2 4197   4.360   2.465   8.337
 1319WAT      O 4198   5.200   8.545   7.124
 1319WAT     H1 4199   5.218   8.606   7.047
 1319WAT     H2 4200   5.102   8.526   7.129
 1320WAT      O 4201   1.164   0.827   3.544
 1320WAT     H1 4202   1.139   0.736   3.577
 1320WAT     H2 4203   1.197   0.882   3.620
 1321WAT      O 4204   1.355   9.557   7.989
 1321WAT     H1 4205   1.406   9.641   8.009
 1321WAT     H2 4206   1.257   9.577   7.991
 1322WAT      O 4207   0.756   2.335   7.679
 1322WAT     H1 4208   0.832   2.311   7.739
 1322WAT     H2 4209   0.783   2.326   7.584
 1323WAT      O 4210   2.267   4.882   9.399
 1323WAT     H1 4211   2.339   4.925   9.453
 1323WAT     H2 4212   2.230   4.804   9.448
 1324WAT      O 4213   1.478   0.034   2.110
 1324WAT     H1 4214   1.545   0.106   2.128
 1324WAT     H2 4215   1.525  -0.052   2.089
 1325WAT      O 4216   6.425   5.256   9.022
 1325WAT     H1 4217   6.337   5.287   8.987
 1325WAT     H2 4218   6.436   5.159   9.004
 1326WAT      O 4219   8.357   6.885   6.439
 1326WAT     H1 4220   8.404   6.951   6.381
 1326WAT     H2 4221   8.267   6.921   6.466
 1327WAT      O 4222   3.438   8.714   7.275
 1327WAT     H1 4223   3.470   8.716   7.370
 1327WAT     H2 4224   3.512   8.744   7.215
 1328WAT      O 4225   4.271   4.461   2.575
 1328WAT     H1 4226   4.282   4.444   2.477
 1328WAT     H2 4227   4.351   4.511   2.609
 1329WAT      O 4228   4.971   3.298   4.491
 1329WAT     H1 4229   4.975   3.397   4.477
 1329WAT     H2 4230   5.063   3.262   4.507
 1330WAT      O 4231   6.368   3.075   6.889
 1330WAT     H1 4232   6.466   3.055   6.894
 1330WAT     H2 4233   6.326   3.020   6.817
 1331WAT      O 4234   8.377   2.261   4.215
 1331WAT     H1 4235   8.437   2.190   4.250
 1331WAT     H2 4236   8.430   2.326   4.161
 1332WAT      O 4237   3.236   2.935   3.512
 1332WAT     H1 4238   3.334   2.924   3.495
 1332WAT     H2 4239   3.194   2.983   3.435
 1333WAT      O 4240   5.287   5.283   5.539
 1333WAT     H1 4241   5.299   5.365   5.484
 1333WAT     H2 4242   5.192   5.253   5.534
 1334WAT      O 4243   8.204   5.790   9.598
 1334WAT     H1 4244   8.136   5.718   9.585
 1334WAT     H2 4245   8.230   5.794   9.695
 1335WAT      O 4246   9.601   5.886   1.977
 1335WAT     H1 4247   9.585   5.787   1.968
 1335WAT     H2 4248   9.566   5.917   2.065
 1336WAT      O 4249   6.970   7.965   4.691
 1336WAT     H1 4250   6.991   7.898   4.620
 1336WAT     H2 4251   7.056   8.001   4.729
 1337WAT      O 4252   8.691   1.422   2.045
 1337WAT     H1 4253   8.626   1.463   2.109
 1337WAT     H2 4254   8.661   1.329   2.021
 1338WAT      O 4255   9.760   6.284   4.783
 1338WAT     H1 4256   9.777   6.262   4.687
 1338WAT     H2 4257   9.748   6.383   4.793
 1339WAT      O 4258   1.945   7.172   3.422
 1339WAT     H1 4259   1.887   7.120   3.360
 1339WAT     H2 4260   1.917   7.268   3.422
 1340WAT      O 4261   7.602   9.177   4.085
 1340WAT     H1 4262   7.625   9.272   4.062
 1340WAT     H2 4263   7.667   9.115   4.041
 1341WAT      O 4264   9.014   1.194   0.026
 1341WAT     H1 4265   9.007   1.126  -0.047
 1341WAT     H2 4266   9.111   1.214   0.043
 1342WAT      O 4267   3.648   7.262   9.270
 1342WAT     H1 4268   3.731   7.267   9.214
 1342WAT     H2 4269   3.596   7.180   9.245
 1343WAT      O 4270   8.161   0.388   0.221
 1343WAT     H1 4271   8.253   0.357   0.244
 1343WAT     H2 4272   8.118   0.321   0.160
 1344WAT      O 4273   0.864   5.704   2.121
 1344WAT     H1 4274   0.791   5.747   2.067
 1344WAT     H2 4275   0.945   5.762   2.120
 1345WAT      O 4276   3.252   2.516   9.416
 1345WAT     H1 4277   3.305   2.579   9.359
 1345WAT     H2 4278   3.227   2.436   9.361
 1346WAT      O 4279   5.219   4.260   8.445
 1346WAT     H1 4280   5.274   4.307   8.377
 1346WAT     H2 4281   5.277   4.230   8.521
 1347WAT      O 4282   3.038   5.664   3.541
 1347WAT     H1 4283   3.022   5.567   3.562
 1347WAT     H2 4284   2.954   5.716   3.559
 1348WAT      O 4285   5.097   5.122   3.693
 1348WAT     H1 4286   5.080   5.121   3.595
 1348WAT     H2 4287   5.010   5.122   3.742
 1349WAT      O 4288   0.013   8.742   8.037
 1349WAT     H1 4289   0.045   8.823   8.085
 1349WAT     H2 4290  -0.038   8.770   7.955
 1350WAT      O 4291   4.855   4.070   1.530
 1350WAT     H1 4292   4.895   4.124   1.456
 1350WAT     H2 4293   4.918   3.997   1.556
 1351WAT      O 4294   2.087   5.062   7.903
 1351WAT     H1 4295   2.117   5.039   7.996
 1351WAT     H2 4296   2.062   5.159   7.899
 1352WAT      O 4297   8.910   5.357   1.709
 1352WAT     H1 4298   8.953   5.443   1.737
 1352WAT     H2 4299   8.828   5.341   1.764
 1353WAT      O 4300   4.415   5.870   9.224
 1353WAT     H1 4301   4.347   5.831   9.285
 1353WAT     H2 4302   4.501   5.884   9.273
 1354WAT      O 4303   7.495   1.049   9.604
 1354WAT     H1 4304   7.550   1.049   9.521
 1354WAT     H2 4305   7.554   1.061   9.683
 1355WAT      O 4306   5.783   2.458   7.842
 1355WAT     H1 4307   5.837   2.381   7.875
 1355WAT     H2 4308   5.768   2.448   7.743
 1356WAT      O 4309   2.191   9.701   6.155
 1356WAT     H1 4310   2.109   9.690   6.099
 1356WAT     H2 4311   2.264   9.740   6.100
 1357WAT      O 4312   4.034   4.540   6.595
 1357WAT     H1 4313   3.952   4.487   6.618
 1357WAT     H2 4314   4.108   4.478   6.570
 1358WAT      O 4315   6.395   5.097   1.587
 1358WAT     H1 4316   6.370   5.068   1.494
 1358WAT     H2 4317   6.385   5.020   1.650
 1359WAT      O 4318   3.082   0.200   7.286
 1359WAT     H1 4319   3.041   0.291   7.296
 1359WAT     H2 4320   3.094   0.180   7.188
 1360WAT      O 4321   5.406   3.595   4.970
 1360WAT     H1 4322   5.416   3.694   4.976
 1360WAT     H2 4323   5.421   3.566   4.875
 1361WAT      O 4324   1.906   2.229   1.669
 1361WAT     H1 4325   1.891   2.172   1.588
 1361WAT     H2 4326   2.003   2.252   1.676
 1362WAT      O 4327   2.330   6.050   4.305
 1362WAT     H1 4328   2.324   6.045   4.405
 1362WAT     H2 4329   2.262   6.115   4.271
 1363WAT      O 4330   7.659   1.365   1.436
 1363WAT     H1 4331   7.642   1.269   1.458
 1363WAT     H2 4332   7.659   1.419   1.520
 1364WAT      O 4333   7.436   2.228   5.864
 1364WAT     H1 4334   7.472   2.153   5.808
 1364WAT     H2 4335   7.369   2.192   5.929
 1365WAT      O 4336   4.049   8.807   2.451
 1365WAT     H1 4337   4.016   8.866   2.377
 1365WAT     H2 4338   4.141   8.837   2.479
 1366WAT      O 4339   3.242   6.120   3.098
 1366WAT     H1 4340   3.193   6.174   3.166
 1366WAT     H2 4341   3.221   6.154   3.006
 1367WAT      O 4342   7.306   8.056   9.169
 1367WAT     H1 4343   7.271   7.986   9.108
 1367WAT     H2 4344   7.333   8.136   9.117
 1368WAT      O 4345   5.787   0.636   8.236
 1368WAT     H1 4346   5.824   0.693   8.163
 1368WAT     H2 4347   5.835   0.656   8.321
 1369WAT      O 4348   4.444   8.402   2.235
 1369WAT     H1 4349   4.461   8.478   2.172
 1369WAT     H2 4350   4.512   8.330   2.218
 1370WAT      O 4351   8.972   4.483   7.994
 1370WAT     H1 4352   8.925   4.424   7.929
 1370WAT     H2 4353   8.924   4.481   8.082
 1371WAT      O 4354   6.589   6.365   6.541
 1371WAT     H1 4355   6.616   6.423   6.618
 1371WAT     H2 4356   6.551   6.280   6.576
 1372WAT      O 4357   2.884   3.100   6.455
 1372WAT     H1 4358   2.911   3.059   6.367
 1372WAT     H2 4359   2.941   3.181   6.472
 1373WAT      O 4360   5.956   0.616   1.755
 1373WAT     H1 4361   5.959   0.517   1.737
 1373WAT     H2 4362   5.905   0.661   1.681
 1374WAT      O 4363   2.915   4.250   2.706
 1374WAT     H1 4364   2.853   4.305   2.650
 1374WAT     H2 4365   2.979   4.309   2.754
 1375WAT      O 4366   1.686   4.081   2.616
 1375WAT     H1 4367   1.739   4.014   2.564
 1375WAT     H2 4368   1.591   4.050   2.623
 1376WAT      O 4369   6.474   4.523   0.743
 1376WAT     H1 4370   6.376   4.539   0.757
 1376WAT     H2 4371   6.487   4.452   0.674
 1377WAT      O 4372   0.795   4.075   9.705
 1377WAT     H1 4373   0.873   4.022   9.738
 1377WAT     H2 4374   0.816   4.112   9.614
 1378WAT      O 4375   0.894   3.953   3.897
 1378WAT     H1 4376   0.936   3.911   3.816
 1378WAT     H2 4377   0.804   3.913   3.912
 1379WAT      O 4378   4.547   5.626   0.559
 1379WAT     H1 4379   4.551   5.583   0.469
 1379WAT     H2 4380   4.636   5.666   0.580
 1380WAT      O 4381   7.317   9.429   2.843
 1380WAT     H1 4382   7.317   9.529   2.834
 1380WAT     H2 4383   7.257   9.390   2.773
 1381WAT      O 4384   9.431   7.972   3.203
 1381WAT     H1 4385   9.366   7.921   3.259
 1381WAT     H2 4386   9.410   7.959   3.106
 1382WAT      O 4387   4.344   0.176   9.883
 1382WAT     H1 4388   4.414   0.186   9.812
 1382WAT     H2 4389   4.357   0.247   9.953
 1383WAT      O 4390   2.758   2.082   5.052
 1383WAT     H1 4391   2.811   2.146   4.997
 1383WAT     H2 4392   2.711   2.018   4.993
 1384WAT      O 4393   4.207   3.710   9.208
 1384WAT     H1 4394   4.214   3.610   9.203
 1384WAT     H2 4395   4.245   3.741   9.295
 1385WAT      O 4396   9.801   2.974   4.079
 1385WAT     H1 4397   9.800   2.886   4.127
 1385WAT     H2 4398   9.780   2.959   3.982
 1386WAT      O 4399   7.764   9.084   5.913
 1386WAT     H1 4400   7.698   9.093   5.838
 1386WAT     H2 4401   7.719   9.041   5.991
 1387WAT      O 4402   7.342   5.846   9.680
 1387WAT     H1 4403   7.437   5.817   9.679
 1387WAT     H2 4404   7.284   5.775   9.640
 1388WAT      O 4405   1.023   1.705   5.880
 1388WAT     H1 4406   1.102   1.759   5.854
 1388WAT     H2 4407   0.964   1.691   5.800
 1389WAT      O 4408   7.375   3.664   5.654
 1389WAT     H1 4409   7.373   3.628   5.560
 1389WAT     H2 4410   7.314   3.743   5.660
 1390WAT      O 4411   7.662   2.094   5.483
 1390WAT     H1 4412   7.700   2.183   5.509
 1390WAT     H2 4413   7.597   2.105   5.409
 1391WAT      O 4414   8.840   6.963   4.857
 1391WAT     H1 4415   8.794   7.003   4.778
 1391WAT     H2 4416   8.934   6.996   4.862
 1392WAT      O 4417   2.089   9.658   7.873
 1392WAT     H1 4418   2.031   9.738   7.861
 1392WAT     H2 4419   2.037   9.576   7.849
 1393WAT      O 4420   4.726   5.057   5.399
 1393WAT     H1 4421   4.707   5.154   5.384
 1393WAT     H2 4422   4.755   5.015   5.313
 1394WAT      O 4423   8.052   3.860   3.997
 1394WAT     H1 4424   8.033   3.778   4.051
 1394WAT     H2 4425   8.110   3.836   3.919
 1395WAT      O 4426   3.927   4.933   6.047
 1395WAT     H1 4427   3.928   5.029   6.077
 1395WAT     H2 4428   3.948   4.929   5.949
 1396WAT      O 4429   3.361   1.435   5.411
 1396WAT     H1 4430   3.335   1.497   5.336
 1396WAT     H2 4431   3.296   1.359   5.414
 1397WAT      O 4432   3.953   2.383   4.941
 1397WAT     H1 4433   4.046   2.347   4.948
 1397WAT     H2 4434   3.928   2.394   4.845
 1398WAT      O 4435   5.435   7.959   6.114
 1398WAT     H1 4436   5.400   8.051   6.097
 1398WAT     H2 4437   5.501   7.962   6.189
 1399WAT      O 4438   2.503   8.805   4.339
 1399WAT     H1 4439   2.435   8.750   4.290
 1399WAT     H2 4440   2.594   8.787   4.303
 1400WAT      O 4441   4.134   1.995   9.304
 1400WAT     H1 4442   4.189   2.078   9.313
 1400WAT     H2 4443   4.042   2.012   9.338
 1401WAT      O 4444   7.818   3.021   1.938
 1401WAT     H1 4445   7.878   3.062   1.870
 1401WAT     H2 4446   7.863   3.024   2.028
 1402WAT      O 4447   6.689   1.933   1.529
 1402WAT     H1 4448   6.726   1.981   1.450
 1402WAT     H2 4449   6.590   1.948   1.533
 1403WAT      O 4450   2.290   4.256   6.150
 1403WAT     H1 4451   2.375   4.212   6.177
 1403WAT     H2 4452   2.213   4.209   6.194
 1404WAT      O 4453   9.356   2.286   9.026
 1404WAT     H1 4454   9.296   2.346   9.080
 1404WAT     H2 4455   9.439   2.267   9.078
 1405WAT      O 4456   2.603   7.939   4.376
 1405WAT     H1 4457   2.619   7.911   4.470
 1405WAT     H2 4458   2.691   7.957   4.332
 1406WAT      O 4459   3.422   1.514   1.153
 1406WAT     H1 4460   3.430   1.565   1.068
 1406WAT     H2 4461   3.429   1.577   1.231
 1407WAT      O 4462   7.720   7.049   0.970
 1407WAT     H1 4463   7.701   7.139   1.010
 1407WAT     H2 4464   7.638   6.992   0.978
 1408WAT      O 4465   2.324   5.801   0.615
 1408WAT     H1 4466   2.380   5.872   0.572
 1408WAT     H2 4467   2.236   5.840   0.640
 1409WAT      O 4468   5.102   2.832   6.712
 1409WAT     H1 4469   5.044   2.895   6.764
 1409WAT     H2 4470   5.047   2.788   6.641
 1410WAT      O 4471   3.742   8.132   5.186
 1410WAT     H1 4472   3.685   8.060   5.147
 1410WAT     H2 4473   3.701   8.164   5.271
 1411WAT      O 4474   4.381   7.097   8.562
 1411WAT     H1 4475   4.291   7.140   8.557
 1411WAT     H2 4476   4.451   7.168   8.568
 1412WAT      O 4477   3.698   0.103   2.475
 1412WAT     H1 4478   3.602   0.083   2.455
 1412WAT     H2 4479   3.737   0.031   2.532
 1413WAT      O 4480   1.297   6.619   1.999
 1413WAT     H1 4481   1.288   6.661   2.089
 1413WAT     H2 4482   1.378   6.561   1.997
 1414WAT      O 4483   9.782   1.232   4.758
 1414WAT     H1 4484   9.740   1.193   4.840
 1414WAT     H2 4485   9.871   1.191   4.742
 1415WAT      O 4486   8.080   3.276   5.588
 1415WAT     H1 4487   8.009   3.277   5.518
 1415WAT     H2 4488   8.073   3.193   5.643
 1416WAT      O 4489   2.511   7.150   4.430
 1416WAT     H1 4490   2.482   7.095   4.352
 1416WAT     H2 4491   2.525   7.245   4.400
 1417WAT      O 4492   4.789   8.887   5.223
 1417WAT     H1 4493   4.820   8.921   5.312
 1417WAT     H2 4494   4.732   8.957   5.179
 1418WAT      O 4495   3.951   6.284   9.564
 1418WAT     H1 4496   3.870   6.227   9.571
 1418WAT     H2 4497   3.953   6.329   9.475
 1419WAT      O 4498   3.190   8.156   0.110
 1419WAT     H1 4499   3.227   8.249   0.105
 1419WAT     H2 4500   3.254   8.093   0.064
 1420WAT      O 4501   9.387   5.130   1.527
 1420WAT     H1 4502   9.300   5.151   1.572
 1420WAT     H2 4503   9.376   5.049   1.470
 1421WAT      O 4504   7.177   4.750   6.197
 1421WAT     H1 4505   7.216   4.715   6.281
 1421WAT     H2 4506   7.161   4.848   6.206
 1422WAT      O 4507   0.590   7.679   1.215
 1422WAT     H1 4508   0.536   7.611   1.265
 1422WAT     H2 4509   0.529   7.738   1.162
 1423WAT      O 4510   6.929   7.689   7.978
 1423WAT     H1 4511   6.945   7.593   7.954
 1423WAT     H2 4512   7.007   7.745   7.949
 1424WAT      O 4513   7.644   3.462   4.630
 1424WAT     H1 4514   7.722   3.399   4.635
 1424WAT     H2 4515   7.562   3.416   4.663
 1425WAT      O 4516   0.326   0.151   8.656
 1425WAT     H1 4517   0.395   0.191   8.717
 1425WAT     H2 4518   0.333   0.193   8.566
 1426WAT      O 4519   8.611   0.260   9.433
 1426WAT     H1 4520   8.576   0.350   9.408
 1426WAT     H2 4521   8.700   0.246   9.390
 1427WAT      O 4522   5.017   8.353   1.684
 1427WAT     H1 4523   5.114   8.331   1.670
 1427WAT     H2 4524   4.973   8.363   1.595
 1428WAT      O 4525   7.376   5.763   5.900
 1428WAT     H1 4526   7.452   5.711   5.861
 1428WAT     H2 4527   7.379   5.857   5.867
 1429WAT      O 4528   3.942   4.874   7.530
 1429WAT     H1 4529   3.890   4.925   7.598
 1429WAT     H2 4530   3.944   4.925   7.444
 1430WAT      O 4531   2.658   7.117   3.708
 1430WAT     H1 4532   2.685   7.064   3.789
 1430WAT     H2 4533   2.588   7.067   3.658
 1431WAT      O 4534   8.157   1.100   9.791
 1431WAT     H1 4535   8.220   1.091   9.714
 1431WAT     H2 4536   8.197   1.160   9.860
 1432WAT      O 4537   7.052   9.481   2.141
 1432WAT     H1 4538   7.022   9.491   2.046
 1432WAT     H2 4539   7.092   9.390   2.154
 1433WAT      O 4540   5.783   8.453   2.763
 1433WAT     H1 4541   5.725   8.533   2.748
 1433WAT     H2 4542   5.725   8.373   2.782
 1434WAT      O 4543   6.869   8.421   7.096
 1434WAT     H1 4544   6.871   8.345   7.031
 1434WAT     H2 4545   6.780   8.423   7.142
 1435WAT      O 4546   3.941   1.339   3.773
 1435WAT     H1 4547   4.015   1.366   3.835
 1435WAT     H2 4548   3.920   1.242   3.786
 1436WAT      O 4549   6.780   1.609   8.491
 1436WAT     H1 4550   6.803   1.621   8.394
 1436WAT     H2 4551   6.707   1.673   8.516
 1437WAT      O 4552   9.536   3.460   0.230
 1437WAT     H1 4553   9.445   3.434   0.199
 1437WAT     H2 4554   9.605   3.408   0.179
 1438WAT      O 4555   2.469   3.152   5.426
 1438WAT     H1 4556   2.438   3.069   5.474
 1438WAT     H2 4557   2.480   3.226   5.492
 1439WAT      O 4558   4.292   0.721   3.605
 1439WAT     H1 4559   4.224   0.700   3.676
 1439WAT     H2 4560   4.307   0.641   3.549
 1440WAT      O 4561   8.613   2.854   6.658
 1440WAT     H1 4562   8.607   2.919   6.582
 1440WAT     H2 4563   8.607   2.760   6.622
 1441WAT      O 4564   4.146   6.224   5.828
 1441WAT     H1 4565   4.051   6.241   5.857
 1441WAT     H2 4566   4.155   6.245   5.731
 1442WAT      O 4567   3.534   0.308   1.123
 1442WAT     H1 4568   3.628   0.276   1.135
 1442WAT     H2 4569   3.493   0.262   1.044
 1443WAT      O 4570   2.545   1.853   8.802
 1443WAT     H1 4571   2.616   1.810   8.860
 1443WAT     H2 4572   2.481   1.783   8.771
 1444WAT      O 4573   7.285   8.770   0.798
 1444WAT     H1 4574   7.329   8.859   0.809
 1444WAT     H2 4575   7.187   8.780   0.812
 1445WAT      O 4576   3.570   0.310   3.331
 1445WAT     H1 4577   3.527   0.314   3.240
 1445WAT     H2 4578   3.550   0.222   3.373
 1446WAT      O 4579   0.802   7.398   3.584
 1446WAT     H1 4580   0.787   7.493   3.611
 1446WAT     H2 4581   0.730   7.340   3.624
 1447WAT      O 4582   8.784   6.377   1.674
 1447WAT     H1 4583   8.877   6.341   1.663
 1447WAT     H2 4584   8.785   6.453   1.738
 1448WAT      O 4585   2.125   5.313   8.261
 1448WAT     H1 4586   2.027   5.330   8.253
 1448WAT     H2 4587   2.144   5.216   8.242
 1449WAT      O 4588   2.075   6.192   9.270
 1449WAT     H1 4589   2.025   6.217   9.354
 1449WAT     H2 4590   2.033   6.110   9.230
 1450WAT      O 4591   0.608   7.241   3.679
 1450WAT     H1 4592   0.550   7.290   3.745
 1450WAT     H2 4593   0.625   7.148   3.712
 1451WAT      O 4594   3.141   1.931   9.001
 1451WAT     H1 4595   3.205   2.001   8.970
 1451WAT     H2 4596   3.087   1.898   8.923
 1452WAT      O 4597   3.158   0.857   3.127
 1452WAT     H1 4598   3.062   0.849   3.097
 1452WAT     H2 4599   3.160   0.881   3.224
 1453WAT      O 4600   4.266   7.946   1.159
 1453WAT     H1 4601   4.297   7.996   1.078
 1453WAT     H2 4602   4.247   8.011   1.233
 1454WAT      O 4603   5.222   8.014   8.717
 1454WAT     H1 4604   5.264   7.923   8.715
 1454WAT     H2 4605   5.222   8.048   8.811
 1455WAT      O 4606   2.087   1.095   4.151
 1455WAT     H1 4607   2.040   1.162   4.094
 1455WAT     H2 4608   2.111   1.015   4.096
 1456WAT      O 4609   1.904   7.593   1.103
 1456WAT     H1 4610   1.965   7.515   1.084
 1456WAT     H2 4611   1.879   7.594   1.199
 1457WAT      O 4612   5.940   2.226   1.980
 1457WAT     H1 4613   6.005   2.225   2.056
 1457WAT     H2 4614   5.861   2.282   2.004
 1458WAT      O 4615   4.398   8.530   0.187
 1458WAT     H1 4616   4.470   8.598   0.179
 1458WAT     H2 4617   4.374   8.517   0.283
 1459WAT      O 4618   0.687   1.249   1.904
 1459WAT     H1 4619   0.775   1.232   1.949
 1459WAT     H2 4620   0.689   1.336   1.856
 1460WAT      O 4621   1.980   6.455   9.047
 1460WAT     H1 4622   1.918   6.502   8.984
 1460WAT     H2 4623   1.975   6.357   9.032
 1461WAT      O 4624   2.832   3.773   6.156
 1461WAT     H1 4625   2.854   3.858   6.204
 1461WAT     H2 4626   2.819   3.792   6.059
 1462WAT      O 4627   2.855   9.809   3.176
 1462WAT     H1 4628   2.835   9.894   3.127
 1462WAT     H2 4629   2.909   9.829   3.258
 1463WAT      O 4630   8.687   3.977   3.669
 1463WAT     H1 4631   8.716   3.908   3.735
 1463WAT     H2 4632   8.763   4.038   3.648
 1464WAT      O 4633   6.000   4.457   9.470
 1464WAT     H1 4634   6.065   4.384   9.453
 1464WAT     H2 4635   5.943   4.472   9.389
 1465WAT      O 4636   2.967   3.885   4.685
 1465WAT     H1 4637   2.912   3.957   4.728
 1465WAT     H2 4638   2.941   3.876   4.589
 1466WAT      O 4639   7.145   1.541   4.730
 1466WAT     H1 4640   7.107   1.473   4.794
 1466WAT     H2 4641   7.192   1.612   4.781
 1467WAT      O 4642   1.743   8.268   2.155
 1467WAT     H1 4643   1.758   8.221   2.068
 1467WAT     H2 4644   1.829   8.272   2.206
 1468WAT      O 4645   2.613   3.742   6.693
 1468WAT     H1 4646   2.629   3.703   6.784
 1468WAT     H2 4647   2.699   3.775   6.655
 1469WAT      O 4648   6.117   8.283   8.233
 1469WAT     H1 4649   6.118   8.378   8.202
 1469WAT     H2 4650   6.207   8.259   8.270
 1470WAT      O 4651   3.835   0.030   3.081
 1470WAT     H1 4652   3.853   0.093   3.157
 1470WAT     H2 4653   3.914   0.029   3.019
 1471WAT      O 4654   3.405   2.323   1.365
 1471WAT     H1 4655   3.387   2.373   1.279
 1471WAT     H2 4656   3.400   2.387   1.442
 1472WAT      O 4657   4.970   4.471   3.260
 1472WAT     H1 4658   5.068   4.484   3.242
 1472WAT     H2 4659   4.925   4.560   3.262
 1473WAT      O 4660   7.333   0.704   1.032
 1473WAT     H1 4661   7.337   0.804   1.038
 1473WAT     H2 4662   7.366   0.675   0.942
 1474WAT      O 4663   0.650   6.411   4.675
 1474WAT     H1 4664   0.680   6.374   4.588
 1474WAT     H2 4665   0.717   6.391   4.746
 1475WAT      O 4666   3.406   7.430   8.429
 1475WAT     H1 4667   3.405   7.336   8.461
 1475WAT     H2 4668   3.319   7.474   8.453
 1476WAT      O 4669   0.372   8.568   2.087
 1476WAT     H1 4670   0.358   8.541   1.992
 1476WAT     H2 4671   0.292   8.620   2.119
 1477WAT      O 4672   5.376   8.916   3.993
 1477WAT     H1 4673   5.311   8.842   4.009
 1477WAT     H2 4674   5.428   8.934   4.076
 1478WAT      O 4675   2.916   3.661   5.042
 1478WAT     H1 4676   2.958   3.665   4.952
 1478WAT     H2 4677   2.915   3.566   5.074
 1479WAT      O 4678   9.187   5.113   0.698
 1479WAT     H1 4679   9.248   5.191   0.685
 1479WAT     H2 4680   9.137   5.123   0.784
 1480WAT      O 4681   0.074   9.140   2.332
 1480WAT     H1 4682   0.051   9.163   2.238
 1480WAT     H2 4683   0.157   9.084   2.334
 1481WAT      O 4684   5.153   2.466   3.989
 1481WAT     H1 4685   5.106   2.403   4.052
 1481WAT     H2 4686   5.223   2.416   3.938
 1482WAT      O 4687   7.541   2.921   4.602
 1482WAT     H1 4688   7.597   2.845   4.635
 1482WAT     H2 4689   7.593   3.006   4.608
 1483WAT      O 4690   1.505   0.021   4.257
 1483WAT     H1 4691   1.530   0.105   4.306
 1483WAT     H2 4692   1.431  -0.025   4.306
 1484WAT      O 4693   4.259   6.460   6.427
 1484WAT     H1 4694   4.358   6.446   6.421
 1484WAT     H2 4695   4.233   6.470   6.523
 1485WAT      O 4696   8.582   0.323   8.446
 1485WAT     H1 4697   8.530   0.374   8.515
 1485WAT     H2 4698   8.668   0.370   8.426
 1486WAT      O 4699   8.028   3.386   0.213
 1486WAT     H1 4700   8.003   3.391   0.309
 1486WAT     H2 4701   8.103   3.450   0.195
 1487WAT      O 4702   8.964   9.616   3.267
 1487WAT     H1 4703   9.059   9.647   3.266
 1487WAT     H2 4704   8.935   9.597   3.173
 1488WAT      O 4705   0.595   3.254   1.195
 1488WAT     H1 4706   0.593   3.186   1.269
 1488WAT     H2 4707   0.502   3.286   1.177
 1489WAT      O 4708   7.004   4.298   8.868
 1489WAT     H1 4709   6.929   4.287   8.802
 1489WAT     H2 4710   6.967   4.299   8.961
 1490WAT      O 4711   2.953   7.004   0.928
 1490WAT     H1 4712   2.998   6.918   0.905
 1490WAT     H2 4713   2.900   6.993   1.012
 1491WAT      O 4714   6.167   9.196   2.410
 1491WAT     H1 4715   6.189   9.292   2.396
 1491WAT     H2 4716   6.077   9.176   2.370
 1492WAT      O 4717   9.470   9.240   4.366
 1492WAT     H1 4718   9.549   9.216   4.309
 1492WAT     H2 4719   9.414   9.308   4.319
 1493WAT      O 4720   0.225   0.407   9.791
 1493WAT     H1 4721   0.158   0.380   9.860
 1493WAT     H2 4722   0.317   0.398   9.829
 1494WAT      O 4723   8.024   8.561   6.576
 1494WAT     H1 4724   8.122   8.572   6.593
 1494WAT     H2 4725   7.987   8.490   6.636
 1495WAT      O 4726   6.742   4.366   2.474
 1495WAT     H1 4727   6.829   4.360   2.525
 1495WAT     H2 4728   6.715   4.462   2.466
 1496WAT      O 4729   4.329   4.815   1.721
 1496WAT     H1 4730   4.253   4.870   1.687
 1496WAT     H2 4731   4.344   4.836   1.818
 1497WAT      O 4732   8.955   0.279   4.101
 1497WAT     H1 4733   8.987   0.315   4.189
 1497WAT     H2 4734   8.859   0.303   4.089
 1498WAT      O 4735   1.989   0.111   9.195
 1498WAT     H1 4736   2.085   0.138   9.193
 1498WAT     H2 4737   1.935   0.179   9.243
 1499WAT      O 4738   5.600   9.693   9.356
 1499WAT     H1 4739   5.623   9.669   9.450
 1499WAT     H2 4740   5.670   9.753   9.319
 1500WAT      O 4741   0.788   8.988   0.287
 1500WAT     H1 4742   0.786   9.071   0.232
 1500WAT     H2 4743   0.751   8.911   0.234
 1501WAT      O 4744   8.597   7.950   1.875
 1501WAT     H1 4745   8.633   8.019   1.813
 1501WAT     H2 4746   8.619   7.859   1.841
 1502WAT      O 4747   2.621   5.369   6.121
 1502WAT     H1 4748   2.526   5.374   6.152
 1502WAT     H2 4749   2.671   5.304   6.177
 1503WAT      O 4750   5.771   1.552   6.811
 1503WAT     H1 4751   5.859   1.581   6.774
 1503WAT     H2 4752   5.736   1.623   6.872
 1504WAT      O 4753   5.446   3.448   1.991
 1504WAT     H1 4754   5.433   3.358   2.033
 1504WAT     H2 4755   5.494   3.508   2.056
 1505WAT      O 4756   1.309   9.726   4.421
 1505WAT     H1 4757   1.225   9.767   4.457
 1505WAT     H2 4758   1.349   9.666   4.490
 1506WAT      O 4759   7.715   4.023   6.921
 1506WAT     H1 4760   7.668   4.042   7.007
 1506WAT     H2 4761   7.650   4.029   6.846
 1507WAT      O 4762   5.955   3.959   7.556
 1507WAT     H1 4763   5.956   3.892   7.481
 1507WAT     H2 4764   6.047   3.993   7.570
 1508WAT      O 4765   6.545   6.879   5.271
 1508WAT     H1 4766   6.495   6.794   5.286
 1508WAT     H2 4767   6.498   6.954   5.317
 1509WAT      O 4768   8.378   4.321   5.155
 1509WAT     H1 4769   8.384   4.362   5.064
 1509WAT     H2 4770   8.294   4.267   5.162
 1510WAT      O 4771   9.142   7.530   4.308
 1510WAT     H1 4772   9.196   7.611   4.283
 1510WAT     H2 4773   9.203   7.461   4.347
 1511WAT      O 4774   8.277   4.989   6.472
 1511WAT     H1 4775   8.341   4.915   6.452
 1511WAT     H2 4776   8.208   4.957   6.536
 1512WAT      O 4777   2.762   7.848   9.559
 1512WAT     H1 4778   2.743   7.774   9.494
 1512WAT     H2 4779   2.692   7.918   9.550
 1513WAT      O 4780   3.384   6.718   3.032
 1513WAT     H1 4781   3.295   6.748   2.997
 1513WAT     H2 4782   3.447   6.795   3.034
 1514WAT      O 4783   9.351   7.687   2.940
 1514WAT     H1 4784   9.299   7.769   2.963
 1514WAT     H2 4785   9.446   7.699   2.966
 1515WAT      O 4786   1.230   4.452   4.473
 1515WAT     H1 4787   1.145   4.443   4.421
 1515WAT     H2 4788   1.266   4.545   4.463
 1516WAT      O 4789   8.276   4.455   9.305
 1516WAT     H1 4790   8.243   4.518   9.234
 1516WAT     H2 4791   8.250   4.490   9.395
 1517WAT      O 4792   5.873   8.490   0.693
 1517WAT     H1 4793   5.791   8.443   0.726
 1517WAT     H2 4794   5.950   8.470   0.753
 1518WAT      O 4795   1.465   8.190   9.444
 1518WAT     H1 4796   1.372   8.179   9.410
 1518WAT     H2 4797   1.498   8.282   9.422
 1519WAT      O 4798   1.894   7.222   2.798
 1519WAT     H1 4799   1.896   7.283   2.876
 1519WAT     H2 4800   1.958   7.255   2.728
 1520WAT      O 4801   7.301   8.718   4.262
 1520WAT     H1 4802   7.285   8.646   4.195
 1520WAT     H2 4803   7.351   8.793   4.218
 1521WAT      O 4804   9.084   0.891   2.916
 1521WAT     H1 4805   9.136   0.809   2.891
 1521WAT     H2 4806   9.028   0.920   2.839
 1522WAT      O 4807   0.083   8.503   4.955
 1522WAT     H1 4808  -0.005   8.456   4.967
 1522WAT     H2 4809   0.108   8.550   5.039
 1523WAT      O 4810   1.617   1.185   0.213
 1523WAT     H1 4811   1.617   1.088   0.189
 1523WAT     H2 4812   1.620   1.195   0.312
 1524WAT      O 4813   2.357   9.698   3.946
 1524WAT     H1 4814   2.305   9.755   4.011
 1524WAT     H2 4815   2.295   9.633   3.902
 1525WAT      O 4816   7.966   6.364   9.883
 1525WAT     H1 4817   8.020   6.449   9.881
 1525WAT     H2 4818   8.020   6.289   9.846
 1526WAT      O 4819   4.120   1.305   7.715
 1526WAT     H1 4820   4.212   1.299   7.754
 1526WAT     H2 4821   4.115   1.382   7.652
 1527WAT      O 4822   5.698   8.952   3.331
 1527WAT     H1 4823   5.743   8.968   3.243
 1527WAT     H2 4824   5.685   9.039   3.378
 1528WAT      O 4825   1.089   5.247   7.627
 1528WAT     H1 4826   1.185   5.275   7.628
 1528WAT     H2 4827   1.044   5.277   7.712
 1529WAT      O 4828   5.491   0.490   0.559
 1529WAT     H1 4829   5.529   0.456   0.474
 1529WAT     H2 4830   5.391   0.483   0.557
 1530WAT      O 4831   0.409   1.675   8.183
 1530WAT     H1 4832   0.504   1.677   8.151
 1530WAT     H2 4833   0.407   1.674   8.283
 1531WAT      O 4834   6.959   5.885   7.284
 1531WAT     H1 4835   6.919   5.963   7.236
 1531WAT     H2 4836   6.991   5.914   7.374
 1532WAT      O 4837   5.083   6.175   2.826
 1532WAT     H1 4838   5.091   6.176   2.925
 1532WAT     H2 4839   4.988   6.193   2.800
 1533WAT      O 4840   6.228   7.405   9.545
 1533WAT     H1 4841   6.222   7.401   9.645
 1533WAT     H2 4842   6.140   7.437   9.508
 1534WAT      O 4843   5.411   0.354   5.766
 1534WAT     H1 4844   5.506   0.323   5.770
 1534WAT     H2 4845   5.377   0.369   5.859
 1535WAT      O 4846   9.491   5.695   6.813
 1535WAT     H1 4847   9.525   5.786   6.792
 1535WAT     H2 4848   9.492   5.681   6.912
 1536WAT      O 4849   8.533   8.598   4.996
 1536WAT     H1 4850   8.572   8.544   4.922
 1536WAT     H2 4851   8.605   8.651   5.041
 1537WAT      O 4852   9.070   1.020   0.505
 1537WAT     H1 4853   9.084   1.081   0.428
 1537WAT     H2 4854   9.002   0.950   0.480
 1538WAT      O 4855   5.703   8.878   9.695
 1538WAT     H1 4856   5.788   8.843   9.655
 1538WAT     H2 4857   5.657   8.936   9.628
 1539WAT      O 4858   1.374   7.227   9.329
 1539WAT     H1 4859   1.381   7.141   9.278
 1539WAT     H2 4860   1.434   7.223   9.409
 1540WAT      O 4861   5.608   3.853   6.066
 1540WAT     H1 4862   5.593   3.952   6.061
 1540WAT     H2 4863   5.587   3.813   5.977
 1541WAT      O 4864   1.758   5.625   7.768
 1541WAT     H1 4865   1.827   5.674   7.821
 1541WAT     H2 4866   1.729   5.544   7.819
 1542WAT      O 4867   5.088   4.254   6.049
 1542WAT     H1 4868   4.990   4.271   6.054
 1542WAT     H2 4869   5.122   4.226   6.139
 1543WAT      O 4870   5.398   4.624   0.453
 1543WAT     H1 4871   5.391   4.699   0.388
 1543WAT     H2 4872   5.455   4.651   0.531
 1544WAT      O 4873   4.861   3.864   6.796
 1544WAT     H1 4874   4.934   3.907   6.743
 1544WAT     H2 4875   4.774   3.904   6.771
 1545WAT      O 4876   1.972   2.942   7.967
 1545WAT     H1 4877   1.890   2.885   7.969
 1545WAT     H2 4878   1.960   3.020   8.027
 1546WAT      O 4879   4.373   3.593   6.945
 1546WAT     H1 4880   4.340   3.684   6.923
 1546WAT     H2 4881   4.390   3.542   6.860
 1547WAT      O 4882   4.740   6.082   0.503
 1547WAT     H1 4883   4.764   5.991   0.537
 1547WAT     H2 4884   4.649   6.079   0.461
 1548WAT      O 4885   0.587   0.151   4.961
 1548WAT     H1 4886   0.680   0.179   4.984
 1548WAT     H2 4887   0.590   0.077   4.894
 1549WAT      O 4888   7.417   4.826   1.493
 1549WAT     H1 4889   7.387   4.811   1.587
 1549WAT     H2 4890   7.360   4.897   1.451
 1550WAT      O 4891   5.829   7.533   5.846
 1550WAT     H1 4892   5.840   7.632   5.842
 1550WAT     H2 4893   5.880   7.497   5.925
 1551WAT      O 4894   4.369   5.473   0.002
 1551WAT     H1 4895   4.408   5.559   0.036
 1551WAT     H2 4896   4.435   5.429  -0.059
 1552WAT      O 4897   9.011   5.334   3.436
 1552WAT     H1 4898   9.004   5.234   3.446
 1552WAT     H2 4899   8.992   5.358   3.341
 1553WAT      O 4900   7.951   9.725   8.795
 1553WAT     H1 4901   8.000   9.729   8.708
 1553WAT     H2 4902   8.016   9.713   8.869
 1554WAT      O 4903   3.866   7.645   7.164
 1554WAT     H1 4904   3.938   7.664   7.231
 1554WAT     H2 4905   3.795   7.589   7.207
 1555WAT      O 4906   4.524   0.552   0.191
 1555WAT     H1 4907   4.603   0.516   0.142
 1555WAT     H2 4908   4.553   0.590   0.279
 1556WAT      O 4909   5.529   9.243   2.126
 1556WAT     H1 4910   5.532   9.281   2.034
 1556WAT     H2 4911   5.613   9.192   2.144
 1557WAT      O 4912   8.252   3.790   8.379
 1557WAT     H1 4913   8.159   3.827   8.386
 1557WAT     H2 4914   8.260   3.734   8.297
 1558WAT      O 4915   5.457   3.988   4.350
 1558WAT     H1 4916   5.522   3.936   4.293
 1558WAT     H2 4917   5.393   3.925   4.394
 1559WAT      O 4918   7.430   7.623   6.213
 1559WAT     H1 4919   7.406   7.649   6.307
 1559WAT     H2 4920   7.429   7.704   6.155
 1560WAT      O 4921   5.461   0.743   1.402
 1560WAT     H1 4922   5.367   0.773   1.392
 1560WAT     H2 4923   5.468   0.676   1.476
 1561WAT      O 4924   6.196   2.919   1.127
 1561WAT     H1 4925   6.155   3.010   1.122
 1561WAT     H2 4926   6.267   2.911   1.057
 1562WAT      O 4927   4.962   0.719   7.671
 1562WAT     H1 4928   5.017   0.735   7.589
 1562WAT     H2 4929   4.994   0.779   7.745
 1563WAT      O 4930   9.233   9.155   6.770
 1563WAT     H1 4931   9.172   9.221   6.814
 1563WAT     H2 4932   9.300   9.203   6.714
 1564WAT      O 4933   0.576   5.704   8.232
 1564WAT     H1 4934   0.644   5.683   8.302
 1564WAT     H2 4935   0.550   5.800   8.238
 1565WAT      O 4936   1.468   4.915   3.164
 1565WAT     H1 4937   1.370   4.909   3.146
 1565WAT     H2 4938   1.503   5.003   3.131
 1566WAT      O 4939   5.459   6.691   7.299
 1566WAT     H1 4940   5.539   6.652   7.345
 1566WAT     H2 4941   5.481   6.709   7.204
 1567WAT      O 4942   6.262   8.491   6.909
 1567WAT     H1 4943   6.357   8.520   6.909
 1567WAT     H2 4944   6.225   8.497   6.816
 1568WAT      O 4945   3.271   8.927   7.523
 1568WAT     H1 4946   3.302   9.017   7.494
 1568WAT     H2 4947   3.179   8.910   7.487
 1569WAT      O 4948   6.786   1.689   6.947
 1569WAT     H1 4949   6.777   1.727   6.855
 1569WAT     H2 4950   6.883   1.684   6.972
 1570WAT      O 4951   3.420   2.250   0.031
 1570WAT     H1 4952   3.458   2.327   0.082
 1570WAT     H2 4953   3.490   2.180   0.020
 1571WAT      O 4954   7.597   4.612   3.099
 1571WAT     H1 4955   7.619   4.562   3.015
 1571WAT     H2 4956   7.681   4.626   3.152
 1572WAT      O 4957   5.768   1.299   9.794
 1572WAT     H1 4958   5.759   1.268   9.700
 1572WAT     H2 4959   5.750   1.223   9.856
 1573WAT      O 4960   0.341   2.305   6.996
 1573WAT     H1 4961   0.423   2.261   7.032
 1573WAT     H2 4962   0.300   2.363   7.066
 1574WAT      O 4963   4.497   7.408   5.600
 1574WAT     H1 4964   4.457   7.317   5.594
 1574WAT     H2 4965   4.447   7.471   5.541
 1575WAT      O 4966   6.973   6.753   1.473
 1575WAT     H1 4967   6.935   6.839   1.506
 1575WAT     H2 4968   7.041   6.719   1.538
 1576WAT      O 4969   0.662   4.975   9.553
 1576WAT     H1 4970   0.741   4.938   9.603
 1576WAT     H2 4971   0.657   5.074   9.567
 1577WAT      O 4972   4.198   6.048   7.745
 1577WAT     H1 4973   4.123   5.993   7.710
 1577WAT     H2 4974   4.191   6.056   7.844
 1578WAT      O 4975   3.564   3.574   6.247
 1578WAT     H1 4976   3.478   3.536   6.281
 1578WAT     H2 4977   3.617   3.502   6.203
 1579WAT      O 4978   6.244   9.297   8.699
 1579WAT     H1 4979   6.263   9.268   8.605
 1579WAT     H2 4980   6.193   9.225   8.746
 1580WAT      O 4981   4.886   3.670   9.671
 1580WAT     H1 4982   4.938   3.623   9.742
 1580WAT     H2 4983   4.792   3.684   9.702
 1581WAT      O 4984   1.681   8.237   8.657
 1581WAT     H1 4985   1.589   8.265   8.685
 1581WAT     H2 4986   1.675   8.170   8.583
 1582WAT      O 4987   5.675   6.935   6.539
 1582WAT     H1 4988   5.703   6.888   6.623
 1582WAT     H2 4989   5.675   6.870   6.463
 1583WAT      O 4990   4.286   3.619   7.219
 1583WAT     H1 4991   4.335   3.608   7.132
 1583WAT     H2 4992   4.280   3.531   7.265
 1584WAT      O 4993   9.797   5.036   5.179
 1584WAT     H1 4994   9.736   5.038   5.258
 1584WAT     H2 4995   9.814   4.941   5.152
 1585WAT      O 4996   7.354   2.875   3.887
 1585WAT     H1 4997   7.379   2.782   3.912
 1585WAT     H2 4998   7.267   2.899   3.930
 1586WAT      O 4999   1.265   0.627   5.134
 1586WAT     H1 5000   1.250   0.650   5.038
 1586WAT     H2 5001   1.178   0.604   5.178
 1587WAT      O 5002   5.795   3.544   4.971
 1587WAT     H1 5003   5.775   3.606   5.046
 1587WAT     H2 5004   5.758   3.454   4.991
 1588WAT      O 5005   6.417   8.259   1.616
 1588WAT     H1 5006   6.483   8.214   1.676
 1588WAT     H2 5007   6.466   8.310   1.545
 1589WAT      O 5008   8.671   5.253   6.545
 1589WAT     H1 5009   8.729   5.329   6.575
 1589WAT     H2 5010   8.679   5.241   6.447
 1590WAT      O 5011   9.436   6.988   4.969
 1590WAT     H1 5012   9.536   6.981   4.972
 1590WAT     H2 5013   9.404   6.985   4.874
 1591WAT      O 5014   5.397   8.852   8.873
 1591WAT     H1 5015   5.332   8.874   8.945
 1591WAT     H2 5016   5.348   8.823   8.791
 1592WAT      O 5017   8.801   9.523   1.000
 1592WAT     H1 5018   8.736   9.522   1.077
 1592WAT     H2 5019   8.775   9.452   0.935
 1593WAT      O 5020   3.776   1.390   4.347
 1593WAT     H1 5021   3.766   1.453   4.270
 1593WAT     H2 5022   3.693   1.334   4.355
 1594WAT      O 5023   6.664   0.049   3.824
 1594WAT     H1 5024   6.704   0.093   3.905
 1594WAT     H2 5025   6.733   0.044   3.751
 1595WAT      O 5026   2.236   1.722   7.159
 1595WAT     H1 5027   2.317   1.780   7.158
 1595WAT     H2 5028   2.212   1.699   7.253
 1596WAT      O 5029   6.397   8.724   8.144
 1596WAT     H1 5030   6.332   8.783   8.191
 1596WAT     H2 5031   6.437   8.774   8.067
 1597WAT      O 5032   4.560   8.180   7.991
 1597WAT     H1 5033   4.556   8.265   8.042
 1597WAT     H2 5034   4.539   8.197   7.895
 1598WAT      O 5035   0.457   9.205   4.675
 1598WAT     H1 5036   0.474   9.108   4.689
 1598WAT     H2 5037   0.393   9.238   4.744
 1599WAT      O 5038   3.766   6.568   5.397
 1599WAT     H1 5039   3.713   6.518   5.329
 1599WAT     H2 5040   3.780   6.510   5.477
 1600WAT      O 5041   7.695   1.913   3.222
 1600WAT     H1 5042   7.709   1.843   3.292
 1600WAT     H2 5043   7.690   1.869   3.132
 1601WAT      O 5044   8.827   6.861   9.265
 1601WAT     H1 5045   8.740   6.843   9.219
 1601WAT     H2 5046   8.875   6.935   9.218
 1602WAT      O 5047   2.935   4.000   6.266
 1602WAT     H1 5048   2.975   4.051   6.190
 1602WAT     H2 5049   2.887   4.064   6.327
 1603WAT      O 5050   8.893   2.465   2.960
 1603WAT     H1 5051   8.845   2.501   2.880
 1603WAT     H2 5052   8.827   2.445   3.033
 1604WAT      O 5053   7.957   4.077   2.538
 1604WAT     H1 5054   8.048   4.037   2.545
 1604WAT     H2 5055   7.948   4.150   2.606
 1605WAT      O 5056   9.599   2.881   1.765
 1605WAT     H1 5057   9.575   2.862   1.669
 1605WAT     H2 5058   9.693   2.853   1.782
 1606WAT      O 5059   1.221   9.661   1.934
 1606WAT     H1 5060   1.244   9.758   1.939
 1606WAT     H2 5061   1.149   9.647   1.865
 1607WAT      O 5062   1.858   0.688   8.567
 1607WAT     H1 5063   1.930   0.689   8.497
 1607WAT     H2 5064   1.770   0.712   8.525
 1608WAT      O 5065   7.269   9.089   2.619
 1608WAT     H1 5066   7.195   9.137   2.666
 1608WAT     H2 5067   7.320   9.033   2.684
 1609WAT      O 5068   4.457   3.888   0.653
 1609WAT     H1 5069   4.367   3.900   0.612
 1609WAT     H2 5070   4.521   3.855   0.583
 1610WAT      O 5071   0.786   6.499   9.634
 1610WAT     H1 5072   0.772   6.459   9.543
 1610WAT     H2 5073   0.873   6.548   9.635
 1611WAT      O 5074   6.374   3.899   3.670
 1611WAT     H1 5075   6.428   3.877   3.751
 1611WAT     H2 5076   6.416   3.857   3.589
 1612WAT      O 5077   3.853   9.764   3.740
 1612WAT     H1 5078   3.799   9.846   3.720
 1612WAT     H2 5079   3.922   9.750   3.670
 1613WAT      O 5080   3.405   5.588   3.249
 1613WAT     H1 5081   3.390   5.517   3.318
 1613WAT     H2 5082   3.322   5.642   3.239
 1614WAT      O 5083   7.288   5.552   8.375
 1614WAT     H1 5084   7.287   5.643   8.335
 1614WAT     H2 5085   7.279   5.484   8.303
 1615WAT      O 5086   3.957   9.114   6.470
 1615WAT     H1 5087   3.878   9.171   6.449
 1615WAT     H2 5088   4.021   9.116   6.393
 1616WAT      O 5089   6.766   4.949   3.909
 1616WAT     H1 5090   6.751   5.047   3.924
 1616WAT     H2 5091   6.704   4.916   3.839
 1617WAT      O 5092   1.876   8.368   8.494
 1617WAT     H1 5093   1.816   8.303   8.540
 1617WAT     H2 5094   1.841   8.385   8.401
 1618WAT      O 5095   8.749   3.945   3.242
 1618WAT     H1 5096   8.788   3.994   3.164
 1618WAT     H2 5097   8.693   4.008   3.296
 1619WAT      O 5098   0.685   1.528   0.645
 1619WAT     H1 5099   0.782   1.509   0.628
 1619WAT     H2 5100   0.672   1.626   0.657
 1620WAT      O 5101   0.887   2.849   4.661
 1620WAT     H1 5102   0.965   2.896   4.620
 1620WAT     H2 5103   0.883   2.755   4.629
 1621WAT      O 5104   1.427   5.768   8.328
 1621WAT     H1 5105   1.389   5.705   8.260
 1621WAT     H2 5106   1.523   5.788   8.306
 1622WAT      O 5107   7.339   3.098   9.010
 1622WAT     H1 5108   7.384   3.046   9.082
 1622WAT     H2 5109   7.353   3.196   9.027
 1623WAT      O 5110   7.145   2.410   0.227
 1623WAT     H1 5111   7.102   2.329   0.267
 1623WAT     H2 5112   7.165   2.393   0.131
 1624WAT      O 5113   4.508   7.444   7.444
 1624WAT     H1 5114   4.475   7.471   7.535
 1624WAT     H2 5115   4.486   7.515   7.378
 1625WAT      O 5116   3.952   7.870   6.452
 1625WAT     H1 5117   4.009   7.890   6.532
 1625WAT     H2 5118   3.870   7.821   6.480
 1626WAT      O 5119   3.920   5.571   7.180
 1626WAT     H1 5120   3.990   5.624   7.131
 1626WAT     H2 5121   3.901   5.487   7.130
 1627WAT      O 5122   5.693   9.223   9.363
 1627WAT     H1 5123   5.603   9.185   9.340
 1627WAT     H2 5124   5.681   9.300   9.425
 1628WAT      O 5125   2.563   0.156   1.086
 1628WAT     H1 5126   2.500   0.092   1.042
 1628WAT     H2 5127   2.622   0.197   1.017
 1629WAT      O 5128   2.966   7.413   0.528
 1629WAT     H1 5129   2.916   7.374   0.450
 1629WAT     H2 5130   2.989   7.340   0.592
 1630WAT      O 5131   6.620   5.465   8.968
 1630WAT     H1 5132   6.683   5.490   9.042
 1630WAT     H2 5133   6.556   5.396   9.001
 1631WAT      O 5134   9.661   1.015   2.231
 1631WAT     H1 5135   9.735   1.031   2.166
 1631WAT     H2 5136   9.576   0.999   2.182
 1632WAT      O 5137   3.359   0.665   4.950
 1632WAT     H1 5138   3.433   0.696   5.010
 1632WAT     H2 5139   3.392   0.590   4.893
 1633WAT      O 5140   2.752   1.867   2.027
 1633WAT     H1 5141   2.816   1.829   1.961
 1633WAT     H2 5142   2.698   1.939   1.983
 1634WAT      O 5143   9.590   5.583   3.313
 1634WAT     H1 5144   9.498   5.555   3.338
 1634WAT     H2 5145   9.648   5.503   3.300
 1635WAT      O 5146   6.818   1.285   4.210
 1635WAT     H1 5147   6.857   1.224   4.142
 1635WAT     H2 5148   6.860   1.266   4.299
 1636WAT      O 5149   3.058   4.760   3.659
 1636WAT     H1 5150   3.144   4.711   3.675
 1636WAT     H2 5151   2.987   4.695   3.633
 1637WAT      O 5152   5.065   8.618   7.852
 1637WAT     H1 5153   4.997   8.554   7.814
 1637WAT     H2 5154   5.078   8.694   7.789
 1638WAT      O 5155   2.015   7.109   8.423
 1638WAT     H1 5156   2.111   7.104   8.449
 1638WAT     H2 5157   2.000   7.061   8.337
 1639WAT      O 5158   5.547   4.815   0.637
 1639WAT     H1 5159   5.489   4.852   0.564
 1639WAT     H2 5160   5.635   4.786   0.599
 1640WAT      O 5161   4.576   6.249   3.027
 1640WAT     H1 5162   4.642   6.174   3.018
 1640WAT     H2 5163   4.606   6.326   2.971
 1641WAT      O 5164   7.848   7.372   4.495
 1641WAT     H1 5165   7.886   7.430   4.567
 1641WAT     H2 5166   7.764   7.413   4.459
 1642WAT      O 5167   3.153   5.767   2.855
 1642WAT     H1 5168   3.200   5.795   2.939
 1642WAT     H2 5169   3.063   5.730   2.878
 1643WAT      O 5170   1.296   2.334   3.847
 1643WAT     H1 5171   1.334   2.246   3.874
 1643WAT     H2 5172   1.364   2.385   3.795
 1644WAT      O 5173   0.208   4.896   5.198
 1644WAT     H1 5174   0.173   4.913   5.290
 1644WAT     H2 5175   0.304   4.869   5.203
 1645WAT      O 5176   8.125   1.431   8.925
 1645WAT     H1 5177   8.035   1.467   8.953
 1645WAT     H2 5178   8.195   1.498   8.947
 1646WAT      O 5179   4.936   2.318   9.559
 1646WAT     H1 5180   4.883   2.347   9.638
 1646WAT     H2 5181   4.999   2.244   9.586
 1647WAT      O 5182   3.011   3.151   9.177
 1647WAT     H1 5183   2.982   3.095   9.099
 1647WAT     H2 5184   2.942   3.146   9.249
 1648WAT      O 5185   1.319   3.853   4.197
 1648WAT     H1 5186   1.387   3.784   4.221
 1648WAT     H2 5187   1.280   3.892   4.280
 1649WAT      O 5188   2.129   8.761   5.169
 1649WAT     H1 5189   2.124   8.772   5.268
 1649WAT     H2 5190   2.091   8.842   5.124
 1650WAT      O 5191   3.552   4.525   7.712
 1650WAT     H1 5192   3.452   4.527   7.716
 1650WAT     H2 5193   3.590   4.580   7.786
 1651WAT      O 5194   5.958   7.393   9.857
 1651WAT     H1 5195   5.992   7.304   9.827
 1651WAT     H2 5196   5.896   7.430   9.786
 1652WAT      O 5197   1.947   8.120   6.630
 1652WAT     H1 5198   1.999   8.139   6.713
 1652WAT     H2 5199   1.987   8.042   6.582
 1653WAT      O 5200   1.482   7.524   0.131
 1653WAT     H1 5201   1.395   7.541   0.085
 1653WAT     H2 5202   1.497   7.425   0.138
 1654WAT      O 5203   7.074   3.847   5.986
 1654WAT     H1 5204   7.043   3.762   6.027
 1654WAT     H2 5205   7.036   3.924   6.036
 1655WAT      O 5206   0.254   5.919   9.843
 1655WAT     H1 5207   0.208   5.882   9.762
 1655WAT     H2 5208   0.333   5.862   9.865
 1656WAT      O 5209   1.957   8.067   7.615
 1656WAT     H1 5210   1.866   8.026   7.613
 1656WAT     H2 5211   2.023   8.002   7.579
 1657WAT      O 5212   7.193   7.964   7.541
 1657WAT     H1 5213   7.198   8.063   7.528
 1657WAT     H2 5214   7.283   7.928   7.563
 1658WAT      O 5215   1.961   4.435   7.849
 1658WAT     H1 5216   2.032   4.484   7.900
 1658WAT     H2 5217   1.953   4.473   7.757
 1659WAT      O 5218   2.381   2.087   0.516
 1659WAT     H1 5219   2.477   2.079   0.541
 1659WAT     H2 5220   2.336   1.998   0.521
 1660WAT      O 5221   0.885   6.268   7.321
 1660WAT     H1 5222   0.926   6.222   7.400
 1660WAT     H2 5223   0.940   6.250   7.239
 1661WAT      O 5224   6.723   2.052   4.576
 1661WAT     H1 5225   6.698   2.136   4.529
 1661WAT     H2 5226   6.656   2.032   4.647
 1662WAT      O 5227   4.453   7.457   1.831
 1662WAT     H1 5228   4.423   7.492   1.920
 1662WAT     H2 5229   4.500   7.369   1.844
 1663WAT      O 5230   5.702   8.264   7.306
 1663WAT     H1 5231   5.733   8.329   7.375
 1663WAT     H2 5232   5.603   8.254   7.312
 1664WAT      O 5233   3.371   2.490   1.135
 1664WAT     H1 5234   3.428   2.572   1.144
 1664WAT     H2 5235   3.311   2.501   1.056
 1665WAT      O 5236   2.289   3.005   3.960
 1665WAT     H1 5237   2.341   3.082   3.997
 1665WAT     H2 5238   2.317   2.989   3.865
 1666WAT      O 5239   8.160   1.655   8.107
 1666WAT     H1 5240   8.159   1.579   8.043
 1666WAT     H2 5241   8.162   1.741   8.057
 1667WAT      O 5242   9.501   4.987   4.808
 1667WAT     H1 5243   9.426   5.018   4.749
 1667WAT     H2 5244   9.526   4.894   4.783
 1668WAT      O 5245   3.291   2.921   8.292
 1668WAT     H1 5246   3.260   2.926   8.387
 1668WAT     H2 5247   3.242   2.988   8.237
 1669WAT      O 5248   5.416   6.737   1.835
 1669WAT     H1 5249   5.376   6.741   1.926
 1669WAT     H2 5250   5.487   6.667   1.833
 1670WAT      O 5251   5.467   1.125   1.338
 1670WAT     H1 5252   5.500   1.217   1.313
 1670WAT     H2 5253   5.367   1.124   1.336
 1671WAT      O 5254   8.271   3.295   5.161
 1671WAT     H1 5255   8.281   3.390   5.133
 1671WAT     H2 5256   8.193   3.254   5.114
 1672WAT      O 5257   1.676   5.929   5.894
 1672WAT     H1 5258   1.652   5.835   5.919
 1672WAT     H2 5259   1.684   5.936   5.795
 1673WAT      O 5260   8.261   0.893   0.933
 1673WAT     H1 5261   8.316   0.972   0.959
 1673WAT     H2 5262   8.233   0.901   0.838
 1674WAT      O 5263   1.630   6.940   1.273
 1674WAT     H1 5264   1.636   7.022   1.330
 1674WAT     H2 5265   1.598   6.966   1.182
 1675WAT      O 5266   7.845   4.003   9.352
 1675WAT     H1 5267   7.815   3.919   9.398
 1675WAT     H2 5268   7.769   4.040   9.298
 1676WAT      O 5269   4.374   3.084   4.577
 1676WAT     H1 5270   4.321   3.003   4.602
 1676WAT     H2 5271   4.314   3.149   4.530
 1677WAT      O 5272   1.306   3.816   1.356
 1677WAT     H1 5273   1.233   3.765   1.403
 1677WAT     H2 5274   1.377   3.752   1.325
 1678WAT      O 5275   5.458   2.598   8.433
 1678WAT     H1 5276   5.358   2.604   8.439
 1678WAT     H2 5277   5.484   2.546   8.352
 1679WAT      O 5278   3.778   3.479   1.916
 1679WAT     H1 5279   3.834   3.410   1.960
 1679WAT     H2 5280   3.684   3.445   1.905
 1680WAT      O 5281   6.733   0.837   7.884
 1680WAT     H1 5282   6.667   0.806   7.815
 1680WAT     H2 5283   6.823   0.800   7.863
 1681WAT      O 5284   4.165   7.757   7.768
 1681WAT     H1 5285   4.220   7.691   7.819
 1681WAT     H2 5286   4.100   7.708   7.710
 1682WAT      O 5287   3.646   4.070   4.081
 1682WAT     H1 5288   3.728   4.034   4.126
 1682WAT     H2 5289   3.617   4.007   4.009
 1683WAT      O 5290   9.511   7.715   3.481
 1683WAT     H1 5291   9.525   7.668   3.568
 1683WAT     H2 5292   9.591   7.702   3.423
 1684WAT      O 5293   4.308   6.358   0.783
 1684WAT     H1 5294   4.400   6.381   0.814
 1684WAT     H2 5295   4.311   6.277   0.725
 1685WAT      O 5296   8.851   6.936   2.350
 1685WAT     H1 5297   8.862   6.907   2.444
 1685WAT     H2 5298   8.813   7.029   2.348
 1686WAT      O 5299   4.886   8.671   5.399
 1686WAT     H1 5300   4.883   8.739   5.473
 1686WAT     H2 5301   4.793   8.650   5.370
 1687WAT      O 5302   2.615   2.583   2.190
 1687WAT     H1 5303   2.574   2.652   2.130
 1687WAT     H2 5304   2.566   2.497   2.180
 1688WAT      O 5305   0.405   8.401   1.258
 1688WAT     H1 5306   0.467   8.326   1.279
 1688WAT     H2 5307   0.311   8.372   1.272
 1689WAT      O 5308   3.026   3.207   3.619
 1689WAT     H1 5309   3.107   3.263   3.639
 1689WAT     H2 5310   3.030   3.175   3.525
 1690WAT      O 5311   6.938   2.776   9.839
 1690WAT     H1 5312   6.912   2.766   9.934
 1690WAT     H2 5313   7.030   2.815   9.833
 1691WAT      O 5314   4.106   3.139   6.816
 1691WAT     H1 5315   4.146   3.059   6.771
 1691WAT     H2 5316   4.008   3.142   6.798
 1692WAT      O 5317   4.688   8.899   1.151
 1692WAT     H1 5318   4.630   8.966   1.198
 1692WAT     H2 5319   4.636   8.858   1.075
 1693WAT      O 5320   2.429   1.197   3.308
 1693WAT     H1 5321   2.340   1.161   3.282
 1693WAT     H2 5322   2.427   1.297   3.302
 1694WAT      O 5323   3.908   4.122   4.358
 1694WAT     H1 5324   3.888   4.046   4.296
 1694WAT     H2 5325   4.006   4.128   4.373
 1695WAT      O 5326   6.251   5.554   7.998
 1695WAT     H1 5327   6.215   5.632   7.946
 1695WAT     H2 5328   6.259   5.475   7.937
 1696WAT      O 5329   4.862   8.264   2.773
 1696WAT     H1 5330   4.842   8.269   2.871
 1696WAT     H2 5331   4.960   8.272   2.758
 1697WAT      O 5332   2.575   3.998   5.606
 1697WAT     H1 5333   2.603   3.920   5.662
 1697WAT     H2 5334   2.601   3.982   5.511
 1698WAT      O 5335   7.189   5.421   4.880
 1698WAT     H1 5336   7.187   5.321   4.875
 1698WAT     H2 5337   7.250   5.457   4.810
 1699WAT      O 5338   5.414   2.661   2.827
 1699WAT     H1 5339   5.384   2.620   2.913
 1699WAT     H2 5340   5.356   2.630   2.752
 1700WAT      O 5341   6.526   0.815   6.633
 1700WAT     H1 5342   6.591   0.886   6.662
 1700WAT     H2 5343   6.534   0.736   6.694
 1701WAT      O 5344   5.823   0.446   2.752
 1701WAT     H1 5345   5.785   0.476   2.665
 1701WAT     H2 5346   5.910   0.399   2.736
 1702WAT      O 5347   8.624   3.023   6.459
 1702WAT     H1 5348   8.538   3.062   6.424
 1702WAT     H2 5349   8.692   3.096   6.466
 1703WAT      O 5350   0.891   6.840   7.201
 1703WAT     H1 5351   0.825   6.908   7.170
 1703WAT     H2 5352   0.903   6.770   7.130
 1704WAT      O 5353   3.020   2.915   8.730
 1704WAT     H1 5354   2.921   2.914   8.744
 1704WAT     H2 5355   3.061   2.838   8.779
 1705WAT      O 5356   2.708   3.146   2.535
 1705WAT     H1 5357   2.803   3.121   2.515
 1705WAT     H2 5358   2.647   3.100   2.471
 1706WAT      O 5359   3.073   3.729   4.012
 1706WAT     H1 5360   3.065   3.634   3.985
 1706WAT     H2 5361   2.981   3.771   4.015
 1707WAT      O 5362   0.171   1.477   8.106
 1707WAT     H1 5363   0.245   1.530   8.148
 1707WAT     H2 5364   0.084   1.503   8.147
 1708WAT      O 5365   6.798   5.268   0.749
 1708WAT     H1 5366   6.853   5.211   0.688
 1708WAT     H2 5367   6.837   5.359   0.754
 1709WAT      O 5368   3.013   8.494   0.066
 1709WAT     H1 5369   2.951   8.437   0.013
 1709WAT     H2 5370   3.093   8.519   0.010
 1710WAT      O 5371   2.340   1.672   3.485
 1710WAT     H1 5372   2.388   1.627   3.561
 1710WAT     H2 5373   2.397   1.746   3.449
 1711WAT      O 5374   4.015   0.673   9.537
 1711WAT     H1 5375   3.997   0.575   9.529
 1711WAT     H2 5376   3.976   0.707   9.623
 1712WAT      O 5377   7.091   5.098   8.668
 1712WAT     H1 5378   7.139   5.011   8.658
 1712WAT     H2 5379   7.063   5.131   8.578
 1713WAT      O 5380   8.245   5.805   9.238
 1713WAT     H1 5381   8.248   5.857   9.324
 1713WAT     H2 5382   8.150   5.797   9.208
 1714WAT      O 5383   7.324   9.702   1.179
 1714WAT     H1 5384   7.407   9.747   1.146
 1714WAT     H2 5385   7.324   9.703   1.279
 1715WAT      O 5386   4.027   0.865   2.427
 1715WAT     H1 5387   3.990   0.844   2.517
 1715WAT     H2 5388   4.049   0.780   2.379
 1716WAT      O 5389   2.199   1.322   2.183
 1716WAT     H1 5390   2.149   1.242   2.216
 1716WAT     H2 5391   2.136   1.399   2.172
 1717WAT      O 5392   2.606   9.528   6.690
 1717WAT     H1 5393   2.508   9.546   6.691
 1717WAT     H2 5394   2.623   9.440   6.646
 1718WAT      O 5395   6.119   4.529   1.292
 1718WAT     H1 5396   6.125   4.626   1.315
 1718WAT     H2 5397   6.148   4.474   1.370
 1719WAT      O 5398   0.258   3.588   6.573
 1719WAT     H1 5399   0.323   3.663   6.563
 1719WAT     H2 5400   0.173   3.611   6.525
 1720WAT      O 5401   4.245   9.061   6.580
 1720WAT     H1 5402   4.251   9.125   6.657
 1720WAT     H2 5403   4.158   9.012   6.584
 1721WAT      O 5404   9.006   5.929   4.819
 1721WAT     H1 5405   9.049   5.992   4.754
 1721WAT     H2 5406   9.062   5.847   4.828
 1722WAT      O 5407   5.792   7.553   3.599
 1722WAT     H1 5408   5.701   7.542   3.558
 1722WAT     H2 5409   5.838   7.464   3.600
 1723WAT      O 5410   2.697   7.057   2.671
 1723WAT     H1 5411   2.785   7.097   2.693
 1723WAT     H2 5412   2.707   6.993   2.594
 1724WAT      O 5413   5.676   9.798   0.029
 1724WAT     H1 5414   5.634   9.888   0.041
 1724WAT     H2 5415   5.615   9.728   0.065
 1725WAT      O 5416   0.387   0.288   7.403
 1725WAT     H1 5417   0.305   0.230   7.404
 1725WAT     H2 5418   0.441   0.269   7.321
 1726WAT      O 5419   3.160   0.456   6.278
 1726WAT     H1 5420   3.177   0.510   6.361
 1726WAT     H2 5421   3.161   0.517   6.199
 1727WAT      O 5422   2.179   4.320   0.633
 1727WAT     H1 5423   2.146   4.377   0.708
 1727WAT     H2 5424   2.257   4.365   0.589
 1728WAT      O 5425   2.302   7.301   2.033
 1728WAT     H1 5426   2.332   7.353   1.953
 1728WAT     H2 5427   2.381   7.263   2.080
 1729WAT      O 5428   3.900   8.195   2.267
 1729WAT     H1 5429   3.991   8.236   2.259
 1729WAT     H2 5430   3.909   8.096   2.266
 1730WAT      O 5431   4.032   1.578   9.609
 1730WAT     H1 5432   4.051   1.486   9.574
 1730WAT     H2 5433   3.973   1.626   9.544
 1731WAT      O 5434   6.557   3.187   0.373
 1731WAT     H1 5435   6.476   3.215   0.423
 1731WAT     H2 5436   6.556   3.228   0.282
 1732WAT      O 5437   8.802   7.176   6.968
 1732WAT     H1 5438   8.745   7.094   6.965
 1732WAT     H2 5439   8.794   7.219   7.058
 1733WAT      O 5440   8.887   5.543   5.084
 1733WAT     H1 5441   8.964   5.500   5.130
 1733WAT     H2 5442   8.899   5.642   5.083
 1734WAT      O 5443   2.605   5.108   6.969
 1734WAT     H1 5444   2.579   5.048   7.045
 1734WAT     H2 5445   2.629   5.052   6.890
 1735WAT      O 5446   8.361   1.866   5.083
 1735WAT     H1 5447   8.347   1.909   5.172
 1735WAT     H2 5448   8.409   1.779   5.095
 1736WAT      O 5449   3.516   9.708   6.168
 1736WAT     H1 5450   3.430   9.726   6.217
 1736WAT     H2 5451   3.535   9.610   6.170
 1737WAT      O 5452   2.123   8.730   1.830
 1737WAT     H1 5453   2.090   8.781   1.909
 1737WAT     H2 5454   2.220   8.749   1.815
 1738WAT      O 5455   4.634   6.306   7.453
 1738WAT     H1 5456   4.652   6.347   7.542
 1738WAT     H2 5457   4.668   6.366   7.381
 1739WAT      O 5458   4.138   7.885   6.644
 1739WAT     H1 5459   4.191   7.948   6.701
 1739WAT     H2 5460   4.200   7.816   6.605
 1740WAT      O 5461   6.667   8.518   3.719
 1740WAT     H1 5462   6.602   8.523   3.643
 1740WAT     H2 5463   6.754   8.558   3.691
 1741WAT      O 5464   8.026   6.064   7.618
 1741WAT     H1 5465   7.932   6.042   7.591
 1741WAT     H2 5466   8.081   6.078   7.536
 1742WAT      O 5467   1.533   2.286   1.611
 1742WAT     H1 5468   1.568   2.195   1.592
 1742WAT     H2 5469   1.595   2.354   1.572
 1743WAT      O 5470   1.300   2.925   4.035
 1743WAT     H1 5471   1.205   2.955   4.029
 1743WAT     H2 5472   1.325   2.877   3.951
 1744WAT      O 5473   1.842   4.190   4.085
 1744WAT     H1 5474   1.762   4.138   4.114
 1744WAT     H2 5475   1.920   4.129   4.072
 1745WAT      O 5476   5.296   4.043   3.154
 1745WAT     H1 5477   5.248   3.989   3.084
 1745WAT     H2 5478   5.309   4.136   3.121
 1746WAT      O 5479   6.421   1.825   7.767
 1746WAT     H1 5480   6.451   1.816   7.672
 1746WAT     H2 5481   6.451   1.745   7.820
 1747WAT      O 5482   9.301   5.718   2.481
 1747WAT     H1 5483   9.374   5.678   2.538
 1747WAT     H2 5484   9.222   5.738   2.539
 1748WAT      O 5485   0.359   9.121   2.096
 1748WAT     H1 5486   0.395   9.111   2.189
 1748WAT     H2 5487   0.432   9.105   2.030
 1749WAT      O 5488   1.894   4.961   8.569
 1749WAT     H1 5489   1.878   4.869   8.534
 1749WAT     H2 5490   1.866   4.967   8.664
 1750WAT      O 5491   3.625   2.781   2.071
 1750WAT     H1 5492   3.598   2.876   2.085
 1750WAT     H2 5493   3.543   2.724   2.063
 1751WAT      O 5494   0.261   5.544   3.309
 1751WAT     H1 5495   0.328   5.475   3.339
 1751WAT     H2 5496   0.223   5.590   3.389
 1752WAT      O 5497   9.339   0.372   8.152
 1752WAT     H1 5498   9.303   0.465   8.160
 1752WAT     H2 5499   9.288   0.311   8.213
 1753WAT      O 5500   7.777   3.664   2.431
 1753WAT     H1 5501   7.809   3.620   2.515
 1753WAT     H2 5502   7.820   3.754   2.424
 1754WAT      O 5503   2.825   2.142   7.129
 1754WAT     H1 5504   2.905   2.163   7.073
 1754WAT     H2 5505   2.836   2.051   7.169
 1755WAT      O 5506   8.645   6.052   8.748
 1755WAT     H1 5507   8.712   6.067   8.821
 1755WAT     H2 5508   8.679   5.983   8.685
 1756WAT      O 5509   1.719   6.146   7.260
 1756WAT     H1 5510   1.711   6.089   7.178
 1756WAT     H2 5511   1.793   6.212   7.248
 1757WAT      O 5512   7.732   4.334   5.335
 1757WAT     H1 5513   7.787   4.417   5.344
 1757WAT     H2 5514   7.650   4.353   5.281
 1758WAT      O 5515   3.167   0.381   5.612
 1758WAT     H1 5516   3.140   0.410   5.704
 1758WAT     H2 5517   3.087   0.345   5.564
 1759WAT      O 5518   2.695   0.672   8.754
 1759WAT     H1 5519   2.792   0.670   8.777
 1759WAT     H2 5520   2.645   0.612   8.817
 1760WAT      O 5521   7.291   3.538   1.366
 1760WAT     H1 5522   7.307   3.624   1.415
 1760WAT     H2 5523   7.368   3.476   1.381
 1761WAT      O 5524   6.548   4.760   0.494
 1761WAT     H1 5525   6.607   4.679   0.488
 1761WAT     H2 5526   6.601   4.836   0.531
 1762WAT      O 5527   0.322   7.281   3.151
 1762WAT     H1 5528   0.227   7.279   3.180
 1762WAT     H2 5529   0.381   7.295   3.231
 1763WAT      O 5530   0.729   7.392   3.267
 1763WAT     H1 5531   0.787   7.466   3.235
 1763WAT     H2 5532   0.751   7.370   3.362
 1764WAT      O 5533   5.476   0.692   8.399
 1764WAT     H1 5534   5.559   0.722   8.448
 1764WAT     H2 5535   5.499   0.614   8.341
 1765WAT      O 5536   1.557   4.548   1.588
 1765WAT     H1 5537   1.635   4.493   1.556
 1765WAT     H2 5538   1.487   4.487   1.625
 1766WAT      O 5539   7.835   1.490   6.621
 1766WAT     H1 5540   7.757   1.429   6.608
 1766WAT     H2 5541   7.880   1.507   6.534
 1767WAT      O 5542   9.134   5.984   9.059
 1767WAT     H1 5543   9.049   5.931   9.062
 1767WAT     H2 5544   9.122   6.069   9.110
 1768WAT      O 5545   2.550   8.652   3.204
 1768WAT     H1 5546   2.485   8.710   3.252
 1768WAT     H2 5547   2.554   8.679   3.108
 1769WAT      O 5548   1.413   2.671   7.247
 1769WAT     H1 5549   1.349   2.596   7.227
 1769WAT     H2 5550   1.406   2.740   7.176
 1770WAT      O 5551   2.832   5.880   5.314
 1770WAT     H1 5552   2.896   5.946   5.275
 1770WAT     H2 5553   2.860   5.856   5.407
 1771WAT      O 5554   0.295   9.209   4.323
 1771WAT     H1 5555   0.220   9.244   4.379
 1771WAT     H2 5556   0.305   9.266   4.241
 1772WAT      O 5557   1.797   6.950   5.254
 1772WAT     H1 5558   1.705   6.940   5.215
 1772WAT     H2 5559   1.865   6.923   5.185
 1773WAT      O 5560   0.338   3.971   0.150
 1773WAT     H1 5561   0.297   3.896   0.099
 1773WAT     H2 5562   0.281   3.992   0.230
 1774WAT      O 5563   3.495   3.899   4.992
 1774WAT     H1 5564   3.517   3.850   4.907
 1774WAT     H2 5565   3.441   3.839   5.052
 1775WAT      O 5566   1.684   4.039   2.210
 1775WAT     H1 5567   1.679   4.028   2.110
 1775WAT     H2 5568   1.764   3.991   2.244
 1776WAT      O 5569   6.544   5.951   7.026
 1776WAT     H1 5570   6.619   5.908   7.077
 1776WAT     H2 5571   6.482   5.881   6.991
 1777WAT      O 5572   6.508   8.361   5.660
 1777WAT     H1 5573   6.589   8.307   5.639
 1777WAT     H2 5574   6.463   8.323   5.741
 1778WAT      O 5575   8.999   4.605   2.559
 1778WAT     H1 5576   9.063   4.575   2.488
 1778WAT     H2 5577   8.955   4.525   2.600
 1779WAT      O 5578   2.988   8.660   7.246
 1779WAT     H1 5579   3.078   8.623   7.222
 1779WAT     H2 5580   2.971   8.743   7.193
 1780WAT      O 5581   0.336   2.236   3.182
 1780WAT     H1 5582   0.334   2.251   3.280
 1780WAT     H2 5583   0.380   2.149   3.162
 1781WAT      O 5584   8.944   5.704   9.706
 1781WAT     H1 5585   9.037   5.683   9.675
 1781WAT     H2 5586   8.903   5.622   9.747
 1782WAT      O 5587   3.403   1.220   9.302
 1782WAT     H1 5588   3.358   1.272   9.375
 1782WAT     H2 5589   3.335   1.166   9.253
 1783WAT      O 5590   0.875   9.757   8.203
 1783WAT     H1 5591   0.780   9.735   8.223
 1783WAT     H2 5592   0.884   9.784   8.107
 1784WAT      O 5593   6.327   0.121   4.726
 1784WAT     H1 5594   6.286   0.196   4.777
 1784WAT     H2 5595   6.308   0.132   4.628
 1785WAT      O 5596   2.712   0.169   9.712
 1785WAT     H1 5597   2.787   0.160   9.647
 1785WAT     H2 5598   2.718   0.097   9.780
 1786WAT      O 5599   7.508   3.062   0.715
 1786WAT     H1 5600   7.537   3.005   0.791
 1786WAT     H2 5601   7.585   3.078   0.654
 1787WAT      O 5602   8.188   3.632   6.789
 1787WAT     H1 5603   8.147   3.705   6.734
 1787WAT     H2 5604   8.124   3.556   6.796
 1788WAT      O 5605   7.922   3.111   4.541
 1788WAT     H1 5606   7.959   3.176   4.474
 1788WAT     H2 5607   7.990   3.096   4.613
 1789WAT      O 5608   7.662   5.038   1.613
 1789WAT     H1 5609   7.577   5.086   1.637
 1789WAT     H2 5610   7.707   5.087   1.539
 1790WAT      O 5611   7.441   7.339   8.904
 1790WAT     H1 5612   7.482   7.313   8.992
 1790WAT     H2 5613   7.360   7.282   8.888
 1791WAT      O 5614   0.190   2.028   8.336
 1791WAT     H1 5615   0.221   1.944   8.291
 1791WAT     H2 5616   0.242   2.105   8.300
 1792WAT      O 5617   0.792   0.309   8.016
 1792WAT     H1 5618   0.825   0.388   7.964
 1792WAT     H2 5619   0.828   0.313   8.109
 1793WAT      O 5620   5.909   0.449   9.189
 1793WAT     H1 5621   5.815   0.424   9.168
 1793WAT     H2 5622   5.924   0.440   9.288
 1794WAT      O 5623   7.990   1.588   6.801
 1794WAT     H1 5624   8.079   1.601   6.757
 1794WAT     H2 5625   7.923   1.557   6.734
 1795WAT      O 5626   3.198   4.712   2.515
 1795WAT     H1 5627   3.195   4.623   2.469
 1795WAT     H2 5628   3.271   4.768   2.475
 1796WAT      O 5629   8.763   4.185   1.856
 1796WAT     H1 5630   8.831   4.219   1.920
 1796WAT     H2 5631   8.798   4.193   1.762
 1797WAT      O 5632   6.909   7.873   3.637
 1797WAT     H1 5633   6.913   7.799   3.704
 1797WAT     H2 5634   6.978   7.858   3.566
 1798WAT      O 5635   4.982   1.120   2.583
 1798WAT     H1 5636   4.927   1.203   2.588
 1798WAT     H2 5637   4.941   1.057   2.516
 1799WAT      O 5638   3.324   7.798   2.366
 1799WAT     H1 5639   3.403   7.802   2.427
 1799WAT     H2 5640   3.349   7.835   2.277
 1800WAT      O 5641   7.602   0.047   5.192
 1800WAT     H1 5642   7.562   0.107   5.261
 1800WAT     H2 5643   7.606  -0.047   5.227
 1801WAT      O 5644   2.866   8.307   0.596
 1801WAT     H1 5645   2.770   8.328   0.580
 1801WAT     H2 5646   2.917   8.316   0.510
 1802WAT      O 5647   3.527   7.192   7.507
 1802WAT     H1 5648   3.524   7.287   7.539
 1802WAT     H2 5649   3.442   7.171   7.458
 1803WAT      O 5650   5.193   8.237   7.839
 1803WAT     H1 5651   5.123   8.262   7.905
 1803WAT     H2 5652   5.149   8.203   7.755
 1804WAT      O 5653   4.641   5.083   7.035
 1804WAT     H1 5654   4.550   5.044   7.027
 1804WAT     H2 5655   4.690   5.038   7.110
 1805WAT      O 5656   8.411   8.812   8.732
 1805WAT     H1 5657   8.492   8.795   8.789
 1805WAT     H2 5658   8.402   8.738   8.665
 1806WAT      O 5659   0.774   6.259   8.688
 1806WAT     H1 5660   0.698   6.213   8.640
 1806WAT     H2 5661   0.857   6.250   8.633
 1807WAT      O 5662   2.418   7.127   0.752
 1807WAT     H1 5663   2.395   7.144   0.848
 1807WAT     H2 5664   2.512   7.157   0.735
 1808WAT      O 5665   8.954   9.236   9.092
 1808WAT     H1 5666   8.963   9.324   9.046
 1808WAT     H2 5667   8.891   9.177   9.041
 1809WAT      O 5668   1.289   1.085   6.198
 1809WAT     H1 5669   1.227   1.091   6.120
 1809WAT     H2 5670   1.383   1.093   6.166
 1810WAT      O 5671   8.950   8.858   4.931
 1810WAT     H1 5672   9.048   8.848   4.948
 1810WAT     H2 5673   8.907   8.903   5.008
 1811WAT      O 5674   0.256   6.966   8.499
 1811WAT     H1 5675   0.279   7.006   8.588
 1811WAT     H2 5676   0.176   7.013   8.461
 1812WAT      O 5677   8.712   5.849   8.595
 1812WAT     H1 5678   8.674   5.757   8.586
 1812WAT     H2 5679   8.777   5.865   8.520
 1813WAT      O 5680   7.368   4.385   7.433
 1813WAT     H1 5681   7.428   4.312   7.465
 1813WAT     H2 5682   7.278   4.348   7.414
 1814WAT      O 5683   7.043   3.032   0.838
 1814WAT     H1 5684   7.074   3.121   0.806
 1814WAT     H2 5685   6.943   3.029   0.837
 1815WAT      O 5686   5.345   4.507   1.629
 1815WAT     H1 5687   5.430   4.509   1.577
 1815WAT     H2 5688   5.287   4.433   1.595
 1816WAT      O 5689   2.111   5.143   9.604
 1816WAT     H1 5690   2.204   5.161   9.638
 1816WAT     H2 5691   2.050   5.128   9.682
 1817WAT      O 5692   5.711   5.994   5.599
 1817WAT     H1 5693   5.794   5.940   5.616
 1817WAT     H2 5694   5.646   5.940   5.545
 1818WAT      O 5695   1.198   5.855   5.177
 1818WAT     H1 5696   1.210   5.763   5.215
 1818WAT     H2 5697   1.275   5.876   5.117
 1819WAT      O 5698   7.791   7.920   3.826
 1819WAT     H1 5699   7.856   7.899   3.753
 1819WAT     H2 5700   7.773   8.018   3.827
 1820WAT      O 5701   5.727   9.049   5.384
 1820WAT     H1 5702   5.675   9.090   5.309
 1820WAT     H2 5703   5.825   9.062   5.367
 1821WAT      O 5704   0.418   7.021   8.005
 1821WAT     H1 5705   0.415   6.956   8.081
 1821WAT     H2 5706   0.510   7.059   7.997
 1822WAT      O 5707   2.561   3.801   7.958
 1822WAT     H1 5708   2.595   3.716   7.997
 1822WAT     H2 5709   2.523   3.783   7.868
 1823WAT      O 5710   4.156   7.806   3.398
 1823WAT     H1 5711   4.246   7.847   3.383
 1823WAT     H2 5712   4.105   7.860   3.465
 1824WAT      O 5713   2.981   1.597   6.439
 1824WAT     H1 5714   2.935   1.657   6.374
 1824WAT     H2 5715   2.982   1.641   6.530
 1825WAT      O 5716   5.558   2.302   5.076
 1825WAT     H1 5717   5.606   2.373   5.024
 1825WAT     H2 5718   5.459   2.319   5.071
 1826WAT      O 5719   7.260   9.711   0.351
 1826WAT     H1 5720   7.315   9.791   0.327
 1826WAT     H2 5721   7.171   9.717   0.306
 1827WAT      O 5722   8.206   1.930   1.006
 1827WAT     H1 5723   8.136   1.878   0.958
 1827WAT     H2 5724   8.188   1.928   1.105
 1828WAT      O 5725   6.192   2.925   2.035
 1828WAT     H1 5726   6.156   2.949   1.944
 1828WAT     H2 5727   6.286   2.894   2.026
 1829WAT      O 5728   1.478   5.974   2.168
 1829WAT     H1 5729   1.488   5.875   2.169
 1829WAT     H2 5730   1.550   6.014   2.111
 1830WAT      O 5731   1.552   7.621   0.710
 1830WAT     H1 5732   1.463   7.639   0.752
 1830WAT     H2 5733   1.623   7.622   0.781
 1831WAT      O 5734   8.699   3.723   3.416
 1831WAT     H1 5735   8.687   3.641   3.360
 1831WAT     H2 5736   8.707   3.803   3.357
 1832WAT      O 5737   5.035   3.031   2.998
 1832WAT     H1 5738   5.032   3.029   3.098
 1832WAT     H2 5739   5.104   3.098   2.969
 1833WAT      O 5740   8.390   2.450   7.853
 1833WAT     H1 5741   8.396   2.537   7.804
 1833WAT     H2 5742   8.427   2.461   7.945
 1834WAT      O 5743   4.329   9.460   0.459
 1834WAT     H1 5744   4.252   9.402   0.433
 1834WAT     H2 5745   4.297   9.532   0.521
 1835WAT      O 5746   7.336   8.499   4.904
 1835WAT     H1 5747   7.323   8.451   4.817
 1835WAT     H2 5748   7.428   8.537   4.907
 1836WAT      O 5749   6.637   3.528   2.663
 1836WAT     H1 5750   6.562   3.528   2.728
 1836WAT     H2 5751   6.658   3.622   2.636
 1837WAT      O 5752   1.310   3.408   7.488
 1837WAT     H1 5753   1.265   3.320   7.479
 1837WAT     H2 5754   1.403   3.395   7.522
 1838WAT      O 5755   6.741   0.953   8.301
 1838WAT     H1 5756   6.718   1.048   8.279
 1838WAT     H2 5757   6.660   0.906   8.335
 1839WAT      O 5758   2.134   8.465   1.888
 1839WAT     H1 5759   2.112   8.558   1.857
 1839WAT     H2 5760   2.129   8.462   1.988
 1840WAT      O 5761   6.322   2.062   9.764
 1840WAT     H1 5762   6.292   2.143   9.815
 1840WAT     H2 5763   6.358   2.091   9.675
 1841WAT      O 5764   3.019   5.565   0.394
 1841WAT     H1 5765   3.107   5.549   0.440
 1841WAT     H2 5766   3.003   5.492   0.327
 1842WAT      O 5767   6.571   8.739   2.955
 1842WAT     H1 5768   6.597   8.728   2.859
 1842WAT     H2 5769   6.561   8.649   2.998
 1843WAT      O 5770   5.764   6.646   5.378
 1843WAT     H1 5771   5.849   6.604   5.347
 1843WAT     H2 5772   5.764   6.654   5.477
 1844WAT      O 5773   9.479   0.958   9.770
 1844WAT     H1 5774   9.488   1.015   9.852
 1844WAT     H2 5775   9.459   0.864   9.796
 1845WAT      O 5776   8.573   3.890   0.887
 1845WAT     H1 5777   8.494   3.830   0.896
 1845WAT     H2 5778   8.627   3.863   0.807
 1846WAT      O 5779   9.074   1.635   4.264
 1846WAT     H1 5780   9.061   1.701   4.338
 1846WAT     H2 5781   8.989   1.584   4.251
 1847WAT      O 5782   0.397   0.025   2.413
 1847WAT     H1 5783   0.316  -0.029   2.390
 1847WAT     H2 5784   0.383   0.071   2.501
 1848WAT      O 5785   2.787   3.160   3.729
 1848WAT     H1 5786   2.711   3.185   3.669
 1848WAT     H2 5787   2.874   3.184   3.685
 1849WAT      O 5788   7.619   3.674   5.263
 1849WAT     H1 5789   7.618   3.642   5.169
 1849WAT     H2 5790   7.539   3.636   5.312
 1850WAT      O 5791   6.840   2.435   0.206
 1850WAT     H1 5792   6.768   2.428   0.136
 1850WAT     H2 5793   6.911   2.368   0.188
 1851WAT      O 5794   2.539   9.471   8.170
 1851WAT     H1 5795   2.534   9.404   8.244
 1851WAT     H2 5796   2.516   9.561   8.205
 1852WAT      O 5797   7.365   9.422   7.112
 1852WAT     H1 5798   7.442   9.376   7.156
 1852WAT     H2 5799   7.398   9.501   7.060
 1853WAT      O 5800   5.822   3.224   7.578
 1853WAT     H1 5801   5.728   3.216   7.610
 1853WAT     H2 5802   5.824   3.267   7.488
 1854WAT      O 5803   4.773   4.782   8.541
 1854WAT     H1 5804   4.706   4.840   8.588
 1854WAT     H2 5805   4.769   4.800   8.442
 1855WAT      O 5806   4.233   3.334   3.194
 1855WAT     H1 5807   4.204   3.275   3.269
 1855WAT     H2 5808   4.285   3.281   3.127
 1856WAT      O 5809   4.967   3.002   6.928
 1856WAT     H1 5810   5.019   2.985   7.011
 1856WAT     H2 5811   4.956   3.101   6.915
 1857WAT      O 5812   0.978   9.185   4.310
 1857WAT     H1 5813   0.923   9.234   4.378
 1857WAT     H2 5814   0.938   9.198   4.219
 1858WAT      O 5815   3.991   6.592   4.435
 1858WAT     H1 5816   3.969   6.626   4.526
 1858WAT     H2 5817   3.960   6.658   4.366
 1859WAT      O 5818   7.586   6.027   4.077
 1859WAT     H1 5819   7.643   6.101   4.112
 1859WAT     H2 5820   7.490   6.047   4.097
 1860WAT      O 5821   0.763   8.870   7.853
 1860WAT     H1 5822   0.754   8.969   7.863
 1860WAT     H2 5823   0.675   8.827   7.869
 1861WAT      O 5824   6.791   4.814   9.404
 1861WAT     H1 5825   6.873   4.790   9.353
 1861WAT     H2 5826   6.709   4.786   9.353
 1862WAT      O 5827   1.140   9.705   2.845
 1862WAT     H1 5828   1.111   9.693   2.750
 1862WAT     H2 5829   1.062   9.693   2.906
 1863WAT      O 5830   6.830   0.659   3.465
 1863WAT     H1 5831   6.755   0.641   3.528
 1863WAT     H2 5832   6.915   0.624   3.504
 1864WAT      O 5833   8.783   2.228   1.013
 1864WAT     H1 5834   8.692   2.224   0.972
 1864WAT     H2 5835   8.850   2.251   0.943
 1865WAT      O 5836   0.699   7.228   6.882
 1865WAT     H1 5837   0.614   7.278   6.866
 1865WAT     H2 5838   0.683   7.155   6.948
 1866WAT      O 5839   3.910   0.530   8.109
 1866WAT     H1 5840   3.868   0.486   8.030
 1866WAT     H2 5841   4.005   0.555   8.086
 1867WAT      O 5842   4.279   7.086   2.628
 1867WAT     H1 5843   4.360   7.145   2.631
 1867WAT     H2 5844   4.226   7.099   2.711
 1868WAT      O 5845   4.036   8.345   2.631
 1868WAT     H1 5846   4.065   8.412   2.563
 1868WAT     H2 5847   4.114   8.321   2.688
 1869WAT      O 5848   7.113   1.957   6.366
 1869WAT     H1 5849   7.142   1.991   6.455
 1869WAT     H2 5850   7.025   1.999   6.342
 1870WAT      O 5851   5.224   6.348   2.401
 1870WAT     H1 5852   5.289   6.405   2.351
 1870WAT     H2 5853   5.132   6.388   2.393
 1871WAT      O 5854   6.628   6.489   3.507
 1871WAT     H1 5855   6.688   6.523   3.434
 1871WAT     H2 5856   6.596   6.566   3.562
 1872WAT      O 5857   7.525   6.814   3.433
 1872WAT     H1 5858   7.593   6.816   3.506
 1872WAT     H2 5859   7.433   6.825   3.472
 1873WAT      O 5860   8.811   6.089   8.224
 1873WAT     H1 5861   8.724   6.069   8.270
 1873WAT     H2 5862   8.792   6.135   8.137
 1874WAT      O 5863   2.939   3.052   4.560
 1874WAT     H1 5864   2.898   3.111   4.491
 1874WAT     H2 5865   2.950   3.103   4.646
 1875WAT      O 5866   4.529   0.756   1.094
 1875WAT     H1 5867   4.565   0.816   1.166
 1875WAT     H2 5868   4.520   0.663   1.129
 1876WAT      O 5869   2.919   2.620   4.359
 1876WAT     H1 5870   2.951   2.679   4.433
 1876WAT     H2 5871   2.840   2.662   4.314
 1877WAT      O 5872   7.985   2.917   2.792
 1877WAT     H1 5873   7.954   2.967   2.873
 1877WAT     H2 5874   8.015   2.983   2.722
 1878WAT      O 5875   1.422   3.614   2.442
 1878WAT     H1 5876   1.411   3.549   2.367
 1878WAT     H2 5877   1.336   3.661   2.458
 1879WAT      O 5878   2.515   4.082   0.069
 1879WAT     H1 5879   2.541   4.053   0.161
 1879WAT     H2 5880   2.441   4.149   0.075
 1880WAT      O 5881   4.947   4.984   9.624
 1880WAT     H1 5882   5.021   4.960   9.561
 1880WAT     H2 5883   4.985   5.025   9.707
 1881WAT      O 5884   6.664   5.372   2.715
 1881WAT     H1 5885   6.637   5.452   2.662
 1881WAT     H2 5886   6.762   5.373   2.730
 1882WAT      O 5887   7.171   1.120   7.458
 1882WAT     H1 5888   7.223   1.036   7.470
 1882WAT     H2 5889   7.075   1.103   7.480
 1883WAT      O 5890   9.681   0.696   3.419
 1883WAT     H1 5891   9.697   0.725   3.325
 1883WAT     H2 5892   9.769   0.677   3.464
 1884WAT      O 5893   4.711   6.824   5.752
 1884WAT     H1 5894   4.698   6.759   5.827
 1884WAT     H2 5895   4.708   6.775   5.665
 1885WAT      O 5896   4.316   4.676   4.307
 1885WAT     H1 5897   4.281   4.642   4.394
 1885WAT     H2 5898   4.398   4.625   4.282
 1886WAT      O 5899   4.736   0.694   3.435
 1886WAT     H1 5900   4.804   0.689   3.361
 1886WAT     H2 5901   4.783   0.689   3.523
 1887WAT      O 5902   1.498   1.266   7.433
 1887WAT     H1 5903   1.456   1.225   7.352
 1887WAT     H2 5904   1.568   1.332   7.405
 1888WAT      O 5905   5.457   6.828   7.767
 1888WAT     H1 5906   5.539   6.858   7.816
 1888WAT     H2 5907   5.469   6.845   7.669
 1889WAT      O 5908   9.739   2.468   3.799
 1889WAT     H1 5909   9.679   2.411   3.854
 1889WAT     H2 5910   9.793   2.527   3.859
 1890WAT      O 5911   0.872   4.308   9.210
 1890WAT     H1 5912   0.827   4.392   9.181
 1890WAT     H2 5913   0.968   4.311   9.183
 1891WAT      O 5914   0.158   3.030   3.769
 1891WAT     H1 5915   0.080   3.067   3.718
 1891WAT     H2 5916   0.130   3.008   3.862
 1892WAT      O 5917   5.353   5.188   0.774
 1892WAT     H1 5918   5.277   5.154   0.719
 1892WAT     H2 5919   5.346   5.288   0.782
 1893WAT      O 5920   5.436   4.924   2.227
 1893WAT     H1 5921   5.382   4.845   2.254
 1893WAT     H2 5922   5.504   4.944   2.298
 1894WAT      O 5923   5.563   5.385   0.010
 1894WAT     H1 5924   5.661   5.369   0.000
 1894WAT     H2 5925   5.547   5.452   0.083
 1895WAT      O 5926   4.033   6.097   2.156
 1895WAT     H1 5927   3.956   6.067   2.213
 1895WAT     H2 5928   4.112   6.038   2.173
 1896WAT      O 5929   0.325   1.189   1.423
 1896WAT     H1 5930   0.356   1.204   1.329
 1896WAT     H2 5931   0.289   1.096   1.430
 1897WAT      O 5932   0.312   0.234   1.115
 1897WAT     H1 5933   0.383   0.166   1.132
 1897WAT     H2 5934   0.260   0.249   1.199
 1898WAT      O 5935   1.027   9.607   1.166
 1898WAT     H1 5936   0.928   9.616   1.160
 1898WAT     H2 5937   1.052   9.553   1.246
 1899WAT      O 5938   8.567   8.211   6.873
 1899WAT     H1 5939   8.499   8.139   6.860
 1899WAT     H2 5940   8.533   8.277   6.940
 1900WAT      O 5941   8.476   1.255   0.302
 1900WAT     H1 5942   8.500   1.210   0.388
 1900WAT     H2 5943   8.530   1.338   0.292
 1901WAT      O 5944   5.661   8.174   9.511
 1901WAT     H1 5945   5.755   8.191   9.540
 1901WAT     H2 5946   5.613   8.120   9.581
 1902WAT      O 5947   2.389   2.493   9.076
 1902WAT     H1 5948   2.456   2.419   9.068
 1902WAT     H2 5949   2.311   2.461   9.128
 1903WAT      O 5950   6.477   7.612   2.933
 1903WAT     H1 5951   6.472   7.517   2.903
 1903WAT     H2 5952   6.516   7.616   3.025
 1904WAT      O 5953   2.171   1.123   3.197
 1904WAT     H1 5954   2.215   1.071   3.124
 1904WAT     H2 5955   2.077   1.090   3.210
 1905WAT      O 5956   9.595   0.069   4.892
 1905WAT     H1 5957   9.607   0.012   4.973
 1905WAT     H2 5958   9.508   0.045   4.848
 1906WAT      O 5959   7.711   3.677   8.291
 1906WAT     H1 5960   7.769   3.596   8.275
 1906WAT     H2 5961   7.616   3.648   8.297
 1907WAT      O 5962   6.921   6.565   6.110
 1907WAT     H1 5963   6.996   6.629   6.127
 1907WAT     H2 5964   6.836   6.602   6.146
 1908WAT      O 5965   7.316   0.904   4.942
 1908WAT     H1 5966   7.233   0.958   4.934
 1908WAT     H2 5967   7.294   0.807   4.930
 1909WAT      O 5968   7.266   0.226   4.319
 1909WAT     H1 5969   7.279   0.251   4.223
 1909WAT     H2 5970   7.353   0.197   4.358
 1910WAT      O 5971   9.883   0.684   7.429
 1910WAT     H1 5972   9.825   0.761   7.402
 1910WAT     H2 5973   9.865   0.662   7.525
 1911WAT      O 5974   6.397   7.662   7.584
 1911WAT     H1 5975   6.342   7.715   7.648
 1911WAT     H2 5976   6.355   7.667   7.493
 1912WAT      O 5977   9.284   4.278   6.573
 1912WAT     H1 5978   9.235   4.315   6.494
 1912WAT     H2 5979   9.333   4.352   6.619
 1913WAT      O 5980   6.739   8.579   6.301
 1913WAT     H1 5981   6.647   8.566   6.336
 1913WAT     H2 5982   6.775   8.492   6.267
 1914WAT      O 5983   8.728   8.473   4.668
 1914WAT     H1 5984   8.750   8.458   4.572
 1914WAT     H2 5985   8.674   8.396   4.702
 1915WAT      O 5986   1.269   3.995   7.737
 1915WAT     H1 5987   1.337   3.956   7.675
 1915WAT     H2 5988   1.236   4.082   7.699
 1916WAT      O 5989   2.379   8.678   4.110
 1916WAT     H1 5990   2.467   8.637   4.085
 1916WAT     H2 5991   2.364   8.761   4.056
 1917WAT      O 5992   8.615   1.259   8.093
 1917WAT     H1 5993   8.516   1.261   8.080
 1917WAT     H2 5994   8.652   1.171   8.063
 1918WAT      O 5995   7.536   4.645   1.107
 1918WAT     H1 5996   7.486   4.645   1.194
 1918WAT     H2 5997   7.597   4.566   1.102
 1919WAT      O 5998   3.308   5.276   6.119
 1919WAT     H1 5999   3.254   5.240   6.195
 1919WAT     H2 6000   3.383   5.332   6.154
 1920WAT      O 6001   2.207   7.608   9.619
 1920WAT     H1 6002   2.129   7.547   9.634
 1920WAT     H2 6003   2.210   7.635   9.523
 1921WAT      O 6004   0.481   2.641   2.145
 1921WAT     H1 6005   0.422   2.586   2.087
 1921WAT     H2 6006   0.526   2.711   2.089
 1922WAT      O 6007   1.869   1.611   1.430
 1922WAT     H1 6008   1.863   1.662   1.344
 1922WAT     H2 6009   1.956   1.561   1.432
 1923WAT      O 6010   6.027   3.139   5.663
 1923WAT     H1 6011   6.061   3.232   5.656
 1923WAT     H2 6012   5.951   3.136   5.729
 1924WAT      O 6013   0.064   8.884   0.597
 1924WAT     H1 6014   0.101   8.977   0.596
 1924WAT     H2 6015   0.003   8.874   0.675
 1925WAT      O 6016   9.095   2.243   2.971
 1925WAT     H1 6017   9.175   2.248   3.030
 1925WAT     H2 6018   9.029   2.313   2.997
 1926WAT      O 6019   1.460   1.821   2.540
 1926WAT     H1 6020   1.414   1.763   2.473
 1926WAT     H2 6021   1.421   1.913   2.536
 1927WAT      O 6022   5.650   6.144   9.355
 1927WAT     H1 6023   5.693   6.191   9.279
 1927WAT     H2 6024   5.624   6.051   9.326
 1928WAT      O 6025   2.453   2.690   6.497
 1928WAT     H1 6026   2.366   2.647   6.522
 1928WAT     H2 6027   2.442   2.789   6.491
 1929WAT      O 6028   3.695   5.547   2.406
 1929WAT     H1 6029   3.747   5.610   2.348
 1929WAT     H2 6030   3.704   5.575   2.502
 1930WAT      O 6031   5.966   8.839   9.625
 1930WAT     H1 6032   6.016   8.815   9.708
 1930WAT     H2 6033   6.032   8.858   9.551
 1931WAT      O 6034   0.649   5.650   7.561
 1931WAT     H1 6035   0.677   5.554   7.563
 1931WAT     H2 6036   0.556   5.657   7.526
 1932WAT      O 6037   1.795   6.838   2.293
 1932WAT     H1 6038   1.847   6.888   2.363
 1932WAT     H2 6039   1.698   6.848   2.311
 1933WAT      O 6040   5.789   9.460   0.930
 1933WAT     H1 6041   5.735   9.433   0.850
 1933WAT     H2 6042   5.727   9.485   1.004
 1934WAT      O 6043   3.669   1.439   5.383
 1934WAT     H1 6044   3.581   1.400   5.409
 1934WAT     H2 6045   3.662   1.480   5.292
 1935WAT      O 6046   1.227   7.668   5.571
 1935WAT     H1 6047   1.311   7.705   5.531
 1935WAT     H2 6048   1.242   7.648   5.667
 1936WAT      O 6049   7.049   9.235   8.857
 1936WAT     H1 6050   7.038   9.136   8.848
 1936WAT     H2 6051   6.965   9.275   8.893
 1937WAT      O 6052   3.522   4.128   5.121
 1937WAT     H1 6053   3.539   4.099   5.215
 1937WAT     H2 6054   3.506   4.048   5.064
 1938WAT      O 6055   8.329   4.362   0.826
 1938WAT     H1 6056   8.398   4.371   0.754
 1938WAT     H2 6057   8.238   4.364   0.784
 1939WAT      O 6058   2.333   4.772   1.529
 1939WAT     H1 6059   2.306   4.860   1.489
 1939WAT     H2 6060   2.277   4.754   1.610
 1940WAT      O 6061   5.684   7.358   6.747
 1940WAT     H1 6062   5.724   7.284   6.692
 1940WAT     H2 6063   5.682   7.331   6.843
 1941WAT      O 6064   8.844   1.346   3.937
 1941WAT     H1 6065   8.890   1.267   3.978
 1941WAT     H2 6066   8.745   1.332   3.941
 1942WAT      O 6067   3.689   5.020   4.239
 1942WAT     H1 6068   3.620   5.063   4.182
 1942WAT     H2 6069   3.670   5.039   4.335
 1943WAT      O 6070   6.152   4.512   6.055
 1943WAT     H1 6071   6.173   4.415   6.065
 1943WAT     H2 6072   6.141   4.534   5.958
 1944WAT      O 6073   9.513   7.888   4.031
 1944WAT     H1 6074   9.525   7.984   4.006
 1944WAT     H2 6075   9.418   7.873   4.060
 1945WAT      O 6076   3.314   5.513   0.270
 1945WAT     H1 6077   3.353   5.436   0.219
 1945WAT     H2 6078   3.374   5.536   0.347
 1946WAT      O 6079   2.819   3.032   9.747
 1946WAT     H1 6080   2.857   2.968   9.681
 1946WAT     H2 6081   2.785   3.113   9.699
 1947WAT      O 6082   8.798   6.165   6.822
 1947WAT     H1 6083   8.869   6.102   6.855
 1947WAT     H2 6084   8.742   6.119   6.753
 1948WAT      O 6085   2.199   7.747   1.346
 1948WAT     H1 6086   2.100   7.730   1.352
 1948WAT     H2 6087   2.216   7.815   1.274
 1949WAT      O 6088   7.697   5.523   5.170
 1949WAT     H1 6089   7.641   5.495   5.092
 1949WAT     H2 6090   7.643   5.515   5.254
 1950WAT      O 6091   4.323   6.250   6.613
 1950WAT     H1 6092   4.312   6.154   6.589
 1950WAT     H2 6093   4.400   6.289   6.562
 1951WAT      O 6094   2.259   8.362   3.997
 1951WAT     H1 6095   2.300   8.320   3.916
 1951WAT     H2 6096   2.207   8.443   3.970
 1952WAT      O 6097   5.293   8.846   5.111
 1952WAT     H1 6098   5.214   8.848   5.172
 1952WAT     H2 6099   5.340   8.758   5.120
 1953WAT      O 6100   8.159   2.105   5.172
 1953WAT     H1 6101   8.102   2.148   5.242
 1953WAT     H2 6102   8.200   2.177   5.114
 1954WAT      O 6103   3.747   8.576   0.537
 1954WAT     H1 6104   3.648   8.570   0.549
 1954WAT     H2 6105   3.771   8.559   0.442
 1955WAT      O 6106   5.329   2.845   8.977
 1955WAT     H1 6107   5.308   2.748   8.990
 1955WAT     H2 6108   5.428   2.858   8.983
 1956WAT      O 6109   3.336   1.651   4.492
 1956WAT     H1 6110   3.240   1.672   4.512
 1956WAT     H2 6111   3.383   1.735   4.466
 1957WAT      O 6112   6.366   8.352   9.751
 1957WAT     H1 6113   6.422   8.356   9.669
 1957WAT     H2 6114   6.321   8.440   9.765
 1958WAT      O 6115   1.440   1.308   1.482
 1958WAT     H1 6116   1.452   1.234   1.548
 1958WAT     H2 6117   1.479   1.392   1.519
 1959WAT      O 6118   6.373   3.511   2.078
 1959WAT     H1 6119   6.321   3.431   2.109
 1959WAT     H2 6120   6.464   3.510   2.121
 1960WAT      O 6121   8.514   0.420   9.024
 1960WAT     H1 6122   8.439   0.442   8.962
 1960WAT     H2 6123   8.601   0.441   8.981
 1961WAT      O 6124   7.266   6.213   9.113
 1961WAT     H1 6125   7.331   6.256   9.175
 1961WAT     H2 6126   7.223   6.282   9.055
 1962WAT      O 6127   6.940   7.245   5.930
 1962WAT     H1 6128   6.989   7.202   5.854
 1962WAT     H2 6129   6.867   7.184   5.962
 1963WAT      O 6130   1.841   6.060   8.605
 1963WAT     H1 6131   1.918   6.027   8.550
 1963WAT     H2 6132   1.860   6.153   8.636
 1964WAT      O 6133   7.757   9.782   1.810
 1964WAT     H1 6134   7.702   9.772   1.893
 1964WAT     H2 6135   7.850   9.751   1.827
 1965WAT      O 6136   2.260   9.248   9.498
 1965WAT     H1 6137   2.336   9.270   9.559
 1965WAT     H2 6138   2.177   9.291   9.532
 1966WAT      O 6139   0.725   6.887   8.898
 1966WAT     H1 6140   0.788   6.810   8.910
 1966WAT     H2 6141   0.691   6.888   8.804
 1967WAT      O 6142   3.020   3.974   7.949
 1967WAT     H1 6143   3.115   3.958   7.973
 1967WAT     H2 6144   2.962   3.959   8.030
 1968WAT      O 6145   8.399   4.685   6.403
 1968WAT     H1 6146   8.320   4.624   6.389
 1968WAT     H2 6147   8.438   4.668   6.493
 1969WAT      O 6148   1.945   0.173   1.287
 1969WAT     H1 6149   1.888   0.171   1.369
 1969WAT     H2 6150   2.011   0.248   1.293
 1970WAT      O 6151   3.906   7.156   6.258
 1970WAT     H1 6152   3.851   7.196   6.184
 1970WAT     H2 6153   3.995   7.128   6.222
 1971WAT      O 6154   4.059   9.745   7.432
 1971WAT     H1 6155   4.040   9.668   7.493
 1971WAT     H2 6156   4.154   9.740   7.400
 1972WAT      O 6157   0.063   7.137   6.090
 1972WAT     H1 6158   0.139   7.194   6.120
 1972WAT     H2 6159   0.068   7.048   6.134
 1973WAT      O 6160   1.519   3.988   4.650
 1973WAT     H1 6161   1.543   3.909   4.707
 1973WAT     H2 6162   1.502   4.067   4.709
 1974WAT      O 6163   9.812   3.911   4.244
 1974WAT     H1 6164   9.827   3.960   4.330
 1974WAT     H2 6165   9.755   3.831   4.260
 1975WAT      O 6166   9.315   0.469   3.033
 1975WAT     H1 6167   9.356   0.380   3.018
 1975WAT     H2 6168   9.347   0.507   3.120
 1976WAT      O 6169   8.355   0.157   5.817
 1976WAT     H1 6170   8.435   0.176   5.760
 1976WAT     H2 6171   8.370   0.071   5.867
 1977WAT      O 6172   2.737   9.353   5.665
 1977WAT     H1 6173   2.775   9.442   5.690
 1977WAT     H2 6174   2.655   9.366   5.610
 1978WAT      O 6175   5.017   5.746   3.039
 1978WAT     H1 6176   4.998   5.664   3.094
 1978WAT     H2 6177   4.937   5.768   2.984
 1979WAT      O 6178   0.447   4.576   9.814
 1979WAT     H1 6179   0.366   4.631   9.836
 1979WAT     H2 6180   0.419   4.483   9.791
 1980WAT      O 6181   5.234   9.110   9.423
 1980WAT     H1 6182   5.155   9.062   9.384
 1980WAT     H2 6183   5.213   9.207   9.429
 1981WAT      O 6184   6.406   8.923   6.080
 1981WAT     H1 6185   6.481   8.857   6.087
 1981WAT     H2 6186   6.430   9.008   6.126
 1982WAT      O 6187   4.916   8.277   4.818
 1982WAT     H1 6188   4.891   8.370   4.794
 1982WAT     H2 6189   4.962   8.276   4.906
 1983WAT      O 6190   9.841   2.689   7.162
 1983WAT     H1 6191   9.874   2.703   7.069
 1983WAT     H2 6192   9.894   2.747   7.225
 1984WAT      O 6193   4.338   2.903   7.107
 1984WAT     H1 6194   4.330   2.890   7.008
 1984WAT     H2 6195   4.274   2.842   7.154
 1985WAT      O 6196   6.731   8.043   1.204
 1985WAT     H1 6197   6.697   8.044   1.110
 1985WAT     H2 6198   6.659   8.076   1.265
 1986WAT      O 6199   0.692   4.186   1.760
 1986WAT     H1 6200   0.758   4.195   1.834
 1986WAT     H2 6201   0.606   4.228   1.786
 1987WAT      O 6202   6.581   7.424   4.904
 1987WAT     H1 6203   6.644   7.475   4.963
 1987WAT     H2 6204   6.607   7.327   4.904
 1988WAT      O 6205   7.291   8.114   8.077
 1988WAT     H1 6206   7.226   8.173   8.028
 1988WAT     H2 6207   7.371   8.168   8.103
 1989WAT      O 6208   5.737   5.085   5.980
 1989WAT     H1 6209   5.751   4.987   5.965
 1989WAT     H2 6210   5.740   5.133   5.893
 1990WAT      O 6211   8.526   1.971   5.326
 1990WAT     H1 6212   8.476   1.952   5.410
 1990WAT     H2 6213   8.573   1.888   5.295
 1991WAT      O 6214   6.841   4.630   1.528
 1991WAT     H1 6215   6.875   4.540   1.499
 1991WAT     H2 6216   6.862   4.698   1.458
 1992WAT      O 6217   4.183   2.083   4.537
 1992WAT     H1 6218   4.248   2.081   4.461
 1992WAT     H2 6219   4.125   2.002   4.532
 1993WAT      O 6220   3.858   9.414   3.709
 1993WAT     H1 6221   3.853   9.436   3.612
 1993WAT     H2 6222   3.946   9.446   3.746
 1994WAT      O 6223   2.702   7.660   5.440
 1994WAT     H1 6224   2.754   7.653   5.526
 1994WAT     H2 6225   2.699   7.755   5.411
 1995WAT      O 6226   9.157   6.812   1.624
 1995WAT     H1 6227   9.247   6.791   1.662
 1995WAT     H2 6228   9.107   6.873   1.686
 1996WAT      O 6229   6.108   9.580   8.061
 1996WAT     H1 6230   6.045   9.510   8.096
 1996WAT     H2 6231   6.172   9.606   8.132
 1997WAT      O 6232   9.058   9.551   5.143
 1997WAT     H1 6233   9.034   9.547   5.046
 1997WAT     H2 6234   9.120   9.628   5.159
 1998WAT      O 6235   2.946   6.581   0.995
 1998WAT     H1 6236   2.861   6.623   0.963
 1998WAT     H2 6237   2.975   6.626   1.080
 1999WAT      O 6238   7.362   3.160   6.312
 1999WAT     H1 6239   7.357   3.242   6.255
 1999WAT     H2 6240   7.271   3.138   6.347
 2000WAT      O 6241   7.966   1.685   5.671
 2000WAT     H1 6242   8.023   1.630   5.609
 2000WAT     H2 6243   7.920   1.625   5.736
 2001WAT      O 6244   8.248   8.754   8.100
 2001WAT     H1 6245   8.216   8.836   8.053
 2001WAT     H2 6246   8.335   8.772   8.145
 2002WAT      O 6247   9.426   1.579   5.732
 2002WAT     H1 6248   9.327   1.587   5.739
 2002WAT     H2 6249   9.453   1.484   5.747
 2003WAT      O 6250   8.029   6.302   1.997
 2003WAT     H1 6251   8.126   6.309   1.973
 2003WAT     H2 6252   7.975   6.284   1.915
 2004WAT      O 6253   9.063   8.557   5.356
 2004WAT     H1 6254   9.028   8.604   5.438
 2004WAT     H2 6255   8.995   8.563   5.283
 2005WAT      O 6256   2.513   1.389   1.021
 2005WAT     H1 6257   2.420   1.395   0.984
 2005WAT     H2 6258   2.532   1.470   1.077
 2006WAT      O 6259   1.348   2.722   1.199
 2006WAT     H1 6260   1.258   2.764   1.190
 2006WAT     H2 6261   1.418   2.786   1.168
 2007WAT      O 6262   1.653   7.776   7.021
 2007WAT     H1 6263   1.612   7.852   6.972
 2007WAT     H2 6264   1.659   7.696   6.961
 2008WAT      O 6265   6.591   6.273   2.274
 2008WAT     H1 6266   6.492   6.258   2.277
 2008WAT     H2 6267   6.627   6.239   2.187
 2009WAT      O 6268   2.276   1.206   6.400
 2009WAT     H1 6269   2.282   1.293   6.448
 2009WAT     H2 6270   2.289   1.130   6.464
 2010WAT      O 6271   0.836   3.862   2.392
 2010WAT     H1 6272   0.825   3.849   2.294
 2010WAT     H2 6273   0.887   3.785   2.431
 2011WAT      O 6274   0.076   3.656   2.076
 2011WAT     H1 6275   0.059   3.746   2.115
 2011WAT     H2 6276   0.170   3.652   2.041
 2012WAT      O 6277   9.097   6.108   0.108
 2012WAT     H1 6278   9.077   6.029   0.050
 2012WAT     H2 6279   9.181   6.089   0.160
 2013WAT      O 6280   6.459   4.107   4.051
 2013WAT     H1 6281   6.362   4.092   4.027
 2013WAT     H2 6282   6.516   4.044   3.998
 2014WAT      O 6283   0.510   4.778   5.507
 2014WAT     H1 6284   0.572   4.758   5.583
 2014WAT     H2 6285   0.421   4.736   5.524
 2015WAT      O 6286   5.699   6.880   3.871
 2015WAT     H1 6287   5.750   6.805   3.829
 2015WAT     H2 6288   5.761   6.935   3.928
 2016WAT      O 6289   3.448   4.106   8.035
 2016WAT     H1 6290   3.469   4.173   7.964
 2016WAT     H2 6291   3.500   4.128   8.118
 2017WAT      O 6292   2.928   9.562   6.007
 2017WAT     H1 6293   2.938   9.466   6.033
 2017WAT     H2 6294   2.909   9.617   6.089
 2018WAT      O 6295   5.259   7.755   7.373
 2018WAT     H1 6296   5.222   7.797   7.456
 2018WAT     H2 6297   5.335   7.695   7.397
 2019WAT      O 6298   6.522   6.112   6.596
 2019WAT     H1 6299   6.427   6.103   6.626
 2019WAT     H2 6300   6.583   6.082   6.670
 2020WAT      O 6301   6.139   9.699   5.285
 2020WAT     H1 6302   6.133   9.795   5.310
 2020WAT     H2 6303   6.121   9.689   5.187
 2021WAT      O 6304   4.005   6.423   1.308
 2021WAT     H1 6305   4.083   6.485   1.316
 2021WAT     H2 6306   3.939   6.442   1.381
 2022WAT      O 6307   0.206   5.478   7.544
 2022WAT     H1 6308   0.166   5.386   7.535
 2022WAT     H2 6309   0.134   5.547   7.532
 2023WAT      O 6310   3.767   4.210   4.570
 2023WAT     H1 6311   3.824   4.286   4.601
 2023WAT     H2 6312   3.812   4.163   4.494
 2024WAT      O 6313   4.369   3.058   1.440
 2024WAT     H1 6314   4.278   3.019   1.451
 2024WAT     H2 6315   4.419   3.052   1.527
 2025WAT      O 6316   1.223   9.181   0.354
 2025WAT     H1 6317   1.173   9.184   0.268
 2025WAT     H2 6318   1.261   9.089   0.366
 2026WAT      O 6319   8.311   1.137   4.252
 2026WAT     H1 6320   8.263   1.054   4.223
 2026WAT     H2 6321   8.252   1.216   4.235
 2027WAT      O 6322   6.960   9.130   9.471
 2027WAT     H1 6323   6.939   9.215   9.423
 2027WAT     H2 6324   7.047   9.139   9.520
 2028WAT      O 6325   3.821   5.556   4.578
 2028WAT     H1 6326   3.808   5.627   4.647
 2028WAT     H2 6327   3.736   5.541   4.529
 2029WAT      O 6328   6.533   7.252   0.167
 2029WAT     H1 6329   6.454   7.230   0.110
 2029WAT     H2 6330   6.504   7.307   0.245
 2030WAT      O 6331   1.223   3.253   4.458
 2030WAT     H1 6332   1.232   3.299   4.546
 2030WAT     H2 6333   1.135   3.276   4.417
 2031WAT      O 6334   6.295   5.528   0.612
 2031WAT     H1 6335   6.213   5.581   0.590
 2031WAT     H2 6336   6.336   5.564   0.696
 2032WAT      O 6337   5.899   2.257   4.567
 2032WAT     H1 6338   5.816   2.308   4.592
 2032WAT     H2 6339   5.875   2.162   4.549
 2033WAT      O 6340   7.221   6.998   3.767
 2033WAT     H1 6341   7.286   7.060   3.813
 2033WAT     H2 6342   7.133   7.044   3.756
 2034WAT      O 6343   0.110   6.286   0.372
 2034WAT     H1 6344   0.063   6.330   0.449
 2034WAT     H2 6345   0.046   6.275   0.296
 2035WAT      O 6346   0.957   7.420   4.430
 2035WAT     H1 6347   0.881   7.409   4.367
 2035WAT     H2 6348   1.011   7.500   4.403
 2036WAT      O 6349   4.059   0.694   3.724
 2036WAT     H1 6350   4.113   0.628   3.776
 2036WAT     H2 6351   3.974   0.712   3.773
 2037WAT      O 6352   9.156   1.723   8.785
 2037WAT     H1 6353   9.092   1.658   8.827
 2037WAT     H2 6354   9.105   1.793   8.736
 2038WAT      O 6355   7.023   4.686   8.755
 2038WAT     H1 6356   7.068   4.598   8.772
 2038WAT     H2 6357   6.968   4.680   8.672
 2039WAT      O 6358   5.435   3.207   2.178
 2039WAT     H1 6359   5.351   3.198   2.230
 2039WAT     H2 6360   5.496   3.130   2.198
 2040WAT      O 6361   6.520   5.125   5.196
 2040WAT     H1 6362   6.428   5.085   5.196
 2040WAT     H2 6363   6.548   5.146   5.103
 2041WAT      O 6364   1.725   1.928   6.402
 2041WAT     H1 6365   1.680   1.955   6.317
 2041WAT     H2 6366   1.780   2.004   6.437
 2042WAT      O 6367   0.291   2.409   3.982
 2042WAT     H1 6368   0.321   2.449   3.896
 2042WAT     H2 6369   0.367   2.412   4.048
 2043WAT      O 6370   2.490   8.229   9.046
 2043WAT     H1 6371   2.473   8.265   8.954
 2043WAT     H2 6372   2.403   8.211   9.092
 2044WAT      O 6373   2.702   2.218   7.766
 2044WAT     H1 6374   2.629   2.286   7.766
 2044WAT     H2 6375   2.667   2.132   7.805
 2045WAT      O 6376   7.298   8.102   6.924
 2045WAT     H1 6377   7.395   8.120   6.906
 2045WAT     H2 6378   7.271   8.016   6.881
 2046WAT      O 6379   6.796   1.867   5.540
 2046WAT     H1 6380   6.856   1.798   5.500
 2046WAT     H2 6381   6.773   1.934   5.469
 2047WAT      O 6382   4.884   1.449   3.784
 2047WAT     H1 6383   4.973   1.492   3.797
 2047WAT     H2 6384   4.897   1.355   3.753
 2048WAT      O 6385   3.616   1.388   7.333
 2048WAT     H1 6386   3.709   1.381   7.297
 2048WAT     H2 6387   3.592   1.303   7.380
 2049WAT      O 6388   3.788   9.743   9.723
 2049WAT     H1 6389   3.842   9.689   9.657
 2049WAT     H2 6390   3.725   9.802   9.673
 2050WAT      O 6391   9.883   3.177   0.686
 2050WAT     H1 6392   9.967   3.139   0.647
 2050WAT     H2 6393   9.844   3.111   0.750
 2051WAT      O 6394   5.579   7.648   8.421
 2051WAT     H1 6395   5.555   7.671   8.516
 2051WAT     H2 6396   5.678   7.639   8.413
 2052WAT      O 6397   8.504   1.852   1.002
 2052WAT     H1 6398   8.510   1.888   0.909
 2052WAT     H2 6399   8.419   1.884   1.045
 2053WAT      O 6400   6.657   7.901   6.584
 2053WAT     H1 6401   6.630   7.840   6.510
 2053WAT     H2 6402   6.615   7.871   6.670
 2054WAT      O 6403   2.464   9.161   8.643
 2054WAT     H1 6404   2.426   9.253   8.647
 2054WAT     H2 6405   2.556   9.164   8.605
 2055WAT      O 6406   4.349   8.096   1.942
 2055WAT     H1 6407   4.267   8.125   1.892
 2055WAT     H2 6408   4.322   8.052   2.028
 2056WAT      O 6409   2.054   6.859   0.728
 2056WAT     H1 6410   2.144   6.869   0.685
 2056WAT     H2 6411   2.048   6.769   0.771
 2057WAT      O 6412   8.337   8.663   1.379
 2057WAT     H1 6413   8.432   8.652   1.350
 2057WAT     H2 6414   8.323   8.615   1.466
 2058WAT      O 6415   5.433   5.915   8.685
 2058WAT     H1 6416   5.495   5.973   8.737
 2058WAT     H2 6417   5.464   5.911   8.589
 2059WAT      O 6418   8.096   0.132   7.008
 2059WAT     H1 6419   8.195   0.121   7.001
 2059WAT     H2 6420   8.052   0.088   6.929
 2060WAT      O 6421   0.030   8.269   7.259
 2060WAT     H1 6422  -0.053   8.324   7.268
 2060WAT     H2 6423   0.005   8.175   7.235
 2061WAT      O 6424   6.386   3.331   6.811
 2061WAT     H1 6425   6.370   3.246   6.862
 2061WAT     H2 6426   6.473   3.371   6.839
 2062WAT      O 6427   5.114   0.990   9.888
 2062WAT     H1 6428   5.184   1.059   9.904
 2062WAT     H2 6429   5.049   1.023   9.819
 2063WAT      O 6430   6.209   2.376   8.046
 2063WAT     H1 6431   6.300   2.394   8.083
 2063WAT     H2 6432   6.180   2.454   7.990
 2064WAT      O 6433   2.306   8.630   7.722
 2064WAT     H1 6434   2.215   8.589   7.723
 2064WAT     H2 6435   2.367   8.575   7.665
 2065WAT      O 6436   3.940   3.182   9.272
 2065WAT     H1 6437   3.898   3.201   9.183
 2065WAT     H2 6438   3.988   3.263   9.304
 2066WAT      O 6439   9.741   0.928   0.847
 2066WAT     H1 6440   9.720   0.950   0.942
 2066WAT     H2 6441   9.698   0.841   0.822
 2067WAT      O 6442   8.657   5.322   0.447
 2067WAT     H1 6443   8.719   5.243   0.439
 2067WAT     H2 6444   8.569   5.292   0.483
 2068WAT      O 6445   0.923   6.048   7.019
 2068WAT     H1 6446   0.934   5.962   6.969
 2068WAT     H2 6447   0.947   6.035   7.115
 2069WAT      O 6448   0.745   9.216   3.375
 2069WAT     H1 6449   0.718   9.296   3.428
 2069WAT     H2 6450   0.687   9.139   3.399
 2070WAT      O 6451   1.765   7.212   4.131
 2070WAT     H1 6452   1.727   7.187   4.042
 2070WAT     H2 6453   1.864   7.222   4.123
 2071WAT      O 6454   6.050   1.810   0.827
 2071WAT     H1 6455   5.985   1.785   0.755
 2071WAT     H2 6456   6.094   1.727   0.861
 2072WAT      O 6457   0.894   1.418   8.634
 2072WAT     H1 6458   0.817   1.409   8.572
 2072WAT     H2 6459   0.908   1.515   8.657
 2073WAT      O 6460   7.416   9.527   7.884
 2073WAT     H1 6461   7.364   9.519   7.799
 2073WAT     H2 6462   7.355   9.519   7.962
 2074WAT      O 6463   3.528   8.011   5.509
 2074WAT     H1 6464   3.497   7.983   5.600
 2074WAT     H2 6465   3.563   7.930   5.460
 2075WAT      O 6466   0.742   9.538   3.782
 2075WAT     H1 6467   0.705   9.479   3.854
 2075WAT     H2 6468   0.720   9.499   3.693
 2076WAT      O 6469   3.221   4.015   0.689
 2076WAT     H1 6470   3.241   4.113   0.677
 2076WAT     H2 6471   3.286   3.975   0.753
 2077WAT      O 6472   5.202   0.847   6.218
 2077WAT     H1 6473   5.131   0.900   6.265
 2077WAT     H2 6474   5.259   0.801   6.287
 2078WAT      O 6475   3.402   7.047   6.512
 2078WAT     H1 6476   3.433   7.059   6.607
 2078WAT     H2 6477   3.481   7.038   6.452
 2079WAT      O 6478   2.889   5.556   3.311
 2079WAT     H1 6479   2.927   5.604   3.231
 2079WAT     H2 6480   2.826   5.616   3.359
 2080WAT      O 6481   6.490   1.228   0.060
 2080WAT     H1 6482   6.467   1.146   0.006
 2080WAT     H2 6483   6.534   1.295   0.000
 2081WAT      O 6484   9.354   2.139   8.023
 2081WAT     H1 6485   9.431   2.086   8.059
 2081WAT     H2 6486   9.384   2.192   7.944
 2082WAT      O 6487   4.279   0.260   6.710
 2082WAT     H1 6488   4.360   0.302   6.750
 2082WAT     H2 6489   4.263   0.297   6.618
 2083WAT      O 6490   1.639   7.994   4.307
 2083WAT     H1 6491   1.686   8.004   4.219
 2083WAT     H2 6492   1.640   8.082   4.356
 2084WAT      O 6493   8.275   7.360   2.425
 2084WAT     H1 6494   8.184   7.331   2.395
 2084WAT     H2 6495   8.331   7.279   2.443
 2085WAT      O 6496   3.743   8.828   5.885
 2085WAT     H1 6497   3.652   8.869   5.882
 2085WAT     H2 6498   3.804   8.884   5.942
 2086WAT      O 6499   4.649   8.238   8.898
 2086WAT     H1 6500   4.618   8.291   8.976
 2086WAT     H2 6501   4.604   8.270   8.815
 2087WAT      O 6502   5.860   6.769   9.443
 2087WAT     H1 6503   5.786   6.834   9.459
 2087WAT     H2 6504   5.858   6.698   9.513
 2088WAT      O 6505   3.026   2.424   0.082
 2088WAT     H1 6506   3.007   2.442   0.178
 2088WAT     H2 6507   3.035   2.325   0.068
 2089WAT      O 6508   1.466   8.175   4.046
 2089WAT     H1 6509   1.554   8.221   4.036
 2089WAT     H2 6510   1.466   8.091   3.990
 2090WAT      O 6511   1.377   3.745   0.055
 2090WAT     H1 6512   1.403   3.807   0.129
 2090WAT     H2 6513   1.457   3.694   0.024
 2091WAT      O 6514   3.678   0.532   7.322
 2091WAT     H1 6515   3.667   0.474   7.241
 2091WAT     H2 6516   3.597   0.523   7.381
 2092WAT      O 6517   9.358   7.830   5.212
 2092WAT     H1 6518   9.354   7.877   5.124
 2092WAT     H2 6519   9.308   7.744   5.207
 2093WAT      O 6520   3.458   2.302   3.209
 2093WAT     H1 6521   3.542   2.253   3.188
 2093WAT     H2 6522   3.479   2.380   3.269
 2094WAT      O 6523   5.642   1.661   9.067
 2094WAT     H1 6524   5.736   1.696   9.076
 2094WAT     H2 6525   5.607   1.637   9.157
 2095WAT      O 6526   0.018   3.056   1.839
 2095WAT     H1 6527  -0.011   3.074   1.933
 2095WAT     H2 6528   0.001   2.960   1.818
 2096WAT      O 6529   1.792   8.604   4.845
 2096WAT     H1 6530   1.766   8.693   4.809
 2096WAT     H2 6531   1.889   8.588   4.830
 2097WAT      O 6532   1.301   0.578   5.829
 2097WAT     H1 6533   1.348   0.560   5.915
 2097WAT     H2 6534   1.203   0.583   5.844
 2098WAT      O 6535   7.800   1.246   0.315
 2098WAT     H1 6536   7.700   1.253   0.321
 2098WAT     H2 6537   7.836   1.329   0.272
 2099WAT      O 6538   4.087   1.821   9.083
 2099WAT     H1 6539   4.085   1.732   9.128
 2099WAT     H2 6540   4.095   1.893   9.153
 2100WAT      O 6541   6.107   5.788   7.914
 2100WAT     H1 6542   6.021   5.743   7.937
 2100WAT     H2 6543   6.088   5.876   7.870
 2101WAT      O 6544   6.651   7.698   7.948
 2101WAT     H1 6545   6.637   7.780   7.893
 2101WAT     H2 6546   6.743   7.699   7.987
 2102WAT      O 6547   3.621   2.983   0.303
 2102WAT     H1 6548   3.701   3.040   0.323
 2102WAT     H2 6549   3.648   2.907   0.244
 2103WAT      O 6550   8.839   3.425   4.684
 2103WAT     H1 6551   8.814   3.359   4.613
 2103WAT     H2 6552   8.910   3.486   4.650
 2104WAT      O 6553   4.609   6.292   5.564
 2104WAT     H1 6554   4.585   6.310   5.660
 2104WAT     H2 6555   4.695   6.242   5.560
 2105WAT      O 6556   6.847   1.192   2.872
 2105WAT     H1 6557   6.928   1.215   2.926
 2105WAT     H2 6558   6.770   1.173   2.933
 2106WAT      O 6559   8.201   9.822   4.471
 2106WAT     H1 6560   8.107   9.805   4.443
 2106WAT     H2 6561   8.201   9.863   4.562
 2107WAT      O 6562   3.990   4.431   6.908
 2107WAT     H1 6563   4.013   4.335   6.929
 2107WAT     H2 6564   4.000   4.486   6.991
 2108WAT      O 6565   0.799   5.367   8.894
 2108WAT     H1 6566   0.794   5.300   8.820
 2108WAT     H2 6567   0.708   5.402   8.914
 2109WAT      O 6568   9.654   5.174   1.273
 2109WAT     H1 6569   9.689   5.120   1.197
 2109WAT     H2 6570   9.673   5.128   1.359
 2110WAT      O 6571   3.614   0.613   1.731
 2110WAT     H1 6572   3.648   0.562   1.652
 2110WAT     H2 6573   3.688   0.665   1.772
 2111WAT      O 6574   7.927   6.971   7.950
 2111WAT     H1 6575   7.862   6.897   7.964
 2111WAT     H2 6576   7.982   6.982   8.033
 2112WAT      O 6577   5.075   4.025   8.706
 2112WAT     H1 6578   4.997   4.084   8.727
 2112WAT     H2 6579   5.154   4.053   8.761
 2113WAT      O 6580   0.890   0.406   7.281
 2113WAT     H1 6581   0.866   0.364   7.369
 2113WAT     H2 6582   0.950   0.344   7.230
 2114WAT      O 6583   6.024   5.406   2.966
 2114WAT     H1 6584   6.007   5.502   2.941
 2114WAT     H2 6585   6.056   5.402   3.061
 2115WAT      O 6586   4.856   8.407   4.128
 2115WAT     H1 6587   4.797   8.358   4.192
 2115WAT     H2 6588   4.827   8.388   4.034
 2116WAT      O 6589   7.572   0.847   3.146
 2116WAT     H1 6590   7.495   0.862   3.084
 2116WAT     H2 6591   7.539   0.803   3.229
 2117WAT      O 6592   7.711   9.775   6.921
 2117WAT     H1 6593   7.804   9.805   6.944
 2117WAT     H2 6594   7.715   9.709   6.847
 2118WAT      O 6595   6.188   5.387   2.624
 2118WAT     H1 6596   6.119   5.449   2.661
 2118WAT     H2 6597   6.143   5.318   2.567
 2119WAT      O 6598   5.175   1.981   7.326
 2119WAT     H1 6599   5.216   1.983   7.235
 2119WAT     H2 6600   5.099   1.917   7.327
 2120WAT      O 6601   5.790   9.421   4.237
 2120WAT     H1 6602   5.692   9.435   4.251
 2120WAT     H2 6603   5.831   9.388   4.321
 2121WAT      O 6604   2.585   2.556   4.580
 2121WAT     H1 6605   2.600   2.649   4.545
 2121WAT     H2 6606   2.489   2.544   4.605
 2122WAT      O 6607   7.780   4.642   8.166
 2122WAT     H1 6608   7.830   4.591   8.097
 2122WAT     H2 6609   7.784   4.740   8.145
 2123WAT      O 6610   6.772   3.829   6.183
 2123WAT     H1 6611   6.841   3.777   6.133
 2123WAT     H2 6612   6.797   3.835   6.280
 2124WAT      O 6613   3.647   7.510   2.605
 2124WAT     H1 6614   3.603   7.476   2.688
 2124WAT     H2 6615   3.743   7.531   2.624
 2125WAT      O 6616   1.804   6.161   8.017
 2125WAT     H1 6617   1.771   6.126   7.930
 2125WAT     H2 6618   1.836   6.255   8.005
 2126WAT      O 6619   2.212   4.887   5.047
 2126WAT     H1 6620   2.229   4.890   4.949
 2126WAT     H2 6621   2.117   4.915   5.065
 2127WAT      O 6622   4.309   6.770   5.380
 2127WAT     H1 6623   4.302   6.773   5.280
 2127WAT     H2 6624   4.404   6.784   5.407
 2128WAT      O 6625   2.295   3.920   8.012
 2128WAT     H1 6626   2.272   3.884   8.102
 2128WAT     H2 6627   2.384   3.885   7.983
 2129WAT      O 6628   9.691   1.782   1.225
 2129WAT     H1 6629   9.763   1.836   1.181
 2129WAT     H2 6630   9.672   1.701   1.170
 2130WAT      O 6631   2.658   3.589   3.910
 2130WAT     H1 6632   2.738   3.536   3.883
 2130WAT     H2 6633   2.627   3.557   4.000
 2131WAT      O 6634   8.580   3.524   7.156
 2131WAT     H1 6635   8.512   3.552   7.089
 2131WAT     H2 6636   8.539   3.458   7.220
 2132WAT      O 6637   6.795   0.891   0.614
 2132WAT     H1 6638   6.698   0.875   0.628
 2132WAT     H2 6639   6.816   0.890   0.516
 2133WAT      O 6640   7.218   0.519   2.127
 2133WAT     H1 6641   7.261   0.608   2.137
 2133WAT     H2 6642   7.263   0.453   2.188
 2134WAT      O 6643   5.660   0.280   7.315
 2134WAT     H1 6644   5.697   0.232   7.236
 2134WAT     H2 6645   5.655   0.218   7.393
 2135WAT      O 6646   3.650   8.699   3.972
 2135WAT     H1 6647   3.619   8.713   4.066
 2135WAT     H2 6648   3.600   8.759   3.911
 2136WAT      O 6649   3.980   9.486   2.208
 2136WAT     H1 6650   4.032   9.521   2.130
 2136WAT     H2 6651   3.892   9.533   2.213
 2137WAT      O 6652   0.195   6.893   3.200
 2137WAT     H1 6653   0.256   6.815   3.186
 2137WAT     H2 6654   0.234   6.953   3.270
 2138WAT      O 6655   1.783   3.744   4.315
 2138WAT     H1 6656   1.786   3.826   4.372
 2138WAT     H2 6657   1.690   3.733   4.278
 2139WAT      O 6658   3.515   1.785   3.218
 2139WAT     H1 6659   3.600   1.837   3.228
 2139WAT     H2 6660   3.437   1.844   3.241
 2140WAT      O 6661   8.708   0.277   7.243
 2140WAT     H1 6662   8.780   0.210   7.224
 2140WAT     H2 6663   8.631   0.262   7.182
 2141WAT      O 6664   2.770   9.092   1.927
 2141WAT     H1 6665   2.726   9.123   2.012
 2141WAT     H2 6666   2.701   9.080   1.856
 2142WAT      O 6667   3.440   0.670   8.715
 2142WAT     H1 6668   3.489   0.624   8.641
 2142WAT     H2 6669   3.503   0.732   8.764
 2143WAT      O 6670   2.590   0.389   7.837
 2143WAT     H1 6671   2.563   0.470   7.889
 2143WAT     H2 6672   2.672   0.349   7.877
 2144WAT      O 6673   5.635   7.340   1.796
 2144WAT     H1 6674   5.731   7.367   1.793
 2144WAT     H2 6675   5.587   7.378   1.717
 2145WAT      O 6676   4.359   9.490   2.228
 2145WAT     H1 6677   4.308   9.527   2.305
 2145WAT     H2 6678   4.418   9.417   2.259
 2146WAT      O 6679   2.626   4.997   6.721
 2146WAT     H1 6680   2.697   4.935   6.755
 2146WAT     H2 6681   2.551   4.943   6.682
 2147WAT      O 6682   9.415   1.966   0.886
 2147WAT     H1 6683   9.379   2.030   0.954
 2147WAT     H2 6684   9.426   1.876   0.928
 2148WAT      O 6685   4.825   9.086   3.934
 2148WAT     H1 6686   4.819   9.186   3.940
 2148WAT     H2 6687   4.752   9.052   3.875
 2149WAT      O 6688   6.382   5.940   7.920
 2149WAT     H1 6689   6.306   5.888   7.958
 2149WAT     H2 6690   6.418   6.002   7.989
 2150WAT      O 6691   9.872   3.274   8.633
 2150WAT     H1 6692   9.838   3.345   8.694
 2150WAT     H2 6693   9.951   3.229   8.675
 2151WAT      O 6694   4.770   5.510   8.797
 2151WAT     H1 6695   4.811   5.493   8.887
 2151WAT     H2 6696   4.706   5.586   8.804
 2152WAT      O 6697   5.807   3.587   6.114
 2152WAT     H1 6698   5.783   3.613   6.208
 2152WAT     H2 6699   5.867   3.656   6.074
 2153WAT      O 6700   3.995   5.857   6.127
 2153WAT     H1 6701   3.956   5.924   6.190
 2153WAT     H2 6702   4.062   5.902   6.068
 2154WAT      O 6703   3.446   2.920   0.950
 2154WAT     H1 6704   3.465   2.864   1.032
 2154WAT     H2 6705   3.437   3.016   0.977
 2155WAT      O 6706   0.673   2.405   0.300
 2155WAT     H1 6707   0.741   2.457   0.249
 2155WAT     H2 6708   0.711   2.315   0.324
 2156WAT      O 6709   1.871   4.294   4.345
 2156WAT     H1 6710   1.801   4.348   4.392
 2156WAT     H2 6711   1.841   4.275   4.252
 2157WAT      O 6712   1.264   0.873   0.137
 2157WAT     H1 6713   1.202   0.839   0.207
 2157WAT     H2 6714   1.316   0.951   0.174
 2158WAT      O 6715   7.014   4.785   9.830
 2158WAT     H1 6716   7.064   4.704   9.801
 2158WAT     H2 6717   6.965   4.765   9.915
 2159WAT      O 6718   7.468   6.065   9.848
 2159WAT     H1 6719   7.391   6.129   9.856
 2159WAT     H2 6720   7.443   5.977   9.889
 2160WAT      O 6721   6.688   3.185   6.572
 2160WAT     H1 6722   6.690   3.278   6.610
 2160WAT     H2 6723   6.640   3.186   6.484
 2161WAT      O 6724   2.014   1.763   2.176
 2161WAT     H1 6725   2.006   1.680   2.121
 2161WAT     H2 6726   1.934   1.772   2.235
 2162WAT      O 6727   1.451   4.591   8.936
 2162WAT     H1 6728   1.468   4.525   9.009
 2162WAT     H2 6729   1.353   4.614   8.934
 2163WAT      O 6730   2.927   9.347   0.710
 2163WAT     H1 6731   3.021   9.321   0.733
 2163WAT     H2 6732   2.923   9.447   0.697
 2164WAT      O 6733   2.568   9.563   4.280
 2164WAT     H1 6734   2.600   9.609   4.197
 2164WAT     H2 6735   2.518   9.629   4.336
 2165WAT      O 6736   0.205   3.013   6.317
 2165WAT     H1 6737   0.298   2.988   6.344
 2165WAT     H2 6738   0.165   3.073   6.386
 2166WAT      O 6739   1.974   5.029   0.858
 2166WAT     H1 6740   1.885   4.985   0.860
 2166WAT     H2 6741   2.045   4.960   0.873
 2167WAT      O 6742   9.689   4.715   8.636
 2167WAT     H1 6743   9.630   4.789   8.669
 2167WAT     H2 6744   9.643   4.627   8.651
 2168WAT      O 6745   7.134   7.453   4.914
 2168WAT     H1 6746   7.064   7.392   4.877
 2168WAT     H2 6747   7.175   7.412   4.995
 2169WAT      O 6748   1.683   1.583   4.624
 2169WAT     H1 6749   1.721   1.673   4.601
 2169WAT     H2 6750   1.694   1.565   4.721
 2170WAT      O 6751   8.897   1.203   6.526
 2170WAT     H1 6752   8.914   1.134   6.596
 2170WAT     H2 6753   8.978   1.214   6.469
 2171WAT      O 6754   8.418   1.622   6.729
 2171WAT     H1 6755   8.447   1.672   6.811
 2171WAT     H2 6756   8.372   1.538   6.756
 2172WAT      O 6757   7.645   5.177   9.534
 2172WAT     H1 6758   7.733   5.225   9.526
 2172WAT     H2 6759   7.636   5.140   9.626
 2173WAT      O 6760   0.509   6.663   4.298
 2173WAT     H1 6761   0.601   6.635   4.269
 2173WAT     H2 6762   0.460   6.584   4.337
 2174WAT      O 6763   8.754   7.420   3.335
 2174WAT     H1 6764   8.684   7.367   3.289
 2174WAT     H2 6765   8.742   7.413   3.434
 2175WAT      O 6766   2.893   3.104   0.356
 2175WAT     H1 6767   2.989   3.129   0.341
 2175WAT     H2 6768   2.856   3.161   0.429
 2176WAT      O 6769   8.202   9.376   5.140
 2176WAT     H1 6770   8.242   9.466   5.124
 2176WAT     H2 6771   8.136   9.355   5.067
 2177WAT      O 6772   7.611   1.251   8.694
 2177WAT     H1 6773   7.540   1.240   8.625
 2177WAT     H2 6774   7.653   1.341   8.685
 2178WAT      O 6775   4.738   4.148   0.849
 2178WAT     H1 6776   4.806   4.189   0.788
 2178WAT     H2 6777   4.738   4.195   0.937
 2179WAT      O 6778   3.980   5.323   7.491
 2179WAT     H1 6779   3.917   5.389   7.450
 2179WAT     H2 6780   3.964   5.318   7.589
 2180WAT      O 6781   5.709   0.786   9.652
 2180WAT     H1 6782   5.718   0.695   9.694
 2180WAT     H2 6783   5.639   0.838   9.701
 2181WAT      O 6784   2.010   2.676   4.184
 2181WAT     H1 6785   2.040   2.771   4.173
 2181WAT     H2 6786   1.935   2.658   4.121
 2182WAT      O 6787   0.808   1.407   4.704
 2182WAT     H1 6788   0.837   1.497   4.738
 2182WAT     H2 6789   0.871   1.337   4.738
 2183WAT      O 6790   8.386   7.537   0.343
 2183WAT     H1 6791   8.421   7.625   0.310
 2183WAT     H2 6792   8.461   7.484   0.383
 2184WAT      O 6793   0.149   7.286   6.333
 2184WAT     H1 6794   0.108   7.375   6.317
 2184WAT     H2 6795   0.091   7.233   6.396
 2185WAT      O 6796   5.667   3.610   8.642
 2185WAT     H1 6797   5.569   3.602   8.624
 2185WAT     H2 6798   5.682   3.679   8.713
 2186WAT      O 6799   3.276   6.390   5.435
 2186WAT     H1 6800   3.238   6.482   5.443
 2186WAT     H2 6801   3.240   6.347   5.352
 2187WAT      O 6802   5.283   0.928   8.763
 2187WAT     H1 6803   5.293   0.920   8.664
 2187WAT     H2 6804   5.359   0.980   8.800
 2188WAT      O 6805   2.024   8.096   2.895
 2188WAT     H1 6806   2.113   8.083   2.940
 2188WAT     H2 6807   1.966   8.017   2.914
 2189WAT      O 6808   5.229   2.516   4.528
 2189WAT     H1 6809   5.284   2.500   4.610
 2189WAT     H2 6810   5.137   2.547   4.554
 2190WAT      O 6811   3.865   1.561   5.531
 2190WAT     H1 6812   3.949   1.558   5.476
 2190WAT     H2 6813   3.786   1.543   5.473
 2191WAT      O 6814   7.306   9.814   2.994
 2191WAT     H1 6815   7.287   9.900   3.042
 2191WAT     H2 6816   7.343   9.747   3.058
 2192WAT      O 6817   1.864   9.402   6.302
 2192WAT     H1 6818   1.884   9.468   6.374
 2192WAT     H2 6819   1.882   9.310   6.336
 2193WAT      O 6820   3.783   4.600   1.500
 2193WAT     H1 6821   3.708   4.536   1.484
 2193WAT     H2 6822   3.841   4.566   1.573
 2194WAT      O 6823   9.627   8.017   6.803
 2194WAT     H1 6824   9.565   8.082   6.848
 2194WAT     H2 6825   9.635   8.040   6.706
 2195WAT      O 6826   6.979   4.354   8.123
 2195WAT     H1 6827   7.066   4.364   8.170
 2195WAT     H2 6828   6.928   4.440   8.128
 2196WAT      O 6829   9.384   9.251   5.757
 2196WAT     H1 6830   9.311   9.292   5.812
 2196WAT     H2 6831   9.397   9.156   5.784
 2197WAT      O 6832   2.981   3.126   1.388
 2197WAT     H1 6833   2.978   3.224   1.406
 2197WAT     H2 6834   3.033   3.109   1.304
 2198WAT      O 6835   0.906   4.498   4.504
 2198WAT     H1 6836   0.938   4.434   4.434
 2198WAT     H2 6837   0.966   4.578   4.507
 2199WAT      O 6838   0.357   7.319   7.201
 2199WAT     H1 6839   0.410   7.403   7.214
 2199WAT     H2 6840   0.339   7.278   7.290
 2200WAT      O 6841   6.530   6.045   8.617
 2200WAT     H1 6842   6.523   6.137   8.657
 2200WAT     H2 6843   6.453   6.030   8.555
 2201WAT      O 6844   5.007   7.247   1.282
 2201WAT     H1 6845   5.030   7.292   1.195
 2201WAT     H2 6846   4.908   7.239   1.290
 2202WAT      O 6847   9.283   2.623   9.358
 2202WAT     H1 6848   9.276   2.722   9.349
 2202WAT     H2 6849   9.273   2.596   9.454
 2203WAT      O 6850   3.840   5.648   6.081
 2203WAT     H1 6851   3.912   5.715   6.100
 2203WAT     H2 6852   3.860   5.603   5.994
 2204WAT      O 6853   7.763   2.964   5.018
 2204WAT     H1 6854   7.666   2.956   4.996
 2204WAT     H2 6855   7.773   3.009   5.107
 2205WAT      O 6856   1.687   0.049   4.882
 2205WAT     H1 6857   1.787   0.049   4.886
 2205WAT     H2 6858   1.652   0.132   4.926
 2206WAT      O 6859   7.699   1.925   5.919
 2206WAT     H1 6860   7.631   1.947   5.849
 2206WAT     H2 6861   7.668   1.960   6.008
 2207WAT      O 6862   3.996   5.713   9.556
 2207WAT     H1 6863   3.933   5.762   9.615
 2207WAT     H2 6864   3.945   5.668   9.483
 2208WAT      O 6865   4.820   0.014   1.760
 2208WAT     H1 6866   4.855   0.074   1.689
 2208WAT     H2 6867   4.829   0.059   1.849
 2209WAT      O 6868   1.980   2.663   8.381
 2209WAT     H1 6869   1.888   2.645   8.414
 2209WAT     H2 6870   2.009   2.589   8.321
 2210WAT      O 6871   3.542   5.808   4.703
 2210WAT     H1 6872   3.591   5.833   4.787
 2210WAT     H2 6873   3.544   5.885   4.639
 2211WAT      O 6874   5.233   3.338   4.173
 2211WAT     H1 6875   5.262   3.379   4.260
 2211WAT     H2 6876   5.148   3.288   4.187
 2212WAT      O 6877   3.796   2.855   1.712
 2212WAT     H1 6878   3.723   2.902   1.761
 2212WAT     H2 6879   3.758   2.808   1.632
 2213WAT      O 6880   3.122   2.562   1.833
 2213WAT     H1 6881   3.039   2.507   1.840
 2213WAT     H2 6882   3.108   2.638   1.770
 2214WAT      O 6883   0.103   2.421   2.064
 2214WAT     H1 6884   0.089   2.346   2.129
 2214WAT     H2 6885   0.045   2.498   2.090
 2215WAT      O 6886   0.025   6.699   4.349
 2215WAT     H1 6887   0.117   6.706   4.311
 2215WAT     H2 6888   0.029   6.661   4.441
 2216WAT      O 6889   1.898   9.648   8.652
 2216WAT     H1 6890   1.930   9.738   8.680
 2216WAT     H2 6891   1.851   9.655   8.564
 2217WAT      O 6892   5.886   0.870   3.751
 2217WAT     H1 6893   5.862   0.861   3.847
 2217WAT     H2 6894   5.970   0.923   3.742
 2218WAT      O 6895   8.324   7.662   1.787
 2218WAT     H1 6896   8.319   7.621   1.696
 2218WAT     H2 6897   8.232   7.667   1.826
 2219WAT      O 6898   7.260   7.861   5.633
 2219WAT     H1 6899   7.195   7.806   5.581
 2219WAT     H2 6900   7.334   7.890   5.573
 2220WAT      O 6901   5.664   7.508   8.718
 2220WAT     H1 6902   5.692   7.449   8.642
 2220WAT     H2 6903   5.573   7.481   8.750
 2221WAT      O 6904   1.611   6.275   6.184
 2221WAT     H1 6905   1.545   6.220   6.236
 2221WAT     H2 6906   1.701   6.268   6.227
 2222WAT      O 6907   9.175   4.509   1.656
 2222WAT     H1 6908   9.206   4.590   1.706
 2222WAT     H2 6909   9.240   4.488   1.583
 2223WAT      O 6910   6.591   1.381   5.568
 2223WAT     H1 6911   6.601   1.440   5.488
 2223WAT     H2 6912   6.669   1.318   5.573
 2224WAT      O 6913   0.955   8.798   3.424
 2224WAT     H1 6914   0.855   8.793   3.426
 2224WAT     H2 6915   0.986   8.879   3.472
 2225WAT      O 6916   6.308   6.550   0.904
 2225WAT     H1 6917   6.215   6.575   0.931
 2225WAT     H2 6918   6.309   6.456   0.873
 2226WAT      O 6919   6.425   2.882   8.558
 2226WAT     H1 6920   6.525   2.876   8.563
 2226WAT     H2 6921   6.387   2.871   8.650
 2227WAT      O 6922   6.817   2.966   4.533
 2227WAT     H1 6923   6.744   3.003   4.591
 2227WAT     H2 6924   6.779   2.942   4.443
 2228WAT      O 6925   2.964   1.303   4.523
 2228WAT     H1 6926   2.954   1.204   4.515
 2228WAT     H2 6927   2.873   1.345   4.523
 2229WAT      O 6928   8.111   2.219   9.023
 2229WAT     H1 6929   8.151   2.130   9.044
 2229WAT     H2 6930   8.124   2.280   9.100
 2230WAT      O 6931   7.563   6.481   9.043
 2230WAT     H1 6932   7.642   6.451   8.990
 2230WAT     H2 6933   7.485   6.496   8.982
 2231WAT      O 6934   4.376   6.029   0.924
 2231WAT     H1 6935   4.356   5.969   1.002
 2231WAT     H2 6936   4.297   6.032   0.863
 2232WAT      O 6937   4.868   9.115   7.020
 2232WAT     H1 6938   4.897   9.131   7.114
 2232WAT     H2 6939   4.768   9.111   7.016
 2233WAT      O 6940   3.094   1.669   9.794
 2233WAT     H1 6941   3.028   1.744   9.793
 2233WAT     H2 6942   3.124   1.653   9.888
 2234WAT      O 6943   9.793   0.551   8.152
 2234WAT     H1 6944   9.739   0.601   8.219
 2234WAT     H2 6945   9.830   0.468   8.194
 2235WAT      O 6946   4.002   0.670   7.294
 2235WAT     H1 6947   3.958   0.615   7.365
 2235WAT     H2 6948   3.937   0.738   7.259
 2236WAT      O 6949   8.137   2.319   2.411
 2236WAT     H1 6950   8.110   2.412   2.436
 2236WAT     H2 6951   8.189   2.321   2.326
 2237WAT      O 6952   7.584   2.190   0.186
 2237WAT     H1 6953   7.644   2.270   0.178
 2237WAT     H2 6954   7.591   2.134   0.104
 2238WAT      O 6955   5.540   8.293   4.789
 2238WAT     H1 6956   5.472   8.358   4.754
 2238WAT     H2 6957   5.494   8.213   4.826
 2239WAT      O 6958   7.030   3.587   2.154
 2239WAT     H1 6959   6.973   3.623   2.080
 2239WAT     H2 6960   7.005   3.632   2.240
 2240WAT      O 6961   3.548   2.023   6.192
 2240WAT     H1 6962   3.491   1.941   6.186
 2240WAT     H2 6963   3.492   2.104   6.176
 2241WAT      O 6964   0.800   3.001   0.791
 2241WAT     H1 6965   0.805   2.976   0.694
 2241WAT     H2 6966   0.796   2.918   0.847
 2242WAT      O 6967   3.526   3.411   4.041
 2242WAT     H1 6968   3.579   3.393   4.124
 2242WAT     H2 6969   3.462   3.335   4.025
 2243WAT      O 6970   1.589   8.855   1.860
 2243WAT     H1 6971   1.682   8.822   1.874
 2243WAT     H2 6972   1.566   8.853   1.763
 2244WAT      O 6973   5.510   8.967   6.527
 2244WAT     H1 6974   5.565   8.958   6.610
 2244WAT     H2 6975   5.545   9.043   6.472
 2245WAT      O 6976   3.579   8.094   8.323
 2245WAT     H1 6977   3.563   8.097   8.421
 2245WAT     H2 6978   3.515   8.031   8.280
 2246WAT      O 6979   0.525   6.830   2.448
 2246WAT     H1 6980   0.533   6.797   2.542
 2246WAT     H2 6981   0.549   6.756   2.384
 2247WAT      O 6982   5.100   1.418   2.215
 2247WAT     H1 6983   5.145   1.458   2.135
 2247WAT     H2 6984   5.118   1.319   2.217
 2248WAT      O 6985   9.547   8.896   9.070
 2248WAT     H1 6986   9.538   8.939   9.160
 2248WAT     H2 6987   9.640   8.908   9.037
 2249WAT      O 6988   1.816   7.119   5.763
 2249WAT     H1 6989   1.720   7.115   5.734
 2249WAT     H2 6990   1.825   7.083   5.856
 2250WAT      O 6991   1.621   9.209   8.409
 2250WAT     H1 6992   1.572   9.130   8.372
 2250WAT     H2 6993   1.720   9.191   8.407
 2251WAT      O 6994   6.587   1.584   2.336
 2251WAT     H1 6995   6.545   1.605   2.248
 2251WAT     H2 6996   6.612   1.670   2.382
 2252WAT      O 6997   8.766   5.196   5.937
 2252WAT     H1 6998   8.802   5.289   5.929
 2252WAT     H2 6999   8.666   5.199   5.931
 2253WAT      O 7000   3.026   5.117   4.609
 2253WAT     H1 7001   3.079   5.171   4.673
 2253WAT     H2 7002   3.068   5.027   4.598
 2254WAT      O 7003   9.875   3.699   9.356
 2254WAT     H1 7004   9.871   3.649   9.270
 2254WAT     H2 7005   9.890   3.634   9.431
 2255WAT      O 7006   6.799   6.998   2.920
 2255WAT     H1 7007   6.728   7.066   2.935
 2255WAT     H2 7008   6.803   6.975   2.823
 2256WAT      O 7009   9.562   6.738   3.140
 2256WAT     H1 7010   9.595   6.814   3.195
 2256WAT     H2 7011   9.616   6.730   3.056
 2257WAT      O 7012   8.051   8.309   1.999
 2257WAT     H1 7013   8.009   8.233   1.950
 2257WAT     H2 7014   8.024   8.304   2.096
 2258WAT      O 7015   9.612   3.677   6.235
 2258WAT     H1 7016   9.623   3.774   6.217
 2258WAT     H2 7017   9.573   3.632   6.154
 2259WAT      O 7018   9.458   4.861   0.319
 2259WAT     H1 7019   9.409   4.949   0.326
 2259WAT     H2 7020   9.392   4.786   0.325
 2260WAT      O 7021   1.513   4.053   7.351
 2260WAT     H1 7022   1.605   4.077   7.384
 2260WAT     H2 7023   1.472   4.132   7.306
 2261WAT      O 7024   5.368   2.933   6.645
 2261WAT     H1 7025   5.450   2.895   6.688
 2261WAT     H2 7026   5.288   2.880   6.672
 2262WAT      O 7027   2.654   6.909   7.754
 2262WAT     H1 7028   2.599   6.972   7.701
 2262WAT     H2 7029   2.695   6.841   7.693
 2263WAT      O 7030   0.502   2.544   5.311
 2263WAT     H1 7031   0.457   2.619   5.360
 2263WAT     H2 7032   0.542   2.480   5.376
 2264WAT      O 7033   6.832   9.607   4.597
 2264WAT     H1 7034   6.872   9.696   4.619
 2264WAT     H2 7035   6.903   9.536   4.605
 2265WAT      O 7036   2.051   8.614   4.779
 2265WAT     H1 7037   2.102   8.588   4.696
 2265WAT     H2 7038   2.110   8.603   4.859
 2266WAT      O 7039   6.608   2.011   7.813
 2266WAT     H1 7040   6.540   1.938   7.812
 2266WAT     H2 7041   6.674   1.996   7.739
 2267WAT      O 7042   4.836   6.199   6.000
 2267WAT     H1 7043   4.807   6.291   5.972
 2267WAT     H2 7044   4.884   6.205   6.088
 2268WAT      O 7045   9.434   7.087   0.353
 2268WAT     H1 7046   9.442   7.072   0.451
 2268WAT     H2 7047   9.338   7.079   0.326
 2269WAT      O 7048   9.554   4.184   5.572
 2269WAT     H1 7049   9.494   4.168   5.651
 2269WAT     H2 7050   9.499   4.215   5.495
 2270WAT      O 7051   2.641   0.442   3.126
 2270WAT     H1 7052   2.544   0.464   3.129
 2270WAT     H2 7053   2.695   0.524   3.145
 2271WAT      O 7054   9.261   1.106   6.779
 2271WAT     H1 7055   9.240   1.138   6.871
 2271WAT     H2 7056   9.311   1.020   6.784
 2272WAT      O 7057   6.012   8.670   6.018
 2272WAT     H1 7058   6.056   8.740   6.073
 2272WAT     H2 7059   5.916   8.661   6.046
 2273WAT      O 7060   1.195   3.799   8.979
 2273WAT     H1 7061   1.116   3.751   9.018
 2273WAT     H2 7062   1.271   3.734   8.968
 2274WAT      O 7063   8.356   9.114   2.117
 2274WAT     H1 7064   8.327   9.035   2.172
 2274WAT     H2 7065   8.383   9.189   2.178
 2275WAT      O 7066   8.116   5.557   6.746
 2275WAT     H1 7067   8.075   5.611   6.820
 2275WAT     H2 7068   8.212   5.540   6.766
 2276WAT      O 7069   7.073   5.414   6.527
 2276WAT     H1 7070   7.028   5.503   6.532
 2276WAT     H2 7071   7.163   5.419   6.571
 2277WAT      O 7072   3.636   6.166   7.485
 2277WAT     H1 7073   3.601   6.078   7.519
 2277WAT     H2 7074   3.713   6.194   7.542
 2278WAT      O 7075   6.436   5.467   9.892
 2278WAT     H1 7076   6.374   5.460   9.814
 2278WAT     H2 7077   6.477   5.378   9.911
 2279WAT      O 7078   2.372   9.132   2.129
 2279WAT     H1 7079   2.360   9.220   2.083
 2279WAT     H2 7080   2.369   9.058   2.061
 2280WAT      O 7081   9.401   1.311   6.381
 2280WAT     H1 7082   9.312   1.348   6.407
 2280WAT     H2 7083   9.432   1.354   6.296
 2281WAT      O 7084   9.092   1.563   6.004
 2281WAT     H1 7085   9.096   1.663   6.011
 2281WAT     H2 7086   9.111   1.535   5.910
 2282WAT      O 7087   9.444   6.207   1.998
 2282WAT     H1 7088   9.372   6.224   2.065
 2282WAT     H2 7089   9.403   6.185   1.910
 2283WAT      O 7090   5.803   5.886   6.656
 2283WAT     H1 7091   5.778   5.824   6.583
 2283WAT     H2 7092   5.824   5.834   6.739
 2284WAT      O 7093   2.267   2.089   8.213
 2284WAT     H1 7094   2.262   2.072   8.312
 2284WAT     H2 7095   2.361   2.106   8.187
 2285WAT      O 7096   3.748   1.102   5.931
 2285WAT     H1 7097   3.796   1.165   5.869
 2285WAT     H2 7098   3.669   1.064   5.885
 2286WAT      O 7099   7.626   6.528   2.092
 2286WAT     H1 7100   7.725   6.521   2.086
 2286WAT     H2 7101   7.590   6.569   2.008
 2287WAT      O 7102   1.949   1.932   5.484
 2287WAT     H1 7103   1.990   1.962   5.398
 2287WAT     H2 7104   2.017   1.940   5.557
 2288WAT      O 7105   2.827   1.962   3.365
 2288WAT     H1 7106   2.863   1.881   3.414
 2288WAT     H2 7107   2.842   1.950   3.267
 2289WAT      O 7108   5.808   9.570   5.313
 2289WAT     H1 7109   5.731   9.517   5.347
 2289WAT     H2 7110   5.776   9.657   5.275
 2290WAT      O 7111   7.758   4.808   5.219
 2290WAT     H1 7112   7.855   4.830   5.207
 2290WAT     H2 7113   7.706   4.893   5.225
 2291WAT      O 7114   6.108   0.727   7.714
 2291WAT     H1 7115   6.097   0.633   7.746
 2291WAT     H2 7116   6.069   0.736   7.622
 2292WAT      O 7117   6.144   2.305   0.034
 2292WAT     H1 7118   6.172   2.317   0.129
 2292WAT     H2 7119   6.175   2.383  -0.020
 2293WAT      O 7120   7.654   3.918   7.871
 2293WAT     H1 7121   7.693   3.973   7.797
 2293WAT     H2 7122   7.657   3.970   7.956
 2294WAT      O 7123   0.591   6.469   3.123
 2294WAT     H1 7124   0.558   6.490   3.215
 2294WAT     H2 7125   0.642   6.548   3.088
 2295WAT      O 7126   8.464   2.246   9.262
 2295WAT     H1 7127   8.469   2.164   9.206
 2295WAT     H2 7128   8.371   2.282   9.261
 2296WAT      O 7129   4.474   9.826   3.816
 2296WAT     H1 7130   4.531   9.834   3.897
 2296WAT     H2 7131   4.452   9.918   3.782
 2297WAT      O 7132   3.792   7.723   6.008
 2297WAT     H1 7133   3.792   7.633   5.966
 2297WAT     H2 7134   3.738   7.721   6.092
 2298WAT      O 7135   6.338   8.510   7.484
 2298WAT     H1 7136   6.377   8.512   7.576
 2298WAT     H2 7137   6.313   8.603   7.457
 2299WAT      O 7138   4.475   0.283   1.370
 2299WAT     H1 7139   4.467   0.192   1.330
 2299WAT     H2 7140   4.570   0.314   1.362
 2300WAT      O 7141   0.535   6.224   5.865
 2300WAT     H1 7142   0.441   6.242   5.891
 2300WAT     H2 7143   0.544   6.129   5.836
 2301WAT      O 7144   7.216   3.217   3.376
 2301WAT     H1 7145   7.152   3.151   3.415
 2301WAT     H2 7146   7.168   3.277   3.312
 2302WAT      O 7147   7.006   2.061   2.538
 2302WAT     H1 7148   7.063   2.142   2.522
 2302WAT     H2 7149   6.984   2.055   2.635
 2303WAT      O 7150   8.583   3.772   6.786
 2303WAT     H1 7151   8.550   3.808   6.873
 2303WAT     H2 7152   8.537   3.820   6.711
 2304WAT      O 7153   2.920   6.439   2.253
 2304WAT     H1 7154   2.975   6.514   2.215
 2304WAT     H2 7155   2.980   6.376   2.302
 2305WAT      O 7156   9.264   4.543   2.702
 2305WAT     H1 7157   9.177   4.568   2.658
 2305WAT     H2 7158   9.265   4.445   2.721
 2306WAT      O 7159   4.581   9.754   6.513
 2306WAT     H1 7160   4.611   9.735   6.420
 2306WAT     H2 7161   4.483   9.774   6.512
 2307WAT      O 7162   5.678   1.092   0.052
 2307WAT     H1 7163   5.695   1.065   0.147
 2307WAT     H2 7164   5.631   1.017   0.004
 2308WAT      O 7165   9.137   2.445   4.345
 2308WAT     H1 7166   9.073   2.521   4.358
 2308WAT     H2 7167   9.195   2.435   4.426
 2309WAT      O 7168   3.203   8.643   7.606
 2309WAT     H1 7169   3.141   8.718   7.582
 2309WAT     H2 7170   3.241   8.603   7.523
 2310WAT      O 7171   7.016   9.460   2.441
 2310WAT     H1 7172   6.950   9.389   2.466
 2310WAT     H2 7173   7.023   9.465   2.341
 2311WAT      O 7174   1.427   4.340   9.502
 2311WAT     H1 7175   1.453   4.435   9.490
 2311WAT     H2 7176   1.495   4.294   9.560
 2312WAT      O 7177   8.630   8.798   0.317
 2312WAT     H1 7178   8.713   8.850   0.333
 2312WAT     H2 7179   8.593   8.820   0.227
 2313WAT      O 7180   4.875   5.954   7.507
 2313WAT     H1 7181   4.958   6.005   7.528
 2313WAT     H2 7182   4.880   5.863   7.548
 2314WAT      O 7183   3.273   4.034   5.561
 2314WAT     H1 7184   3.259   4.133   5.559
 2314WAT     H2 7185   3.328   4.010   5.640
 2315WAT      O 7186   9.017   0.093   2.570
 2315WAT     H1 7187   9.081   0.118   2.498
 2315WAT     H2 7188   9.032   0.151   2.650
 2316WAT      O 7189   6.979   3.160   2.700
 2316WAT     H1 7190   7.056   3.213   2.734
 2316WAT     H2 7191   6.992   3.141   2.603
 2317WAT      O 7192   3.780   3.168   2.843
 2317WAT     H1 7193   3.873   3.202   2.839
 2317WAT     H2 7194   3.719   3.231   2.793
 2318WAT      O 7195   6.793   7.891   0.015
 2318WAT     H1 7196   6.710   7.947   0.020
 2318WAT     H2 7197   6.800   7.850  -0.076
 2319WAT      O 7198   1.971   0.462   4.497
 2319WAT     H1 7199   1.934   0.470   4.404
 2319WAT     H2 7200   2.071   0.464   4.494
 2320WAT      O 7201   7.317   6.788   6.356
 2320WAT     H1 7202   7.411   6.815   6.381
 2320WAT     H2 7203   7.278   6.732   6.428
 2321WAT      O 7204   4.499   9.278   0.221
 2321WAT     H1 7205   4.589   9.236   0.209
 2321WAT     H2 7206   4.433   9.232   0.160
 2322WAT      O 7207   7.134   2.747   6.440
 2322WAT     H1 7208   7.077   2.765   6.360
 2322WAT     H2 7209   7.175   2.656   6.431
 2323WAT      O 7210   2.744   5.187   6.255
 2323WAT     H1 7211   2.750   5.100   6.205
 2323WAT     H2 7212   2.727   5.168   6.351
 2324WAT      O 7213   3.024   2.891   5.271
 2324WAT     H1 7214   3.070   2.958   5.330
 2324WAT     H2 7215   2.979   2.939   5.195
 2325WAT      O 7216   3.803   0.561   8.924
 2325WAT     H1 7217   3.785   0.597   8.833
 2325WAT     H2 7218   3.729   0.587   8.986
 2326WAT      O 7219   2.746   6.830   6.031
 2326WAT     H1 7220   2.664   6.861   5.983
 2326WAT     H2 7221   2.730   6.738   6.067
 2327WAT      O 7222   1.860   8.593   1.160
 2327WAT     H1 7223   1.926   8.552   1.097
 2327WAT     H2 7224   1.902   8.604   1.250
 2328WAT      O 7225   4.642   5.512   1.246
 2328WAT     H1 7226   4.616   5.468   1.332
 2328WAT     H2 7227   4.659   5.443   1.177
 2329WAT      O 7228   0.890   8.281   2.696
 2329WAT     H1 7229   0.976   8.258   2.651
 2329WAT     H2 7230   0.846   8.357   2.647
 2330WAT      O 7231   9.442   9.592   7.804
 2330WAT     H1 7232   9.513   9.557   7.744
 2330WAT     H2 7233   9.374   9.642   7.749
 2331WAT      O 7234   7.493   7.901   9.283
 2331WAT     H1 7235   7.405   7.932   9.248
 2331WAT     H2 7236   7.480   7.820   9.340
 2332WAT      O 7237   2.050   1.074   5.107
 2332WAT     H1 7238   2.105   0.994   5.130
 2332WAT     H2 7239   1.968   1.046   5.057
 2333WAT      O 7240   0.428   1.514   5.223
 2333WAT     H1 7241   0.418   1.487   5.128
 2333WAT     H2 7242   0.418   1.613   5.231
 2334WAT      O 7243   8.433   1.697   8.179
 2334WAT     H1 7244   8.448   1.795   8.171
 2334WAT     H2 7245   8.347   1.672   8.135
 2335WAT      O 7246   5.129   2.408   1.312
 2335WAT     H1 7247   5.167   2.496   1.340
 2335WAT     H2 7248   5.029   2.410   1.321
 2336WAT      O 7249   2.153   7.786   4.481
 2336WAT     H1 7250   2.068   7.749   4.519
 2336WAT     H2 7251   2.208   7.824   4.555
 2337WAT      O 7252   1.973   6.156   3.129
 2337WAT     H1 7253   1.945   6.199   3.214
 2337WAT     H2 7254   2.018   6.069   3.150
 2338WAT      O 7255   7.690   4.691   0.404
 2338WAT     H1 7256   7.597   4.726   0.410
 2338WAT     H2 7257   7.698   4.606   0.456
 2339WAT      O 7258   8.962   0.083   7.603
 2339WAT     H1 7259   8.922   0.016   7.541
 2339WAT     H2 7260   8.991   0.164   7.552
 2340WAT      O 7261   4.613   2.015   6.994
 2340WAT     H1 7262   4.549   2.086   7.026
 2340WAT     H2 7263   4.564   1.952   6.934
 2341WAT      O 7264   4.632   9.159   6.152
 2341WAT     H1 7265   4.533   9.172   6.140
 2341WAT     H2 7266   4.678   9.169   6.064
 2342WAT      O 7267   4.432   6.051   6.396
 2342WAT     H1 7268   4.377   6.132   6.373
 2342WAT     H2 7269   4.451   6.000   6.312
 2343WAT      O 7270   1.899   1.573   7.691
 2343WAT     H1 7271   1.812   1.622   7.682
 2343WAT     H2 7272   1.882   1.479   7.719
 2344WAT      O 7273   0.896   7.062   7.848
 2344WAT     H1 7274   0.929   7.154   7.832
 2344WAT     H2 7275   0.973   6.998   7.851
 2345WAT      O 7276   7.128   0.596   6.139
 2345WAT     H1 7277   7.128   0.496   6.139
 2345WAT     H2 7278   7.223   0.628   6.144
 2346WAT      O 7279   6.195   5.779   0.977
 2346WAT     H1 7280   6.227   5.872   0.999
 2346WAT     H2 7281   6.269   5.727   0.935
 2347WAT      O 7282   4.553   1.677   3.111
 2347WAT     H1 7283   4.635   1.654   3.058
 2347WAT     H2 7284   4.505   1.593   3.135
 2348WAT      O 7285   0.948   7.844   3.758
 2348WAT     H1 7286   0.903   7.847   3.847
 2348WAT     H2 7287   1.046   7.864   3.770
 2349WAT      O 7288   4.521   5.897   2.471
 2349WAT     H1 7289   4.516   5.925   2.567
 2349WAT     H2 7290   4.576   5.963   2.420
 2350WAT      O 7291   4.241   3.504   1.417
 2350WAT     H1 7292   4.237   3.472   1.511
 2350WAT     H2 7293   4.336   3.524   1.392
 2351WAT      O 7294   9.563   7.035   4.097
 2351WAT     H1 7295   9.633   6.970   4.067
 2351WAT     H2 7296   9.519   7.077   4.017
 2352WAT      O 7297   1.358   6.655   8.385
 2352WAT     H1 7298   1.309   6.595   8.449
 2352WAT     H2 7299   1.391   6.600   8.308
 2353WAT      O 7300   0.667   3.066   1.951
 2353WAT     H1 7301   0.595   3.068   1.882
 2353WAT     H2 7302   0.659   3.146   2.011
 2354WAT      O 7303   5.087   5.819   7.877
 2354WAT     H1 7304   4.993   5.853   7.878
 2354WAT     H2 7305   5.089   5.726   7.913
 2355WAT      O 7306   2.482   0.504   2.369
 2355WAT     H1 7307   2.445   0.495   2.462
 2355WAT     H2 7308   2.578   0.534   2.375
 2356WAT      O 7309   3.119   7.595   3.384
 2356WAT     H1 7310   3.160   7.608   3.475
 2356WAT     H2 7311   3.048   7.525   3.390
 2357WAT      O 7312   5.726   5.681   0.523
 2357WAT     H1 7313   5.656   5.619   0.556
 2357WAT     H2 7314   5.695   5.776   0.534
 2358WAT      O 7315   7.372   6.517   8.439
 2358WAT     H1 7316   7.411   6.591   8.494
 2358WAT     H2 7317   7.302   6.554   8.378
 2359WAT      O 7318   1.156   5.044   3.191
 2359WAT     H1 7319   1.056   5.051   3.196
 2359WAT     H2 7320   1.195   5.064   3.281
 2360WAT      O 7321   3.244   0.961   0.551
 2360WAT     H1 7322   3.176   0.888   0.562
 2360WAT     H2 7323   3.328   0.922   0.512
 2361WAT      O 7324   7.408   7.247   6.701
 2361WAT     H1 7325   7.465   7.320   6.738
 2361WAT     H2 7326   7.346   7.285   6.632
 2362WAT      O 7327   5.832   1.248   1.812
 2362WAT     H1 7328   5.854   1.337   1.773
 2362WAT     H2 7329   5.914   1.191   1.814
 2363WAT      O 7330   2.867   4.918   0.388
 2363WAT     H1 7331   2.885   4.943   0.482
 2363WAT     H2 7332   2.876   4.818   0.377
 2364WAT      O 7333   4.442   1.912   8.648
 2364WAT     H1 7334   4.375   1.904   8.722
 2364WAT     H2 7335   4.499   1.993   8.662
 2365WAT      O 7336   0.452   7.939   5.365
 2365WAT     H1 7337   0.548   7.946   5.392
 2365WAT     H2 7338   0.398   8.001   5.422
 2366WAT      O 7339   4.790   2.775   4.014
 2366WAT     H1 7340   4.872   2.821   3.980
 2366WAT     H2 7341   4.751   2.719   3.940
 2367WAT      O 7342   1.190   3.751   2.730
 2367WAT     H1 7343   1.183   3.735   2.632
 2367WAT     H2 7344   1.244   3.679   2.772
 2368WAT      O 7345   9.886   0.110   7.633
 2368WAT     H1 7346   9.850   0.026   7.675
 2368WAT     H2 7347   9.976   0.092   7.594
 2369WAT      O 7348   9.084   0.421   6.372
 2369WAT     H1 7349   9.091   0.321   6.368
 2369WAT     H2 7350   8.998   0.447   6.414
 2370WAT      O 7351   6.173   0.581   2.921
 2370WAT     H1 7352   6.119   0.646   2.974
 2370WAT     H2 7353   6.202   0.506   2.980
 2371WAT      O 7354   4.133   5.655   2.872
 2371WAT     H1 7355   4.121   5.738   2.927
 2371WAT     H2 7356   4.047   5.604   2.869
 2372WAT      O 7357   9.782   1.954   7.557
 2372WAT     H1 7358   9.866   2.005   7.539
 2372WAT     H2 7359   9.742   1.925   7.470
 2373WAT      O 7360   9.768   8.993   3.747
 2373WAT     H1 7361   9.815   9.002   3.835
 2373WAT     H2 7362   9.684   9.047   3.748
 2374WAT      O 7363   4.596   6.524   8.359
 2374WAT     H1 7364   4.550   6.611   8.338
 2374WAT     H2 7365   4.550   6.450   8.311
 2375WAT      O 7366   8.106   7.173   5.457
 2375WAT     H1 7367   8.126   7.203   5.550
 2375WAT     H2 7368   8.186   7.125   5.420
 2376WAT      O 7369   8.570   0.386   7.841
 2376WAT     H1 7370   8.542   0.295   7.811
 2376WAT     H2 7371   8.545   0.399   7.937
 2377WAT      O 7372   2.109   7.728   4.779
 2377WAT     H1 7373   2.182   7.659   4.772
 2377WAT     H2 7374   2.146   7.818   4.756
 2378WAT      O 7375   9.470   2.527   6.189
 2378WAT     H1 7376   9.568   2.518   6.208
 2378WAT     H2 7377   9.420   2.530   6.276
 2379WAT      O 7378   1.785   8.636   1.877
 2379WAT     H1 7379   1.715   8.599   1.939
 2379WAT     H2 7380   1.766   8.604   1.784
 2380WAT      O 7381   7.640   2.448   8.056
 2380WAT     H1 7382   7.702   2.477   7.983
 2380WAT     H2 7383   7.546   2.448   8.022
 2381WAT      O 7384   9.807   7.424   3.527
 2381WAT     H1 7385   9.773   7.424   3.433
 2381WAT     H2 7386   9.898   7.383   3.530
 2382WAT      O 7387   6.804   9.133   3.384
 2382WAT     H1 7388   6.841   9.205   3.442
 2382WAT     H2 7389   6.785   9.170   3.293
 2383WAT      O 7390   7.587   1.596   9.300
 2383WAT     H1 7391   7.613   1.533   9.373
 2383WAT     H2 7392   7.596   1.551   9.212
 2384WAT      O 7393   6.236   4.649   7.620
 2384WAT     H1 7394   6.306   4.629   7.689
 2384WAT     H2 7395   6.206   4.563   7.578
 2385WAT      O 7396   9.646   1.254   8.458
 2385WAT     H1 7397   9.682   1.347   8.458
 2385WAT     H2 7398   9.588   1.240   8.538
 2386WAT      O 7399   7.766   8.614   8.651
 2386WAT     H1 7400   7.786   8.625   8.748
 2386WAT     H2 7401   7.681   8.563   8.640
 2387WAT      O 7402   0.991   3.177   7.261
 2387WAT     H1 7403   0.948   3.267   7.263
 2387WAT     H2 7404   1.046   3.165   7.344
 2388WAT      O 7405   6.270   9.708   8.248
 2388WAT     H1 7406   6.257   9.807   8.254
 2388WAT     H2 7407   6.367   9.687   8.239
 2389WAT      O 7408   3.019   9.156   0.450
 2389WAT     H1 7409   3.061   9.189   0.534
 2389WAT     H2 7410   2.919   9.164   0.456
 2390WAT      O 7411   5.902   2.849   8.383
 2390WAT     H1 7412   5.906   2.790   8.464
 2390WAT     H2 7413   5.807   2.875   8.366
 2391WAT      O 7414   7.336   3.558   8.000
 2391WAT     H1 7415   7.412   3.520   7.946
 2391WAT     H2 7416   7.306   3.644   7.959
 2392WAT      O 7417   8.546   8.258   7.614
 2392WAT     H1 7418   8.453   8.279   7.585
 2392WAT     H2 7419   8.548   8.166   7.654
 2393WAT      O 7420   9.324   7.189   9.760
 2393WAT     H1 7421   9.292   7.164   9.852
 2393WAT     H2 7422   9.310   7.287   9.746
 2394WAT      O 7423   3.380   1.137   0.730
 2394WAT     H1 7424   3.301   1.096   0.683
 2394WAT     H2 7425   3.451   1.068   0.741
 2395WAT      O 7426   2.504   3.427   1.175
 2395WAT     H1 7427   2.488   3.525   1.179
 2395WAT     H2 7428   2.417   3.379   1.175
 2396WAT      O 7429   7.875   0.632   8.843
 2396WAT     H1 7430   7.857   0.638   8.941
 2396WAT     H2 7431   7.858   0.538   8.812
 2397WAT      O 7432   4.166   7.354   7.757
 2397WAT     H1 7433   4.172   7.255   7.769
 2397WAT     H2 7434   4.138   7.375   7.664
 2398WAT      O 7435   2.539   3.386   2.638
 2398WAT     H1 7436   2.499   3.470   2.675
 2398WAT     H2 7437   2.552   3.320   2.711
 2399WAT      O 7438   0.530   5.034   7.950
 2399WAT     H1 7439   0.441   5.018   7.992
 2399WAT     H2 7440   0.602   5.031   8.020
 2400WAT      O 7441   1.171   0.072   4.195
 2400WAT     H1 7442   1.100   0.019   4.149
 2400WAT     H2 7443   1.137   0.106   4.283
 2401WAT      O 7444   1.882   6.553   9.444
 2401WAT     H1 7445   1.947   6.599   9.383
 2401WAT     H2 7446   1.821   6.620   9.485
 2402WAT      O 7447   9.578   4.271   8.429
 2402WAT     H1 7448   9.504   4.208   8.454
 2402WAT     H2 7449   9.554   4.318   8.344
 2403WAT      O 7450   2.734   5.766   7.617
 2403WAT     H1 7451   2.746   5.666   7.616
 2403WAT     H2 7452   2.785   5.806   7.692
 2404WAT      O 7453   1.401   5.547   3.286
 2404WAT     H1 7454   1.431   5.598   3.367
 2404WAT     H2 7455   1.437   5.591   3.204
 2405WAT      O 7456   2.434   5.684   3.723
 2405WAT     H1 7457   2.455   5.613   3.655
 2405WAT     H2 7458   2.486   5.766   3.702
 2406WAT      O 7459   8.996   4.020   3.674
 2406WAT     H1 7460   9.023   3.925   3.683
 2406WAT     H2 7461   9.071   4.073   3.634
 2407WAT      O 7462   2.358   6.211   9.585
 2407WAT     H1 7463   2.327   6.305   9.574
 2407WAT     H2 7464   2.284   6.156   9.624
 2408WAT      O 7465   0.065   4.358   5.785
 2408WAT     H1 7466   0.096   4.371   5.691
 2408WAT     H2 7467   0.064   4.261   5.807
 2409WAT      O 7468   7.105   9.417   4.349
 2409WAT     H1 7469   7.159   9.333   4.361
 2409WAT     H2 7470   7.017   9.394   4.309
 2410WAT      O 7471   1.025   6.425   5.198
 2410WAT     H1 7472   1.108   6.440   5.144
 2410WAT     H2 7473   1.017   6.328   5.221
 2411WAT      O 7474   4.712   6.314   7.790
 2411WAT     H1 7475   4.625   6.270   7.767
 2411WAT     H2 7476   4.737   6.291   7.884
 2412WAT      O 7477   0.550   9.773   3.551
 2412WAT     H1 7478   0.645   9.803   3.563
 2412WAT     H2 7479   0.524   9.785   3.455
 2413WAT      O 7480   2.992   5.027   7.797
 2413WAT     H1 7481   2.975   5.033   7.698
 2413WAT     H2 7482   2.997   5.118   7.836
 2414WAT      O 7483   7.712   5.115   5.139
 2414WAT     H1 7484   7.756   5.205   5.134
 2414WAT     H2 7485   7.688   5.084   5.048
 2415WAT      O 7486   3.118   9.402   4.555
 2415WAT     H1 7487   3.040   9.460   4.580
 2415WAT     H2 7488   3.123   9.325   4.619
 2416WAT      O 7489   5.749   3.759   3.372
 2416WAT     H1 7490   5.759   3.808   3.459
 2416WAT     H2 7491   5.671   3.795   3.322
 2417WAT      O 7492   0.190   2.146   9.279
 2417WAT     H1 7493   0.142   2.066   9.243
 2417WAT     H2 7494   0.144   2.179   9.361
 2418WAT      O 7495   2.050   8.541   2.903
 2418WAT     H1 7496   2.020   8.454   2.864
 2418WAT     H2 7497   1.992   8.615   2.869
 2419WAT      O 7498   1.321   8.581   0.857
 2419WAT     H1 7499   1.264   8.661   0.874
 2419WAT     H2 7500   1.289   8.506   0.915
 2420WAT      O 7501   3.422   3.206   8.347
 2420WAT     H1 7502   3.348   3.170   8.291
 2420WAT     H2 7503   3.510   3.182   8.306
 2421WAT      O 7504   2.206   6.991   0.365
 2421WAT     H1 7505   2.265   7.032   0.295
 2421WAT     H2 7506   2.262   6.941   0.431
 2422WAT      O 7507   0.272   9.832   6.810
 2422WAT     H1 7508   0.249   9.749   6.759
 2422WAT     H2 7509   0.344   9.882   6.760
 2423WAT      O 7510   1.345   1.273   4.401
 2423WAT     H1 7511   1.295   1.209   4.459
 2423WAT     H2 7512   1.284   1.347   4.373
 2424WAT      O 7513   6.962   8.931   8.062
 2424WAT     H1 7514   7.039   8.898   8.008
 2424WAT     H2 7515   6.990   9.011   8.114
 2425WAT      O 7516   8.232   0.339   9.200
 2425WAT     H1 7517   8.282   0.255   9.178
 2425WAT     H2 7518   8.135   0.317   9.214
 2426WAT      O 7519   0.488   7.078   9.429
 2426WAT     H1 7520   0.394   7.069   9.462
 2426WAT     H2 7521   0.552   7.063   9.504
 2427WAT      O 7522   6.805   6.017   8.088
 2427WAT     H1 7523   6.725   6.076   8.101
 2427WAT     H2 7524   6.877   6.070   8.043
 2428WAT      O 7525   8.586   9.087   3.039
 2428WAT     H1 7526   8.624   9.175   3.011
 2428WAT     H2 7527   8.526   9.099   3.118
 2429WAT      O 7528   7.362   2.065   0.680
 2429WAT     H1 7529   7.370   2.113   0.767
 2429WAT     H2 7530   7.428   2.103   0.615
 2430WAT      O 7531   5.058   5.958   2.303
 2430WAT     H1 7532   5.111   6.020   2.360
 2430WAT     H2 7533   5.052   5.996   2.210
 2431WAT      O 7534   1.452   7.922   3.939
 2431WAT     H1 7535   1.552   7.928   3.945
 2431WAT     H2 7536   1.418   7.858   4.007
 2432WAT      O 7537   1.001   5.076   4.234
 2432WAT     H1 7538   1.007   5.016   4.314
 2432WAT     H2 7539   0.939   5.035   4.167
 2433WAT      O 7540   1.510   1.676   0.173
 2433WAT     H1 7541   1.482   1.699   0.266
 2433WAT     H2 7542   1.588   1.732   0.146
 2434WAT      O 7543   5.396   5.819   5.978
 2434WAT     H1 7544   5.396   5.755   6.055
 2434WAT     H2 7545   5.469   5.796   5.914
 2435WAT      O 7546   4.670   2.915   1.496
 2435WAT     H1 7547   4.751   2.887   1.547
 2435WAT     H2 7548   4.602   2.953   1.558
 2436WAT      O 7549   6.553   1.300   3.605
 2436WAT     H1 7550   6.498   1.280   3.686
 2436WAT     H2 7551   6.560   1.399   3.593
 2437WAT      O 7552   3.748   9.134   5.835
 2437WAT     H1 7553   3.731   9.184   5.920
 2437WAT     H2 7554   3.676   9.066   5.822
 2438WAT      O 7555   7.210   8.407   0.455
 2438WAT     H1 7556   7.279   8.381   0.387
 2438WAT     H2 7557   7.201   8.334   0.523
 2439WAT      O 7558   5.803   9.726   2.237
 2439WAT     H1 7559   5.712   9.686   2.236
 2439WAT     H2 7560   5.869   9.658   2.271
 2440WAT      O 7561   8.578   7.478   4.268
 2440WAT     H1 7562   8.663   7.525   4.291
 2440WAT     H2 7563   8.534   7.446   4.352
 2441WAT      O 7564   8.837   9.672   2.009
 2441WAT     H1 7565   8.772   9.598   1.998
 2441WAT     H2 7566   8.911   9.663   1.942
 2442WAT      O 7567   9.663   9.559   8.461
 2442WAT     H1 7568   9.636   9.571   8.557
 2442WAT     H2 7569   9.614   9.624   8.404
 2443WAT      O 7570   9.654   2.940   8.251
 2443WAT     H1 7571   9.573   2.883   8.268
 2443WAT     H2 7572   9.711   2.898   8.180
 2444WAT      O 7573   5.536   0.877   9.851
 2444WAT     H1 7574   5.598   0.803   9.877
 2444WAT     H2 7575   5.472   0.844   9.782
 2445WAT      O 7576   6.166   5.236   4.945
 2445WAT     H1 7577   6.170   5.148   4.898
 2445WAT     H2 7578   6.215   5.304   4.891
 2446WAT      O 7579   8.015   3.740   1.056
 2446WAT     H1 7580   8.104   3.757   1.101
 2446WAT     H2 7581   7.958   3.684   1.117
 2447WAT      O 7582   7.879   6.401   6.761
 2447WAT     H1 7583   7.845   6.314   6.726
 2447WAT     H2 7584   7.836   6.421   6.849
 2448WAT      O 7585   1.768   0.919   6.731
 2448WAT     H1 7586   1.684   0.881   6.693
 2448WAT     H2 7587   1.763   0.917   6.831
 2449WAT      O 7588   4.293   2.968   4.255
 2449WAT     H1 7589   4.232   2.889   4.258
 2449WAT     H2 7590   4.357   2.957   4.179
 2450WAT      O 7591   2.529   8.804   1.271
 2450WAT     H1 7592   2.585   8.820   1.190
 2450WAT     H2 7593   2.515   8.706   1.284
 2451WAT      O 7594   8.938   4.176   6.207
 2451WAT     H1 7595   8.966   4.262   6.163
 2451WAT     H2 7596   8.982   4.169   6.296
 2452WAT      O 7597   4.302   9.128   2.418
 2452WAT     H1 7598   4.380   9.188   2.404
 2452WAT     H2 7599   4.241   9.167   2.487
 2453WAT      O 7600   7.690   7.470   0.942
 2453WAT     H1 7601   7.696   7.448   0.844
 2453WAT     H2 7602   7.772   7.519   0.969
 2454WAT      O 7603   0.722   6.871   9.204
 2454WAT     H1 7604   0.753   6.964   9.184
 2454WAT     H2 7605   0.792   6.806   9.173
 2455WAT      O 7606   3.912   4.981   4.383
 2455WAT     H1 7607   3.997   4.959   4.335
 2455WAT     H2 7608   3.840   5.000   4.316
 2456WAT      O 7609   8.820   9.486   3.431
 2456WAT     H1 7610   8.776   9.420   3.371
 2456WAT     H2 7611   8.872   9.551   3.376
 2457WAT      O 7612   4.707   3.615   0.819
 2457WAT     H1 7613   4.775   3.620   0.745
 2457WAT     H2 7614   4.704   3.703   0.867
 2458WAT      O 7615   0.548   5.089   4.573
 2458WAT     H1 7616   0.630   5.141   4.596
 2458WAT     H2 7617   0.508   5.126   4.489
 2459WAT      O 7618   5.093   9.567   7.265
 2459WAT     H1 7619   5.080   9.561   7.364
 2459WAT     H2 7620   5.165   9.504   7.237
 2460WAT      O 7621   0.022   8.986   2.689
 2460WAT     H1 7622  -0.003   8.915   2.755
 2460WAT     H2 7623  -0.017   8.963   2.600
 2461WAT      O 7624   9.404   6.152   5.340
 2461WAT     H1 7625   9.389   6.185   5.247
 2461WAT     H2 7626   9.498   6.173   5.369
 2462WAT      O 7627   0.553   2.017   8.253
 2462WAT     H1 7628   0.566   2.116   8.243
 2462WAT     H2 7629   0.582   1.971   8.169
 2463WAT      O 7630   1.338   9.191   1.666
 2463WAT     H1 7631   1.286   9.192   1.752
 2463WAT     H2 7632   1.282   9.149   1.594
 2464WAT      O 7633   5.608   4.517   2.776
 2464WAT     H1 7634   5.621   4.490   2.681
 2464WAT     H2 7635   5.609   4.617   2.783
 2465WAT      O 7636   5.099   2.761   6.329
 2465WAT     H1 7637   5.075   2.857   6.339
 2465WAT     H2 7638   5.069   2.710   6.409
 2466WAT      O 7639   9.349   7.825   5.479
 2466WAT     H1 7640   9.356   7.819   5.380
 2466WAT     H2 7641   9.287   7.900   5.503
 2467WAT      O 7642   1.188   5.553   6.659
 2467WAT     H1 7643   1.177   5.457   6.632
 2467WAT     H2 7644   1.272   5.590   6.618
 2468WAT      O 7645   8.344   7.126   9.775
 2468WAT     H1 7646   8.316   7.149   9.868
 2468WAT     H2 7647   8.263   7.097   9.722
 2469WAT      O 7648   9.178   2.632   0.496
 2469WAT     H1 7649   9.270   2.670   0.485
 2469WAT     H2 7650   9.137   2.668   0.580
 2470WAT      O 7651   6.440   5.692   6.970
 2470WAT     H1 7652   6.349   5.723   6.944
 2470WAT     H2 7653   6.438   5.593   6.986
 2471WAT      O 7654   7.153   2.703   0.325
 2471WAT     H1 7655   7.182   2.621   0.375
 2471WAT     H2 7656   7.234   2.754   0.295
 2472WAT      O 7657   3.124   5.911   7.261
 2472WAT     H1 7658   3.214   5.940   7.290
 2472WAT     H2 7659   3.126   5.889   7.163
 2473WAT      O 7660   1.437   6.604   2.449
 2473WAT     H1 7661   1.421   6.529   2.513
 2473WAT     H2 7662   1.414   6.575   2.357
 2474WAT      O 7663   7.371   3.926   9.852
 2474WAT     H1 7664   7.350   4.009   9.799
 2474WAT     H2 7665   7.286   3.879   9.875
 2475WAT      O 7666   0.589   6.212   8.510
 2475WAT     H1 7667   0.620   6.298   8.468
 2475WAT     H2 7668   0.492   6.198   8.490
 2476WAT      O 7669   0.171   2.172   4.052
 2476WAT     H1 7670   0.079   2.164   4.015
 2476WAT     H2 7671   0.216   2.251   4.012
 2477WAT      O 7672   3.743   8.457   9.786
 2477WAT     H1 7673   3.689   8.375   9.765
 2477WAT     H2 7674   3.817   8.432   9.849
 2478WAT      O 7675   0.310   1.845   9.159
 2478WAT     H1 7676   0.273   1.894   9.080
 2478WAT     H2 7677   0.250   1.859   9.238
 2479WAT      O 7678   8.549   8.263   3.051
 2479WAT     H1 7679   8.450   8.264   3.038
 2479WAT     H2 7680   8.573   8.195   3.120
 2480WAT      O 7681   2.835   0.197   0.151
 2480WAT     H1 7682   2.862   0.279   0.201
 2480WAT     H2 7683   2.779   0.222   0.072
 2481WAT      O 7684   7.652   0.318   5.393
 2481WAT     H1 7685   7.683   0.408   5.360
 2481WAT     H2 7686   7.730   0.257   5.404
 2482WAT      O 7687   3.087   8.240   1.942
 2482WAT     H1 7688   3.143   8.179   1.998
 2482WAT     H2 7689   3.053   8.315   1.999
 2483WAT      O 7690   1.007   0.551   2.095
 2483WAT     H1 7691   0.932   0.581   2.154
 2483WAT     H2 7692   1.074   0.501   2.149
 2484WAT      O 7693   4.638   7.414   7.750
 2484WAT     H1 7694   4.598   7.506   7.748
 2484WAT     H2 7695   4.732   7.419   7.716
 2485WAT      O 7696   5.155   9.577   9.640
 2485WAT     H1 7697   5.161   9.595   9.738
 2485WAT     H2 7698   5.136   9.662   9.591
 2486WAT      O 7699   8.914   4.141   2.901
 2486WAT     H1 7700   8.857   4.064   2.870
 2486WAT     H2 7701   8.932   4.201   2.823
 2487WAT      O 7702   3.791   4.691   8.462
 2487WAT     H1 7703   3.879   4.651   8.487
 2487WAT     H2 7704   3.779   4.778   8.510
 2488WAT      O 7705   3.464   2.930   8.881
 2488WAT     H1 7706   3.374   2.966   8.907
 2488WAT     H2 7707   3.472   2.931   8.781
 2489WAT      O 7708   4.996   5.451   2.390
 2489WAT     H1 7709   5.052   5.529   2.418
 2489WAT     H2 7710   5.053   5.385   2.340
 2490WAT      O 7711   1.734   0.152   2.192
 2490WAT     H1 7712   1.774   0.158   2.101
 2490WAT     H2 7713   1.806   0.149   2.261
 2491WAT      O 7714   2.247   2.205   5.750
 2491WAT     H1 7715   2.183   2.267   5.705
 2491WAT     H2 7716   2.243   2.219   5.849
 2492WAT      O 7717   7.814   9.714   0.044
 2492WAT     H1 7718   7.819   9.658  -0.039
 2492WAT     H2 7719   7.724   9.702   0.086
 2493WAT      O 7720   4.933   4.035   7.832
 2493WAT     H1 7721   5.033   4.036   7.828
 2493WAT     H2 7722   4.903   4.072   7.920
 2494WAT      O 7723   8.863   2.257   3.219
 2494WAT     H1 7724   8.778   2.296   3.184
 2494WAT     H2 7725   8.936   2.325   3.211
 2495WAT      O 7726   3.171   5.569   0.833
 2495WAT     H1 7727   3.236   5.629   0.879
 2495WAT     H2 7728   3.090   5.558   0.890
 2496WAT      O 7729   7.628   3.126   6.216
 2496WAT     H1 7730   7.543   3.112   6.267
 2496WAT     H2 7731   7.684   3.043   6.220
 2497WAT      O 7732   5.882   5.540   6.585
 2497WAT     H1 7733   5.863   5.581   6.674
 2497WAT     H2 7734   5.816   5.466   6.567
 2498WAT      O 7735   5.275   3.168   8.111
 2498WAT     H1 7736   5.305   3.189   8.204
 2498WAT     H2 7737   5.275   3.068   8.098
 2499WAT      O 7738   3.606   4.737   6.244
 2499WAT     H1 7739   3.553   4.685   6.177
 2499WAT     H2 7740   3.546   4.771   6.316
 2500WAT      O 7741   0.002   0.683   8.711
 2500WAT     H1 7742  -0.050   0.697   8.795
 2500WAT     H2 7743   0.088   0.636   8.732
 2501WAT      O 7744   9.249   4.619   8.195
 2501WAT     H1 7745   9.204   4.531   8.178
 2501WAT     H2 7746   9.214   4.658   8.280
 2502WAT      O 7747   1.469   5.095   2.316
 2502WAT     H1 7748   1.468   5.029   2.241
 2502WAT     H2 7749   1.495   5.185   2.282
 2503WAT      O 7750   2.384   1.177   8.819
 2503WAT     H1 7751   2.395   1.223   8.907
 2503WAT     H2 7752   2.313   1.107   8.826
 2504WAT      O 7753   4.334   6.630   4.755
 2504WAT     H1 7754   4.361   6.679   4.672
 2504WAT     H2 7755   4.260   6.566   4.733
 2505WAT      O 7756   0.992   8.880   1.265
 2505WAT     H1 7757   0.977   8.856   1.360
 2505WAT     H2 7758   1.066   8.825   1.227
 2506WAT      O 7759   2.852   9.115   9.680
 2506WAT     H1 7760   2.798   9.103   9.597
 2506WAT     H2 7761   2.818   9.195   9.730
 2507WAT      O 7762   4.688   1.604   5.774
 2507WAT     H1 7763   4.718   1.512   5.798
 2507WAT     H2 7764   4.700   1.619   5.676
 2508WAT      O 7765   1.659   2.545   6.591
 2508WAT     H1 7766   1.731   2.525   6.657
 2508WAT     H2 7767   1.634   2.461   6.543
 2509WAT      O 7768   2.337   3.023   5.749
 2509WAT     H1 7769   2.264   2.981   5.804
 2509WAT     H2 7770   2.359   2.962   5.672
 2510WAT      O 7771   7.623   7.508   4.375
 2510WAT     H1 7772   7.632   7.607   4.384
 2510WAT     H2 7773   7.526   7.483   4.369
 2511WAT      O 7774   7.017   0.871   2.793
 2511WAT     H1 7775   6.950   0.908   2.857
 2511WAT     H2 7776   7.088   0.940   2.775
 2512WAT      O 7777   1.282   3.408   7.973
 2512WAT     H1 7778   1.377   3.392   8.000
 2512WAT     H2 7779   1.276   3.496   7.926
 2513WAT      O 7780   4.269   0.925   3.201
 2513WAT     H1 7781   4.183   0.876   3.189
 2513WAT     H2 7782   4.335   0.894   3.133
 2514WAT      O 7783   9.844   7.262   9.226
 2514WAT     H1 7784   9.933   7.296   9.257
 2514WAT     H2 7785   9.842   7.258   9.127
 2515WAT      O 7786   6.963   6.335   0.103
 2515WAT     H1 7787   6.924   6.323   0.012
 2515WAT     H2 7788   7.061   6.353   0.095
 2516WAT      O 7789   1.231   9.561   4.959
 2516WAT     H1 7790   1.208   9.622   4.883
 2516WAT     H2 7791   1.218   9.609   5.046
 2517WAT      O 7792   3.283   8.874   8.918
 2517WAT     H1 7793   3.187   8.892   8.938
 2517WAT     H2 7794   3.335   8.867   9.003
 2518WAT      O 7795   0.976   9.669   3.088
 2518WAT     H1 7796   0.973   9.724   3.172
 2518WAT     H2 7797   1.032   9.587   3.104
 2519WAT      O 7798   4.417   7.778   8.875
 2519WAT     H1 7799   4.382   7.749   8.964
 2519WAT     H2 7800   4.489   7.714   8.845
 2520WAT      O 7801   8.414   0.555   4.300
 2520WAT     H1 7802   8.434   0.508   4.386
 2520WAT     H2 7803   8.387   0.488   4.231
 2521WAT      O 7804   0.325   1.530   6.879
 2521WAT     H1 7805   0.300   1.510   6.974
 2521WAT     H2 7806   0.243   1.530   6.822
 2522WAT      O 7807   4.291   5.381   0.759
 2522WAT     H1 7808   4.217   5.358   0.823
 2522WAT     H2 7809   4.338   5.462   0.792
 2523WAT      O 7810   1.759   2.614   3.241
 2523WAT     H1 7811   1.795   2.706   3.259
 2523WAT     H2 7812   1.831   2.546   3.255
 2524WAT      O 7813   6.104   5.195   1.247
 2524WAT     H1 7814   6.162   5.260   1.296
 2524WAT     H2 7815   6.063   5.241   1.168
 2525WAT      O 7816   4.448   0.768   6.735
 2525WAT     H1 7817   4.466   0.861   6.768
 2525WAT     H2 7818   4.444   0.706   6.814
 2526WAT      O 7819   8.864   8.826   5.196
 2526WAT     H1 7820   8.874   8.731   5.167
 2526WAT     H2 7821   8.767   8.850   5.197
 2527WAT      O 7822   5.778   2.213   2.306
 2527WAT     H1 7823   5.840   2.291   2.297
 2527WAT     H2 7824   5.684   2.246   2.317
 2528WAT      O 7825   0.917   0.585   2.539
 2528WAT     H1 7826   0.882   0.593   2.445
 2528WAT     H2 7827   0.849   0.623   2.603
 2529WAT      O 7828   8.817   7.502   8.036
 2529WAT     H1 7829   8.797   7.464   7.946
 2529WAT     H2 7830   8.763   7.585   8.051
 2530WAT      O 7831   4.783   3.321   7.493
 2530WAT     H1 7832   4.811   3.396   7.433
 2530WAT     H2 7833   4.709   3.269   7.449
 2531WAT      O 7834   6.743   0.539   2.280
 2531WAT     H1 7835   6.825   0.565   2.229
 2531WAT     H2 7836   6.755   0.448   2.319
 2532WAT      O 7837   1.901   8.863   7.036
 2532WAT     H1 7838   1.887   8.959   7.008
 2532WAT     H2 7839   1.994   8.852   7.070
 2533WAT      O 7840   8.891   5.461   5.877
 2533WAT     H1 7841   8.852   5.548   5.847
 2533WAT     H2 7842   8.893   5.459   5.977
 2534WAT      O 7843   4.490   8.825   6.813
 2534WAT     H1 7844   4.523   8.756   6.877
 2534WAT     H2 7845   4.446   8.780   6.735
 2535WAT      O 7846   4.987   1.653   4.690
 2535WAT     H1 7847   4.920   1.638   4.763
 2535WAT     H2 7848   4.940   1.673   4.604
 2536WAT      O 7849   0.964   3.801   9.402
 2536WAT     H1 7850   0.912   3.744   9.338
 2536WAT     H2 7851   0.971   3.894   9.365
 2537WAT      O 7852   7.012   2.362   7.256
 2537WAT     H1 7853   6.953   2.282   7.248
 2537WAT     H2 7854   7.102   2.341   7.219
 2538WAT      O 7855   8.058   1.459   8.355
 2538WAT     H1 7856   7.999   1.500   8.286
 2538WAT     H2 7857   8.118   1.392   8.312
 2539WAT      O 7858   1.378   3.443   1.486
 2539WAT     H1 7859   1.352   3.515   1.550
 2539WAT     H2 7860   1.391   3.482   1.394
 2540WAT      O 7861   9.434   7.671   8.658
 2540WAT     H1 7862   9.407   7.710   8.569
 2540WAT     H2 7863   9.443   7.572   8.650
 2541WAT      O 7864   8.026   6.766   6.486
 2541WAT     H1 7865   8.051   6.862   6.472
 2541WAT     H2 7866   8.105   6.708   6.468
 2542WAT      O 7867   1.020   9.374   2.328
 2542WAT     H1 7868   0.979   9.302   2.385
 2542WAT     H2 7869   1.011   9.349   2.232
 2543WAT      O 7870   1.606   6.774   0.571
 2543WAT     H1 7871   1.622   6.691   0.517
 2543WAT     H2 7872   1.573   6.847   0.511
 2544WAT      O 7873   0.478   4.028   2.150
 2544WAT     H1 7874   0.548   3.970   2.108
 2544WAT     H2 7875   0.502   4.124   2.137
 2545WAT      O 7876   2.254   7.354   7.913
 2545WAT     H1 7877   2.274   7.375   7.817
 2545WAT     H2 7878   2.339   7.359   7.966
 2546WAT      O 7879   4.933   9.340   7.776
 2546WAT     H1 7880   4.983   9.374   7.856
 2546WAT     H2 7881   4.835   9.353   7.790
 2547WAT      O 7882   0.902   8.346   2.287
 2547WAT     H1 7883   0.852   8.269   2.248
 2547WAT     H2 7884   0.981   8.367   2.231
 2548WAT      O 7885   4.543   8.172   7.717
 2548WAT     H1 7886   4.448   8.148   7.737
 2548WAT     H2 7887   4.546   8.264   7.677
 2549WAT      O 7888   0.993   7.953   3.110
 2549WAT     H1 7889   0.918   8.003   3.154
 2549WAT     H2 7890   0.957   7.898   3.035
 2550WAT      O 7891   6.296   0.203   1.744
 2550WAT     H1 7892   6.240   0.218   1.825
 2550WAT     H2 7893   6.238   0.198   1.663
 2551WAT      O 7894   1.563   3.246   3.318
 2551WAT     H1 7895   1.552   3.167   3.256
 2551WAT     H2 7896   1.555   3.331   3.265
 2552WAT      O 7897   4.514   1.313   0.720
 2552WAT     H1 7898   4.579   1.246   0.757
 2552WAT     H2 7899   4.563   1.380   0.664
 2553WAT      O 7900   9.080   2.806   4.812
 2553WAT     H1 7901   9.002   2.754   4.846
 2553WAT     H2 7902   9.050   2.898   4.787
 2554WAT      O 7903   1.940   0.990   6.240
 2554WAT     H1 7904   2.017   1.016   6.182
 2554WAT     H2 7905   1.920   1.065   6.304
 2555WAT      O 7906   6.369   0.085   0.289
 2555WAT     H1 7907   6.305   0.041   0.226
 2555WAT     H2 7908   6.461   0.052   0.271
 2556WAT      O 7909   5.118   9.434   5.576
 2556WAT     H1 7910   5.036   9.446   5.520
 2556WAT     H2 7911   5.126   9.339   5.605
 2557WAT      O 7912   7.079   7.088   2.286
 2557WAT     H1 7913   7.137   7.167   2.305
 2557WAT     H2 7914   6.985   7.109   2.309
 2558WAT      O 7915   2.914   7.444   8.966
 2558WAT     H1 7916   2.870   7.421   8.880
 2558WAT     H2 7917   3.010   7.469   8.949
 2559WAT      O 7918   1.028   6.954   2.214
 2559WAT     H1 7919   0.934   6.957   2.248
 2559WAT     H2 7920   1.027   6.956   2.114
 2560WAT      O 7921   1.222   6.964   1.841
 2560WAT     H1 7922   1.254   6.886   1.787
 2560WAT     H2 7923   1.291   6.988   1.909
 2561WAT      O 7924   2.327   4.416   8.552
 2561WAT     H1 7925   2.298   4.471   8.630
 2561WAT     H2 7926   2.414   4.453   8.517
 2562WAT      O 7927   2.120   3.294   9.635
 2562WAT     H1 7928   2.147   3.358   9.706
 2562WAT     H2 7929   2.087   3.344   9.555
 2563WAT      O 7930   5.909   7.524   5.600
 2563WAT     H1 7931   5.878   7.612   5.567
 2563WAT     H2 7932   5.877   7.510   5.694
 2564WAT      O 7933   3.649   8.872   3.240
 2564WAT     H1 7934   3.739   8.862   3.199
 2564WAT     H2 7935   3.638   8.965   3.275
 2565WAT      O 7936   0.482   6.684   9.506
 2565WAT     H1 7937   0.455   6.725   9.418
 2565WAT     H2 7938   0.577   6.707   9.525
 2566WAT      O 7939   0.099   6.843   9.260
 2566WAT     H1 7940   0.177   6.836   9.323
 2566WAT     H2 7941   0.116   6.917   9.194
 2567WAT      O 7942   2.497   0.106   0.650
 2567WAT     H1 7943   2.427   0.113   0.580
 2567WAT     H2 7944   2.481   0.024   0.705
 2568WAT      O 7945   4.735   6.367   0.120
 2568WAT     H1 7946   4.802   6.429   0.080
 2568WAT     H2 7947   4.727   6.285   0.065
 2569WAT      O 7948   8.399   8.753   0.502
 2569WAT     H1 7949   8.476   8.779   0.445
 2569WAT     H2 7950   8.402   8.655   0.521
 2570WAT      O 7951   6.208   1.511   6.978
 2570WAT     H1 7952   6.277   1.528   7.048
 2570WAT     H2 7953   6.223   1.574   6.901
 2571WAT      O 7954   6.809   4.945   8.534
 2571WAT     H1 7955   6.838   5.011   8.603
 2571WAT     H2 7956   6.815   4.852   8.572
 2572WAT      O 7957   8.114   9.336   1.421
 2572WAT     H1 7958   8.100   9.238   1.411
 2572WAT     H2 7959   8.026   9.384   1.417
 2573WAT      O 7960   1.129   6.340   7.677
 2573WAT     H1 7961   1.177   6.375   7.597
 2573WAT     H2 7962   1.031   6.356   7.667
 2574WAT      O 7963   7.654   3.177   4.623
 2574WAT     H1 7964   7.636   3.238   4.546
 2574WAT     H2 7965   7.747   3.142   4.617
 2575WAT      O 7966   0.969   9.500   8.616
 2575WAT     H1 7967   0.885   9.522   8.666
 2575WAT     H2 7968   0.978   9.401   8.608
 2576WAT      O 7969   8.156   4.915   7.479
 2576WAT     H1 7970   8.153   5.001   7.428
 2576WAT     H2 7971   8.096   4.921   7.559
 2577WAT      O 7972   4.426   7.958   1.716
 2577WAT     H1 7973   4.498   8.000   1.661
 2577WAT     H2 7974   4.430   7.992   1.810
 2578WAT      O 7975   4.291   2.054   7.450
 2578WAT     H1 7976   4.222   2.119   7.481
 2578WAT     H2 7977   4.315   1.992   7.525
 2579WAT      O 7978   0.398   1.573   7.539
 2579WAT     H1 7979   0.307   1.616   7.536
 2579WAT     H2 7980   0.405   1.520   7.623
 2580WAT      O 7981   4.285   1.505   4.543
 2580WAT     H1 7982   4.372   1.463   4.569
 2580WAT     H2 7983   4.231   1.522   4.625
 2581WAT      O 7984   3.012   8.423   6.997
 2581WAT     H1 7985   3.050   8.364   6.925
 2581WAT     H2 7986   3.050   8.397   7.085
 2582WAT      O 7987   9.661   8.235   4.467
 2582WAT     H1 7988   9.597   8.171   4.424
 2582WAT     H2 7989   9.614   8.321   4.488
 2583WAT      O 7990   0.479   3.897   6.902
 2583WAT     H1 7991   0.392   3.891   6.950
 2583WAT     H2 7992   0.501   3.993   6.884
 2584WAT      O 7993   1.796   4.441   6.638
 2584WAT     H1 7994   1.726   4.382   6.599
 2584WAT     H2 7995   1.767   4.537   6.633
 2585WAT      O 7996   3.051   5.166   0.793
 2585WAT     H1 7997   3.134   5.174   0.847
 2585WAT     H2 7998   3.018   5.258   0.769
 2586WAT      O 7999   4.007   6.907   0.307
 2586WAT     H1 8000   3.947   6.850   0.363
 2586WAT     H2 8001   4.086   6.935   0.361
 2587WAT      O 8002   1.225   0.683   8.659
 2587WAT     H1 8003   1.210   0.589   8.632
 2587WAT     H2 8004   1.322   0.696   8.682
 2588WAT      O 8005   5.598   8.995   6.793
 2588WAT     H1 8006   5.519   9.012   6.852
 2588WAT     H2 8007   5.643   8.910   6.822
 2589WAT      O 8008   6.684   9.827   6.283
 2589WAT     H1 8009   6.699   9.775   6.367
 2589WAT     H2 8010   6.621   9.776   6.223
 2590WAT      O 8011   4.771   8.677   0.607
 2590WAT     H1 8012   4.860   8.710   0.640
 2590WAT     H2 8013   4.782   8.586   0.567
 2591WAT      O 8014   4.132   7.073   4.435
 2591WAT     H1 8015   4.080   6.994   4.403
 2591WAT     H2 8016   4.199   7.043   4.504
 2592WAT      O 8017   0.397   5.554   5.506
 2592WAT     H1 8018   0.369   5.584   5.415
 2592WAT     H2 8019   0.321   5.509   5.552
 2593WAT      O 8020   3.486   0.353   9.668
 2593WAT     H1 8021   3.444   0.444   9.663
 2593WAT     H2 8022   3.570   0.359   9.723
 2594WAT      O 8023   3.067   0.589   8.421
 2594WAT     H1 8024   3.138   0.659   8.415
 2594WAT     H2 8025   3.109   0.499   8.408
 2595WAT      O 8026   9.428   4.908   2.636
 2595WAT     H1 8027   9.454   4.822   2.591
 2595WAT     H2 8028   9.436   4.983   2.570
 2596WAT      O 8029   7.281   5.565   0.151
 2596WAT     H1 8030   7.213   5.587   0.081
 2596WAT     H2 8031   7.311   5.470   0.140
 2597WAT      O 8032   0.663   6.496   3.898
 2597WAT     H1 8033   0.655   6.401   3.929
 2597WAT     H2 8034   0.757   6.515   3.871
 2598WAT      O 8035   4.243   5.957   4.382
 2598WAT     H1 8036   4.166   5.900   4.353
 2598WAT     H2 8037   4.327   5.903   4.376
 2599WAT      O 8038   9.514   0.005   3.403
 2599WAT     H1 8039   9.519   0.105   3.392
 2599WAT     H2 8040   9.444  -0.018   3.470
 2600WAT      O 8041   8.698   0.651   2.598
 2600WAT     H1 8042   8.632   0.680   2.667
 2600WAT     H2 8043   8.790   0.676   2.629
 2601WAT      O 8044   5.193   1.469   3.426
 2601WAT     H1 8045   5.257   1.472   3.349
 2601WAT     H2 8046   5.115   1.528   3.407
 2602WAT      O 8047   0.086   4.932   5.464
 2602WAT     H1 8048  -0.005   4.899   5.489
 2602WAT     H2 8049   0.141   4.943   5.546
 2603WAT      O 8050   2.444   4.788   6.118
 2603WAT     H1 8051   2.344   4.784   6.123
 2603WAT     H2 8052   2.480   4.696   6.101
 2604WAT      O 8053   5.321   4.944   7.247
 2604WAT     H1 8054   5.289   4.939   7.342
 2604WAT     H2 8055   5.316   4.853   7.205
 2605WAT      O 8056   3.915   2.851   7.648
 2605WAT     H1 8057   3.861   2.770   7.626
 2605WAT     H2 8058   3.898   2.921   7.579
 2606WAT      O 8059   0.526   9.147   8.999
 2606WAT     H1 8060   0.530   9.246   8.993
 2606WAT     H2 8061   0.485   9.110   8.916
 2607WAT      O 8062   5.802   6.243   0.842
 2607WAT     H1 8063   5.781   6.285   0.931
 2607WAT     H2 8064   5.800   6.144   0.851
 2608WAT      O 8065   1.877   4.665   0.881
 2608WAT     H1 8066   1.833   4.726   0.946
 2608WAT     H2 8067   1.830   4.672   0.792
 2609WAT      O 8068   6.274   4.088   1.841
 2609WAT     H1 8069   6.240   3.995   1.856
 2609WAT     H2 8070   6.234   4.126   1.758
 2610WAT      O 8071   0.506   7.621   3.741
 2610WAT     H1 8072   0.603   7.644   3.730
 2610WAT     H2 8073   0.488   7.595   3.836
 2611WAT      O 8074   9.479   3.315   5.918
 2611WAT     H1 8075   9.440   3.345   5.831
 2611WAT     H2 8076   9.579   3.310   5.910
 2612WAT      O 8077   0.083   0.982   7.565
 2612WAT     H1 8078  -0.013   0.959   7.581
 2612WAT     H2 8079   0.106   1.065   7.616
 2613WAT      O 8080   2.091   2.050   0.746
 2613WAT     H1 8081   2.080   2.015   0.653
 2613WAT     H2 8082   2.026   2.124   0.762
 2614WAT      O 8083   8.317   2.811   8.210
 2614WAT     H1 8084   8.309   2.782   8.115
 2614WAT     H2 8085   8.403   2.778   8.248
 2615WAT      O 8086   1.360   6.142   4.916
 2615WAT     H1 8087   1.415   6.063   4.942
 2615WAT     H2 8088   1.376   6.164   4.820
 2616WAT      O 8089   2.282   9.764   4.840
 2616WAT     H1 8090   2.262   9.793   4.934
 2616WAT     H2 8091   2.242   9.830   4.776
 2617WAT      O 8092   5.755   6.103   4.222
 2617WAT     H1 8093   5.783   6.009   4.237
 2617WAT     H2 8094   5.667   6.105   4.174
 2618WAT      O 8095   1.267   0.228   1.367
 2618WAT     H1 8096   1.312   0.155   1.316
 2618WAT     H2 8097   1.245   0.196   1.459
 2619WAT      O 8098   2.258   7.465   8.661
 2619WAT     H1 8099   2.281   7.555   8.624
 2619WAT     H2 8100   2.310   7.449   8.745
 2620WAT      O 8101   5.198   3.706   5.793
 2620WAT     H1 8102   5.223   3.629   5.851
 2620WAT     H2 8103   5.265   3.716   5.720
 2621WAT      O 8104   0.798   0.591   2.276
 2621WAT     H1 8105   0.722   0.656   2.278
 2621WAT     H2 8106   0.763   0.498   2.281
 2622WAT      O 8107   3.699   0.490   6.857
 2622WAT     H1 8108   3.601   0.507   6.850
 2622WAT     H2 8109   3.743   0.565   6.906
 2623WAT      O 8110   0.660   4.728   8.195
 2623WAT     H1 8111   0.569   4.761   8.171
 2623WAT     H2 8112   0.694   4.778   8.275
 2624WAT      O 8113   6.056   0.759   9.456
 2624WAT     H1 8114   6.035   0.663   9.440
 2624WAT     H2 8115   6.006   0.791   9.537
 2625WAT      O 8116   4.991   3.247   5.371
 2625WAT     H1 8117   4.934   3.304   5.312
 2625WAT     H2 8118   5.081   3.234   5.330
 2626WAT      O 8119   5.691   0.443   2.972
 2626WAT     H1 8120   5.596   0.460   2.944
 2626WAT     H2 8121   5.751   0.450   2.893
 2627WAT      O 8122   9.541   1.239   3.886
 2627WAT     H1 8123   9.515   1.181   3.809
 2627WAT     H2 8124   9.641   1.243   3.893
 2628WAT      O 8125   3.476   1.544   6.241
 2628WAT     H1 8126   3.394   1.527   6.187
 2628WAT     H2 8127   3.533   1.462   6.242
 2629WAT      O 8128   4.682   5.330   1.485
 2629WAT     H1 8129   4.593   5.339   1.531
 2629WAT     H2 8130   4.743   5.403   1.516
 2630WAT      O 8131   2.905   2.842   7.252
 2630WAT     H1 8132   2.805   2.847   7.251
 2630WAT     H2 8133   2.940   2.883   7.337
 2631WAT      O 8134   6.098   1.975   5.109
 2631WAT     H1 8135   6.074   1.949   5.015
 2631WAT     H2 8136   6.113   1.892   5.163
 2632WAT      O 8137   7.863   2.199   0.305
 2632WAT     H1 8138   7.825   2.279   0.259
 2632WAT     H2 8139   7.809   2.118   0.283
 2633WAT      O 8140   2.055   8.542   7.664
 2633WAT     H1 8141   2.039   8.604   7.588
 2633WAT     H2 8142   2.037   8.448   7.636
 2634WAT      O 8143   0.940   7.616   3.229
 2634WAT     H1 8144   0.929   7.683   3.155
 2634WAT     H2 8145   0.969   7.663   3.313
 2635WAT      O 8146   7.509   2.799   5.780
 2635WAT     H1 8147   7.462   2.753   5.704
 2635WAT     H2 8148   7.540   2.731   5.846
 2636WAT      O 8149   6.787   0.324   6.145
 2636WAT     H1 8150   6.693   0.299   6.120
 2636WAT     H2 8151   6.789   0.421   6.172
 2637WAT      O 8152   4.908   2.699   1.149
 2637WAT     H1 8153   4.976   2.727   1.217
 2637WAT     H2 8154   4.878   2.606   1.167
 2638WAT      O 8155   0.633   4.813   9.843
 2638WAT     H1 8156   0.587   4.896   9.813
 2638WAT     H2 8157   0.581   4.733   9.814
 2639WAT      O 8158   5.777   5.566   9.685
 2639WAT     H1 8159   5.730   5.610   9.761
 2639WAT     H2 8160   5.710   5.529   9.621
 2640WAT      O 8161   8.854   5.195   4.205
 2640WAT     H1 8162   8.944   5.232   4.230
 2640WAT     H2 8163   8.789   5.271   4.197
 2641WAT      O 8164   9.804   6.833   0.295
 2641WAT     H1 8165   9.897   6.814   0.327
 2641WAT     H2 8166   9.806   6.907   0.228
 2642WAT      O 8167   1.211   7.280   5.046
 2642WAT     H1 8168   1.172   7.275   5.138
 2642WAT     H2 8169   1.138   7.292   4.980
 2643WAT      O 8170   1.448   0.722   3.187
 2643WAT     H1 8171   1.417   0.766   3.271
 2643WAT     H2 8172   1.546   0.739   3.174
 2644WAT      O 8173   9.594   1.321   1.129
 2644WAT     H1 8174   9.567   1.284   1.040
 2644WAT     H2 8175   9.561   1.261   1.201
 2645WAT      O 8176   3.786   5.602   9.852
 2645WAT     H1 8177   3.726   5.673   9.817
 2645WAT     H2 8178   3.861   5.643   9.905
 2646WAT      O 8179   8.729   5.496   3.929
 2646WAT     H1 8180   8.764   5.528   4.016
 2646WAT     H2 8181   8.641   5.539   3.910
 2647WAT      O 8182   3.041   1.028   0.102
 2647WAT     H1 8183   2.944   1.037   0.083
 2647WAT     H2 8184   3.092   1.090   0.041
 2648WAT      O 8185   7.012   0.802   9.654
 2648WAT     H1 8186   7.097   0.854   9.641
 2648WAT     H2 8187   6.951   0.820   9.577
 2649WAT      O 8188   3.301   5.982   2.075
 2649WAT     H1 8189   3.245   5.956   2.153
 2649WAT     H2 8190   3.378   5.919   2.067
 2650WAT      O 8191   2.593   5.577   6.977
 2650WAT     H1 8192   2.558   5.500   7.029
 2650WAT     H2 8193   2.691   5.567   6.962
 2651WAT      O 8194   4.740   5.494   4.227
 2651WAT     H1 8195   4.806   5.477   4.153
 2651WAT     H2 8196   4.649   5.508   4.187
 2652WAT      O 8197   0.615   8.824   7.314
 2652WAT     H1 8198   0.615   8.724   7.324
 2652WAT     H2 8199   0.705   8.854   7.284
 2653WAT      O 8200   4.775   1.859   0.397
 2653WAT     H1 8201   4.834   1.785   0.366
 2653WAT     H2 8202   4.794   1.879   0.493
 2654WAT      O 8203   3.038   3.604   6.071
 2654WAT     H1 8204   3.020   3.532   6.004
 2654WAT     H2 8205   2.959   3.665   6.077
 2655WAT      O 8206   1.051   5.129   6.896
 2655WAT     H1 8207   1.108   5.108   6.817
 2655WAT     H2 8208   0.956   5.107   6.875
 2656WAT      O 8209   7.544   8.913   8.057
 2656WAT     H1 8210   7.490   8.878   8.133
 2656WAT     H2 8211   7.518   9.007   8.038
 2657WAT      O 8212   1.000   8.751   4.979
 2657WAT     H1 8213   1.090   8.750   5.024
 2657WAT     H2 8214   0.987   8.840   4.934
 2658WAT      O 8215   1.681   2.436   4.323
 2658WAT     H1 8216   1.726   2.385   4.249
 2658WAT     H2 8217   1.592   2.394   4.343
 2659WAT      O 8218   0.203   7.823   3.142
 2659WAT     H1 8219   0.218   7.729   3.173
 2659WAT     H2 8220   0.291   7.869   3.132
 2660WAT      O 8221   9.814   2.154   0.408
 2660WAT     H1 8222   9.895   2.212   0.405
 2660WAT     H2 8223   9.753   2.177   0.332
 2661WAT      O 8224   4.140   4.829   7.939
 2661WAT     H1 8225   4.053   4.857   7.898
 2661WAT     H2 8226   4.200   4.909   7.948
 2662WAT      O 8227   1.272   0.776   2.989
 2662WAT     H1 8228   1.301   0.715   2.916
 2662WAT     H2 8229   1.334   0.766   3.067
 2663WAT      O 8230   6.790   3.412   8.646
 2663WAT     H1 8231   6.772   3.329   8.593
 2663WAT     H2 8232   6.789   3.391   8.743
 2664WAT      O 8233   5.022   3.435   8.911
 2664WAT     H1 8234   5.092   3.468   8.975
 2664WAT     H2 8235   5.028   3.335   8.905
 2665WAT      O 8236   6.988   1.127   7.175
 2665WAT     H1 8237   6.906   1.126   7.232
 2665WAT     H2 8238   6.975   1.189   7.098
 2666WAT      O 8239   4.967   7.697   1.923
 2666WAT     H1 8240   4.999   7.684   1.829
 2666WAT     H2 8241   5.044   7.686   1.986
 2667WAT      O 8242   4.152   4.699   7.544
 2667WAT     H1 8243   4.162   4.654   7.633
 2667WAT     H2 8244   4.085   4.773   7.550
 2668WAT      O 8245   7.927   8.461   9.353
 2668WAT     H1 8246   7.965   8.370   9.337
 2668WAT     H2 8247   7.858   8.481   9.284
 2669WAT      O 8248   6.462   6.972   8.705
 2669WAT     H1 8249   6.483   7.039   8.777
 2669WAT     H2 8250   6.437   6.885   8.747
 2670WAT      O 8251   3.164   7.511   8.217
 2670WAT     H1 8252   3.222   7.433   8.193
 2670WAT     H2 8253   3.202   7.557   8.297
 2671WAT      O 8254   3.607   0.071   2.895
 2671WAT     H1 8255   3.680   0.092   2.961
 2671WAT     H2 8256   3.564   0.156   2.864
 2672WAT      O 8257   6.812   5.846   3.748
 2672WAT     H1 8258   6.712   5.839   3.741
 2672WAT     H2 8259   6.843   5.800   3.830
 2673WAT      O 8260   7.640   4.064   1.762
 2673WAT     H1 8261   7.720   4.091   1.817
 2673WAT     H2 8262   7.613   3.971   1.788
 2674WAT      O 8263   1.486   0.816   2.219
 2674WAT     H1 8264   1.425   0.859   2.153
 2674WAT     H2 8265   1.435   0.749   2.273
 2675WAT      O 8266   2.127   8.907   3.389
 2675WAT     H1 8267   2.211   8.937   3.432
 2675WAT     H2 8268   2.144   8.887   3.293
 2676WAT      O 8269   2.213   6.962   9.812
 2676WAT     H1 8270   2.154   6.884   9.792
 2676WAT     H2 8271   2.294   6.931   9.862
 2677WAT      O 8272   6.787   5.138   8.036
 2677WAT     H1 8273   6.782   5.183   7.947
 2677WAT     H2 8274   6.700   5.093   8.055
 2678WAT      O 8275   7.853   4.432   4.580
 2678WAT     H1 8276   7.797   4.353   4.607
 2678WAT     H2 8277   7.802   4.488   4.516
 2679WAT      O 8278   9.216   4.150   4.870
 2679WAT     H1 8279   9.151   4.165   4.944
 2679WAT     H2 8280   9.306   4.128   4.908
 2680WAT      O 8281   7.150   0.972   1.718
 2680WAT     H1 8282   7.102   1.060   1.726
 2680WAT     H2 8283   7.200   0.969   1.631
 2681WAT      O 8284   4.042   6.268   6.399
 2681WAT     H1 8285   3.976   6.336   6.367
 2681WAT     H2 8286   4.130   6.311   6.415
 2682WAT      O 8287   7.533   2.048   6.096
 2682WAT     H1 8288   7.448   1.996   6.099
 2682WAT     H2 8289   7.520   2.136   6.141
 2683WAT      O 8290   6.107   9.385   2.109
 2683WAT     H1 8291   6.108   9.358   2.206
 2683WAT     H2 8292   6.168   9.325   2.057
 2684WAT      O 8293   4.052   2.876   5.845
 2684WAT     H1 8294   4.094   2.819   5.915
 2684WAT     H2 8295   4.114   2.949   5.819
 2685WAT      O 8296   5.843   5.659   6.838
 2685WAT     H1 8297   5.858   5.688   6.933
 2685WAT     H2 8298   5.761   5.602   6.833
 2686WAT      O 8299   7.146   1.782   3.392
 2686WAT     H1 8300   7.062   1.728   3.388
 2686WAT     H2 8301   7.124   1.879   3.382
 2687WAT      O 8302   1.826   5.305   0.481
 2687WAT     H1 8303   1.802   5.402   0.470
 2687WAT     H2 8304   1.918   5.297   0.518
 2688WAT      O 8305   6.817   2.414   3.375
 2688WAT     H1 8306   6.729   2.401   3.420
 2688WAT     H2 8307   6.879   2.340   3.402
 2689WAT      O 8308   8.142   5.531   4.507
 2689WAT     H1 8309   8.127   5.612   4.449
 2689WAT     H2 8310   8.058   5.477   4.510
 2690WAT      O 8311   1.149   0.845   2.237
 2690WAT     H1 8312   1.198   0.805   2.160
 2690WAT     H2 8313   1.051   0.848   2.215
 2691WAT      O 8314   8.382   5.456   2.746
 2691WAT     H1 8315   8.305   5.486   2.801
 2691WAT     H2 8316   8.463   5.448   2.805
 2692WAT      O 8317   4.433   7.802   6.775
 2692WAT     H1 8318   4.412   7.899   6.766
 2692WAT     H2 8319   4.436   7.760   6.684
 2693WAT      O 8320   8.406   6.384   2.711
 2693WAT     H1 8321   8.485   6.342   2.757
 2693WAT     H2 8322   8.381   6.468   2.759
 2694WAT      O 8323   9.599   6.601   5.665
 2694WAT     H1 8324   9.688   6.646   5.656
 2694WAT     H2 8325   9.543   6.622   5.585
 2695WAT      O 8326   8.947   4.560   6.669
 2695WAT     H1 8327   8.959   4.492   6.741
 2695WAT     H2 8328   9.000   4.642   6.689
 2696WAT      O 8329   4.233   2.350   8.874
 2696WAT     H1 8330   4.212   2.313   8.784
 2696WAT     H2 8331   4.177   2.432   8.890
 2697WAT      O 8332   0.521   6.202   3.782
 2697WAT     H1 8333   0.572   6.241   3.859
 2697WAT     H2 8334   0.545   6.105   3.773
 2698WAT      O 8335   4.760   7.121   5.812
 2698WAT     H1 8336   4.676   7.165   5.781
 2698WAT     H2 8337   4.769   7.032   5.768
 2699WAT      O 8338   8.126   2.004   7.126
 2699WAT     H1 8339   8.194   1.995   7.198
 2699WAT     H2 8340   8.062   1.927   7.130
 2700WAT      O 8341   6.885   0.102   8.523
 2700WAT     H1 8342   6.879   0.074   8.427
 2700WAT     H2 8343   6.917   0.197   8.528
 2701WAT      O 8344   2.811   8.441   4.124
 2701WAT     H1 8345   2.888   8.384   4.094
 2701WAT     H2 8346   2.793   8.424   4.221
 2702WAT      O 8347   8.659   9.443   1.931
 2702WAT     H1 8348   8.566   9.476   1.943
 2702WAT     H2 8349   8.662   9.344   1.945
 2703WAT      O 8350   7.475   5.400   9.464
 2703WAT     H1 8351   7.443   5.482   9.511
 2703WAT     H2 8352   7.542   5.353   9.522
 2704WAT      O 8353   1.045   5.466   4.476
 2704WAT     H1 8354   1.037   5.418   4.564
 2704WAT     H2 8355   0.978   5.428   4.411
 2705WAT      O 8356   2.552   9.701   7.925
 2705WAT     H1 8357   2.489   9.703   8.003
 2705WAT     H2 8358   2.549   9.789   7.877
 2706WAT      O 8359   0.810   1.615   5.989
 2706WAT     H1 8360   0.797   1.524   5.949
 2706WAT     H2 8361   0.895   1.655   5.954
 2707WAT      O 8362   2.892   7.300   0.292
 2707WAT     H1 8363   2.977   7.260   0.258
 2707WAT     H2 8364   2.843   7.344   0.217
 2708WAT      O 8365   9.272   8.852   5.865
 2708WAT     H1 8366   9.307   8.759   5.871
 2708WAT     H2 8367   9.172   8.852   5.872
 2709WAT      O 8368   0.650   0.904   8.374
 2709WAT     H1 8369   0.672   0.961   8.453
 2709WAT     H2 8370   0.698   0.816   8.382
 2710WAT      O 8371   4.374   7.206   1.679
 2710WAT     H1 8372   4.403   7.175   1.770
 2710WAT     H2 8373   4.364   7.305   1.679
 2711WAT      O 8374   7.604   6.310   3.280
 2711WAT     H1 8375   7.653   6.383   3.233
 2711WAT     H2 8376   7.505   6.324   3.269
 2712WAT      O 8377   4.525   0.672   0.831
 2712WAT     H1 8378   4.547   0.696   0.926
 2712WAT     H2 8379   4.571   0.587   0.807
 2713WAT      O 8380   0.210   1.508   7.149
 2713WAT     H1 8381   0.157   1.592   7.161
 2713WAT     H2 8382   0.176   1.437   7.210
 2714WAT      O 8383   3.673   4.816   8.967
 2714WAT     H1 8384   3.720   4.901   8.990
 2714WAT     H2 8385   3.741   4.747   8.941
 2715WAT      O 8386   1.647   0.497   3.191
 2715WAT     H1 8387   1.653   0.525   3.096
 2715WAT     H2 8388   1.576   0.427   3.201
 2716WAT      O 8389   2.057   2.057   3.867
 2716WAT     H1 8390   2.127   2.032   3.934
 2716WAT     H2 8391   2.091   2.040   3.774
 2717WAT      O 8392   6.165   3.662   1.307
 2717WAT     H1 8393   6.198   3.678   1.400
 2717WAT     H2 8394   6.119   3.573   1.304
 2718WAT      O 8395   1.042   3.811   5.540
 2718WAT     H1 8396   1.002   3.748   5.473
 2718WAT     H2 8397   0.980   3.887   5.556
 2719WAT      O 8398   3.103   9.172   9.547
 2719WAT     H1 8399   3.069   9.165   9.640
 2719WAT     H2 8400   3.137   9.082   9.517
 2720WAT      O 8401   2.078   9.053   4.172
 2720WAT     H1 8402   2.161   9.060   4.116
 2720WAT     H2 8403   2.098   9.087   4.264
 2721WAT      O 8404   0.235   1.682   6.154
 2721WAT     H1 8405   0.174   1.639   6.220
 2721WAT     H2 8406   0.273   1.612   6.093
 2722WAT      O 8407   8.557   0.497   1.897
 2722WAT     H1 8408   8.614   0.534   1.824
 2722WAT     H2 8409   8.556   0.561   1.974
 2723WAT      O 8410   8.161   2.948   9.817
 2723WAT     H1 8411   8.074   2.906   9.792
 2723WAT     H2 8412   8.148   3.005   9.898
 2724WAT      O 8413   1.595   9.821   5.315
 2724WAT     H1 8414   1.648   9.901   5.342
 2724WAT     H2 8415   1.497   9.844   5.319
 2725WAT      O 8416   7.810   7.383   5.805
 2725WAT     H1 8417   7.760   7.427   5.881
 2725WAT     H2 8418   7.879   7.322   5.842
 2726WAT      O 8419   1.622   2.425   3.098
 2726WAT     H1 8420   1.662   2.504   3.144
 2726WAT     H2 8421   1.625   2.438   2.999
 2727WAT      O 8422   4.100   4.855   4.231
 2727WAT     H1 8423   4.096   4.888   4.137
 2727WAT     H2 8424   4.182   4.800   4.244
 2728WAT      O 8425   9.417   3.819   0.459
 2728WAT     H1 8426   9.334   3.830   0.405
 2728WAT     H2 8427   9.484   3.888   0.432
 2729WAT      O 8428   5.360   8.670   0.355
 2729WAT     H1 8429   5.318   8.725   0.282
 2729WAT     H2 8430   5.295   8.601   0.386
 2730WAT      O 8431   8.984   8.904   5.808
 2730WAT     H1 8432   8.908   8.885   5.871
 2730WAT     H2 8433   8.956   8.973   5.742
 2731WAT      O 8434   4.098   7.443   1.745
 2731WAT     H1 8435   4.113   7.506   1.668
 2731WAT     H2 8436   4.089   7.350   1.711
 2732WAT      O 8437   8.267   4.995   5.832
 2732WAT     H1 8438   8.284   4.939   5.751
 2732WAT     H2 8439   8.172   5.023   5.834
 2733WAT      O 8440   5.005   3.552   5.470
 2733WAT     H1 8441   5.083   3.570   5.411
 2733WAT     H2 8442   5.004   3.456   5.497
 2734WAT      O 8443   3.354   8.386   2.642
 2734WAT     H1 8444   3.392   8.396   2.550
 2734WAT     H2 8445   3.359   8.290   2.670
 2735WAT      O 8446   2.259   1.708   1.103
 2735WAT     H1 8447   2.208   1.793   1.096
 2735WAT     H2 8448   2.340   1.723   1.161
 2736WAT      O 8449   6.982   6.672   6.681
 2736WAT     H1 8450   6.902   6.648   6.626
 2736WAT     H2 8451   7.016   6.762   6.653
 2737WAT      O 8452   3.381   2.461   1.600
 2737WAT     H1 8453   3.349   2.552   1.574
 2737WAT     H2 8454   3.305   2.408   1.638
 2738WAT      O 8455   9.287   2.239   3.162
 2738WAT     H1 8456   9.320   2.270   3.252
 2738WAT     H2 8457   9.264   2.142   3.167
 2739WAT      O 8458   5.323   2.020   7.550
 2739WAT     H1 8459   5.412   1.983   7.526
 2739WAT     H2 8460   5.267   2.029   7.468
 2740WAT      O 8461   2.941   9.086   4.983
 2740WAT     H1 8462   3.040   9.094   4.968
 2740WAT     H2 8463   2.920   9.115   5.077
 2741WAT      O 8464   0.955   3.719   3.732
 2741WAT     H1 8465   0.880   3.719   3.665
 2741WAT     H2 8466   0.926   3.668   3.813
 2742WAT      O 8467   8.857   5.802   1.838
 2742WAT     H1 8468   8.888   5.826   1.930
 2742WAT     H2 8469   8.874   5.878   1.775
 2743WAT      O 8470   7.200   8.993   1.203
 2743WAT     H1 8471   7.201   9.080   1.153
 2743WAT     H2 8472   7.286   8.982   1.252
 2744WAT      O 8473   3.374   9.765   7.373
 2744WAT     H1 8474   3.360   9.780   7.471
 2744WAT     H2 8475   3.285   9.758   7.328
 2745WAT      O 8476   4.200   6.362   8.346
 2745WAT     H1 8477   4.127   6.417   8.387
 2745WAT     H2 8478   4.282   6.366   8.404
 2746WAT      O 8479   1.281   3.650   1.671
 2746WAT     H1 8480   1.307   3.745   1.658
 2746WAT     H2 8481   1.284   3.628   1.768
 2747WAT      O 8482   1.832   6.794   1.822
 2747WAT     H1 8483   1.819   6.789   1.723
 2747WAT     H2 8484   1.751   6.833   1.864
 2748WAT      O 8485   0.686   2.166   7.409
 2748WAT     H1 8486   0.619   2.238   7.429
 2748WAT     H2 8487   0.747   2.197   7.336
 2749WAT      O 8488   4.313   6.996   4.624
 2749WAT     H1 8489   4.257   6.963   4.700
 2749WAT     H2 8490   4.354   6.918   4.577
 2750WAT      O 8491   4.234   2.107   1.503
 2750WAT     H1 8492   4.155   2.051   1.528
 2750WAT     H2 8493   4.317   2.069   1.544
 2751WAT      O 8494   5.112   2.298   8.657
 2751WAT     H1 8495   5.136   2.291   8.754
 2751WAT     H2 8496   5.084   2.392   8.637
 2752WAT      O 8497   1.468   5.207   8.446
 2752WAT     H1 8498   1.383   5.243   8.408
 2752WAT     H2 8499   1.475   5.109   8.427
 2753WAT      O 8500   5.318   8.695   2.549
 2753WAT     H1 8501   5.401   8.651   2.583
 2753WAT     H2 8502   5.343   8.766   2.484
 2754WAT      O 8503   0.444   2.531   1.033
 2754WAT     H1 8504   0.543   2.542   1.033
 2754WAT     H2 8505   0.421   2.435   1.044
 2755WAT      O 8506   4.431   1.917   1.283
 2755WAT     H1 8507   4.411   2.013   1.260
 2755WAT     H2 8508   4.515   1.913   1.336
 2756WAT      O 8509   4.646   4.238   8.323
 2756WAT     H1 8510   4.628   4.336   8.310
 2756WAT     H2 8511   4.723   4.211   8.266
 2757WAT      O 8512   8.757   8.614   0.518
 2757WAT     H1 8513   8.688   8.680   0.486
 2757WAT     H2 8514   8.848   8.648   0.494
 2758WAT      O 8515   0.079   5.229   2.688
 2758WAT     H1 8516   0.176   5.237   2.712
 2758WAT     H2 8517   0.030   5.181   2.761
 2759WAT      O 8518   8.000   5.530   0.870
 2759WAT     H1 8519   7.983   5.431   0.876
 2759WAT     H2 8520   7.915   5.580   0.884
 2760WAT      O 8521   2.990   4.988   2.781
 2760WAT     H1 8522   3.026   4.918   2.720
 2760WAT     H2 8523   2.918   4.949   2.839
 2761WAT      O 8524   5.985   8.767   6.729
 2761WAT     H1 8525   6.035   8.763   6.816
 2761WAT     H2 8526   6.043   8.810   6.660
 2762WAT      O 8527   3.024   0.874   1.268
 2762WAT     H1 8528   2.971   0.849   1.187
 2762WAT     H2 8529   3.113   0.909   1.241
 2763WAT      O 8530   4.102   9.437   6.607
 2763WAT     H1 8531   4.019   9.484   6.576
 2763WAT     H2 8532   4.149   9.397   6.529
 2764WAT      O 8533   1.495   5.653   0.794
 2764WAT     H1 8534   1.427   5.709   0.842
 2764WAT     H2 8535   1.587   5.689   0.812
 2765WAT      O 8536   9.143   3.354   3.831
 2765WAT     H1 8537   9.104   3.383   3.743
 2765WAT     H2 8538   9.189   3.431   3.874
 2766WAT      O 8539   5.926   7.621   6.690
 2766WAT     H1 8540   5.908   7.609   6.788
 2766WAT     H2 8541   6.021   7.648   6.676
 2767WAT      O 8542   1.335   4.968   8.689
 2767WAT     H1 8543   1.414   5.001   8.637
 2767WAT     H2 8544   1.296   4.888   8.643
 2768WAT      O 8545   1.456   7.020   6.997
 2768WAT     H1 8546   1.542   6.985   6.960
 2768WAT     H2 8547   1.413   6.951   7.055
 2769WAT      O 8548   3.191   3.368   5.834
 2769WAT     H1 8549   3.233   3.306   5.768
 2769WAT     H2 8550   3.207   3.463   5.806
 2770WAT      O 8551   4.095   8.983   7.705
 2770WAT     H1 8552   4.125   8.957   7.613
 2770WAT     H2 8553   3.997   9.004   7.704
 2771WAT      O 8554   7.736   2.332   2.427
 2771WAT     H1 8555   7.826   2.360   2.395
 2771WAT     H2 8556   7.745   2.265   2.501
 2772WAT      O 8557   1.238   5.055   2.629
 2772WAT     H1 8558   1.318   4.996   2.621
 2772WAT     H2 8559   1.237   5.097   2.720
 2773WAT      O 8560   9.863   2.012   3.178
 2773WAT     H1 8561   9.781   2.068   3.166
 2773WAT     H2 8562   9.861   1.966   3.267
 2774WAT      O 8563   6.620   0.694   7.652
 2774WAT     H1 8564   6.646   0.626   7.584
 2774WAT     H2 8565   6.522   0.715   7.643
 2775WAT      O 8566   7.798   2.957   3.234
 2775WAT     H1 8567   7.698   2.964   3.230
 2775WAT     H2 8568   7.823   2.876   3.287
 2776WAT      O 8569   1.802   4.978   8.830
 2776WAT     H1 8570   1.748   5.061   8.817
 2776WAT     H2 8571   1.741   4.898   8.835
 2777WAT      O 8572   3.632   7.007   7.678
 2777WAT     H1 8573   3.669   6.957   7.599
 2777WAT     H2 8574   3.553   7.061   7.648
 2778WAT      O 8575   6.564   7.785   0.614
 2778WAT     H1 8576   6.596   7.863   0.560
 2778WAT     H2 8577   6.628   7.768   0.689
 2779WAT      O 8578   7.339   4.692   6.997
 2779WAT     H1 8579   7.343   4.711   7.095
 2779WAT     H2 8580   7.399   4.755   6.948
 2780WAT      O 8581   5.546   9.564   7.482
 2780WAT     H1 8582   5.633   9.575   7.531
 2780WAT     H2 8583   5.488   9.499   7.530
 2781WAT      O 8584   7.490   0.724   2.825
 2781WAT     H1 8585   7.549   0.802   2.802
 2781WAT     H2 8586   7.542   0.639   2.818
 2782WAT      O 8587   3.937   5.991   0.579
 2782WAT     H1 8588   3.890   5.905   0.558
 2782WAT     H2 8589   3.944   6.046   0.497
 2783WAT      O 8590   8.850   0.951   1.137
 2783WAT     H1 8591   8.860   1.050   1.127
 2783WAT     H2 8592   8.805   0.932   1.224
 2784WAT      O 8593   3.348   0.865   9.897
 2784WAT     H1 8594   3.306   0.793   9.842
 2784WAT     H2 8595   3.329   0.954   9.856
 2785WAT      O 8596   9.594   4.332   1.404
 2785WAT     H1 8597   9.684   4.289   1.408
 2785WAT     H2 8598   9.580   4.372   1.313
 2786WAT      O 8599   2.351   7.540   1.197
 2786WAT     H1 8600   2.314   7.610   1.257
 2786WAT     H2 8601   2.284   7.517   1.126
 2787WAT      O 8602   3.945   7.987   4.506
 2787WAT     H1 8603   3.908   8.063   4.452
 2787WAT     H2 8604   3.881   7.910   4.502
 2788WAT      O 8605   8.729   7.135   3.775
 2788WAT     H1 8606   8.782   7.050   3.783
 2788WAT     H2 8607   8.770   7.205   3.834
 2789WAT      O 8608   0.996   6.333   7.045
 2789WAT     H1 8609   0.946   6.251   7.018
 2789WAT     H2 8610   1.094   6.316   7.038
 2790WAT      O 8611   7.280   6.398   1.373
 2790WAT     H1 8612   7.221   6.464   1.326
 2790WAT     H2 8613   7.252   6.390   1.468
 2791WAT      O 8614   4.034   3.102   8.305
 2791WAT     H1 8615   4.134   3.091   8.312
 2791WAT     H2 8616   4.012   3.199   8.298
 2792WAT      O 8617   1.727   1.813   0.457
 2792WAT     H1 8618   1.781   1.740   0.416
 2792WAT     H2 8619   1.711   1.885   0.388
 2793WAT      O 8620   7.769   8.481   2.676
 2793WAT     H1 8621   7.746   8.439   2.588
 2793WAT     H2 8622   7.866   8.468   2.694
 2794WAT      O 8623   5.065   0.402   3.340
 2794WAT     H1 8624   5.104   0.312   3.317
 2794WAT     H2 8625   5.104   0.471   3.279
 2795WAT      O 8626   9.178   8.335   5.459
 2795WAT     H1 8627   9.126   8.398   5.401
 2795WAT     H2 8628   9.134   8.329   5.549
 2796WAT      O 8629   5.019   8.648   4.897
 2796WAT     H1 8630   5.094   8.600   4.941
 2796WAT     H2 8631   5.049   8.740   4.870
 2797WAT      O 8632   1.731   9.541   1.660
 2797WAT     H1 8633   1.651   9.514   1.607
 2797WAT     H2 8634   1.701   9.579   1.748
 2798WAT      O 8635   5.520   3.378   4.466
 2798WAT     H1 8636   5.524   3.425   4.554
 2798WAT     H2 8637   5.441   3.411   4.414
 2799WAT      O 8638   1.113   0.944   2.836
 2799WAT     H1 8639   1.162   0.884   2.899
 2799WAT     H2 8640   1.075   1.022   2.887
 2800WAT      O 8641   7.982   6.834   4.952
 2800WAT     H1 8642   7.976   6.832   5.052
 2800WAT     H2 8643   7.890   6.830   4.914
 2801WAT      O 8644   0.077   3.239   0.005
 2801WAT     H1 8645   0.150   3.219   0.071
 2801WAT     H2 8646   0.039   3.329   0.025
 2802WAT      O 8647   2.815   1.122   0.501
 2802WAT     H1 8648   2.837   1.052   0.569
 2802WAT     H2 8649   2.899   1.152   0.457
 2803WAT      O 8650   8.169   5.276   5.754
 2803WAT     H1 8651   8.235   5.245   5.687
 2803WAT     H2 8652   8.089   5.215   5.753
 2804WAT      O 8653   9.862   6.794   5.556
 2804WAT     H1 8654   9.813   6.869   5.601
 2804WAT     H2 8655   9.952   6.784   5.598
 2805WAT      O 8656   8.650   1.111   1.718
 2805WAT     H1 8657   8.678   1.125   1.813
 2805WAT     H2 8658   8.680   1.189   1.663
 2806WAT      O 8659   9.034   8.405   8.436
 2806WAT     H1 8660   8.967   8.380   8.367
 2806WAT     H2 8661   9.025   8.502   8.459
 2807WAT      O 8662   1.555   9.080   3.887
 2807WAT     H1 8663   1.655   9.072   3.883
 2807WAT     H2 8664   1.530   9.158   3.944
 2808WAT      O 8665   8.495   0.935   3.803
 2808WAT     H1 8666   8.435   0.855   3.805
 2808WAT     H2 8667   8.444   1.016   3.775
 2809WAT      O 8668   6.006   9.774   8.911
 2809WAT     H1 8669   6.030   9.749   9.005
 2809WAT     H2 8670   6.010   9.693   8.852
 2810WAT      O 8671   5.274   8.401   2.102
 2810WAT     H1 8672   5.218   8.319   2.094
 2810WAT     H2 8673   5.217   8.482   2.088
 2811WAT      O 8674   7.308   8.657   3.701
 2811WAT     H1 8675   7.367   8.720   3.752
 2811WAT     H2 8676   7.358   8.572   3.683
 2812WAT      O 8677   6.778   9.584   5.978
 2812WAT     H1 8678   6.787   9.548   5.885
 2812WAT     H2 8679   6.843   9.660   5.990
 2813WAT      O 8680   3.921   1.144   4.377
 2813WAT     H1 8681   3.867   1.227   4.362
 2813WAT     H2 8682   3.998   1.164   4.438
 2814WAT      O 8683   1.021   1.869   0.439
 2814WAT     H1 8684   0.942   1.919   0.403
 2814WAT     H2 8685   1.103   1.926   0.430
 2815WAT      O 8686   3.594   0.110   7.714
 2815WAT     H1 8687   3.670   0.046   7.707
 2815WAT     H2 8688   3.512   0.069   7.672
 2816WAT      O 8689   0.908   0.725   8.343
 2816WAT     H1 8690   0.894   0.723   8.442
 2816WAT     H2 8691   1.006   0.722   8.323
 2817WAT      O 8692   3.279   9.426   4.918
 2817WAT     H1 8693   3.213   9.410   4.992
 2817WAT     H2 8694   3.345   9.496   4.947
 2818WAT      O 8695   6.522   0.237   3.078
 2818WAT     H1 8696   6.562   0.160   3.029
 2818WAT     H2 8697   6.595   0.294   3.116
 2819WAT      O 8698   5.920   9.203   8.555
 2819WAT     H1 8699   5.918   9.278   8.621
 2819WAT     H2 8700   5.885   9.119   8.597
 2820WAT      O 8701   5.005   5.291   5.554
 2820WAT     H1 8702   4.968   5.307   5.462
 2820WAT     H2 8703   5.014   5.379   5.602
 2821WAT      O 8704   9.324   3.834   6.588
 2821WAT     H1 8705   9.294   3.749   6.631
 2821WAT     H2 8706   9.418   3.823   6.555
 2822WAT      O 8707   6.572   0.946   4.455
 2822WAT     H1 8708   6.476   0.971   4.468
 2822WAT     H2 8709   6.598   0.962   4.361
 2823WAT      O 8710   8.295   0.449   9.449
 2823WAT     H1 8711   8.287   0.439   9.349
 2823WAT     H2 8712   8.208   0.425   9.491
 2824WAT      O 8713   6.834   6.331   8.665
 2824WAT     H1 8714   6.925   6.343   8.625
 2824WAT     H2 8715   6.768   6.309   8.593
 2825WAT      O 8716   9.853   9.223   6.804
 2825WAT     H1 8717   9.843   9.322   6.794
 2825WAT     H2 8718   9.766   9.182   6.833
 2826WAT      O 8719   1.283   1.233   7.602
 2826WAT     H1 8720   1.368   1.269   7.566
 2826WAT     H2 8721   1.222   1.209   7.527
 2827WAT      O 8722   8.846   8.416   7.111
 2827WAT     H1 8723   8.945   8.422   7.122
 2827WAT     H2 8724   8.823   8.420   7.014
 2828WAT      O 8725   2.293   7.613   2.422
 2828WAT     H1 8726   2.272   7.614   2.520
 2828WAT     H2 8727   2.390   7.633   2.409
 2829WAT      O 8728   6.565   8.695   1.300
 2829WAT     H1 8729   6.531   8.788   1.309
 2829WAT     H2 8730   6.662   8.697   1.277
 2830WAT      O 8731   7.274   4.126   6.670
 2830WAT     H1 8732   7.261   4.209   6.724
 2830WAT     H2 8733   7.191   4.071   6.674
 2831WAT      O 8734   9.575   9.632   5.608
 2831WAT     H1 8735   9.642   9.668   5.544
 2831WAT     H2 8736   9.551   9.538   5.582
 2832WAT      O 8737   0.659   1.053   3.591
 2832WAT     H1 8738   0.752   1.058   3.628
 2832WAT     H2 8739   0.650   1.116   3.514
 2833WAT      O 8740   1.863   3.458   2.039
 2833WAT     H1 8741   1.775   3.418   2.012
 2833WAT     H2 8742   1.857   3.557   2.039
 2834WAT      O 8743   5.344   1.052   0.385
 2834WAT     H1 8744   5.416   1.043   0.454
 2834WAT     H2 8745   5.318   0.961   0.353
 2835WAT      O 8746   7.999   6.421   7.405
 2835WAT     H1 8747   7.926   6.383   7.350
 2835WAT     H2 8748   7.974   6.512   7.437
 2836WAT      O 8749   3.346   9.772   7.934
 2836WAT     H1 8750   3.318   9.867   7.950
 2836WAT     H2 8751   3.274   9.710   7.965
 2837WAT      O 8752   7.332   7.682   5.408
 2837WAT     H1 8753   7.393   7.653   5.334
 2837WAT     H2 8754   7.268   7.608   5.430
 2838WAT      O 8755   5.215   7.161   6.769
 2838WAT     H1 8756   5.136   7.144   6.829
 2838WAT     H2 8757   5.279   7.222   6.815
 2839WAT      O 8758   6.675   6.366   0.849
 2839WAT     H1 8759   6.679   6.456   0.892
 2839WAT     H2 8760   6.602   6.312   0.892
 2840WAT      O 8761   3.109   1.634   7.776
 2840WAT     H1 8762   3.057   1.660   7.857
 2840WAT     H2 8763   3.058   1.660   7.694
 2841WAT      O 8764   1.085   9.777   3.606
 2841WAT     H1 8765   1.174   9.751   3.568
 2841WAT     H2 8766   1.095   9.863   3.656
 2842WAT      O 8767   7.823   0.179   0.361
 2842WAT     H1 8768   7.840   0.275   0.380
 2842WAT     H2 8769   7.806   0.166   0.263
 2843WAT      O 8770   9.738   2.097   2.537
 2843WAT     H1 8771   9.788   2.060   2.614
 2843WAT     H2 8772   9.677   2.027   2.499
 2844WAT      O 8773   1.588   0.250   6.103
 2844WAT     H1 8774   1.496   0.256   6.065
 2844WAT     H2 8775   1.647   0.318   6.058
 2845WAT      O 8776   8.654   8.183   7.983
 2845WAT     H1 8777   8.722   8.225   8.044
 2845WAT     H2 8778   8.702   8.127   7.915
 2846WAT      O 8779   8.655   1.447   5.092
 2846WAT     H1 8780   8.725   1.383   5.125
 2846WAT     H2 8781   8.565   1.415   5.120
 2847WAT      O 8782   6.187   3.515   4.852
 2847WAT     H1 8783   6.154   3.574   4.925
 2847WAT     H2 8784   6.126   3.436   4.844
 2848WAT      O 8785   8.112   4.984   0.814
 2848WAT     H1 8786   8.179   4.949   0.879
 2848WAT     H2 8787   8.111   4.926   0.733
 2849WAT      O 8788   9.641   6.563   4.087
 2849WAT     H1 8789   9.695   6.494   4.040
 2849WAT     H2 8790   9.638   6.647   4.033
 2850WAT      O 8791   8.319   4.804   5.655
 2850WAT     H1 8792   8.413   4.835   5.643
 2850WAT     H2 8793   8.310   4.710   5.624
 2851WAT      O 8794   2.881   4.690   4.425
 2851WAT     H1 8795   2.827   4.773   4.406
 2851WAT     H2 8796   2.897   4.683   4.523
 2852WAT      O 8797   2.901   2.195   4.719
 2852WAT     H1 8798   2.935   2.101   4.722
 2852WAT     H2 8799   2.849   2.210   4.635
 2853WAT      O 8800   5.796   8.840   5.868
 2853WAT     H1 8801   5.883   8.887   5.882
 2853WAT     H2 8802   5.794   8.799   5.777
 2854WAT      O 8803   0.784   2.187   0.965
 2854WAT     H1 8804   0.696   2.162   1.007
 2854WAT     H2 8805   0.832   2.251   1.025
 2855WAT      O 8806   9.019   1.814   3.363
 2855WAT     H1 8807   9.014   1.763   3.448
 2855WAT     H2 8808   8.988   1.908   3.378
 2856WAT      O 8809   4.859   7.265   0.046
 2856WAT     H1 8810   4.954   7.245   0.021
 2856WAT     H2 8811   4.799   7.195   0.006
 2857WAT      O 8812   3.154   2.661   1.263
 2857WAT     H1 8813   3.232   2.648   1.202
 2857WAT     H2 8814   3.100   2.740   1.232
 2858WAT      O 8815   7.622   3.819   9.040
 2858WAT     H1 8816   7.705   3.811   8.985
 2858WAT     H2 8817   7.563   3.889   9.000
 2859WAT      O 8818   4.631   3.936   1.162
 2859WAT     H1 8819   4.730   3.940   1.171
 2859WAT     H2 8820   4.606   3.903   1.071
 2860WAT      O 8821   6.151   4.219   0.401
 2860WAT     H1 8822   6.118   4.159   0.474
 2860WAT     H2 8823   6.096   4.301   0.397
 2861WAT      O 8824   6.197   2.974   5.936
 2861WAT     H1 8825   6.194   3.051   6.000
 2861WAT     H2 8826   6.115   2.973   5.880
 2862WAT      O 8827   5.438   3.887   3.603
 2862WAT     H1 8828   5.435   3.816   3.533
 2862WAT     H2 8829   5.397   3.971   3.567
 2863WAT      O 8830   1.381   7.226   8.458
 2863WAT     H1 8831   1.471   7.202   8.495
 2863WAT     H2 8832   1.310   7.180   8.511
 2864WAT      O 8833   2.466   2.080   9.452
 2864WAT     H1 8834   2.488   2.030   9.535
 2864WAT     H2 8835   2.482   2.178   9.466
 2865WAT      O 8836   6.776   7.038   0.464
 2865WAT     H1 8837   6.801   7.061   0.370
 2865WAT     H2 8838   6.687   6.992   0.465
 2866WAT      O 8839   1.871   4.317   5.037
 2866WAT     H1 8840   1.939   4.338   5.106
 2866WAT     H2 8841   1.823   4.233   5.062
 2867WAT      O 8842   3.727   2.771   0.136
 2867WAT     H1 8843   3.751   2.726   0.050
 2867WAT     H2 8844   3.801   2.759   0.202
 2868WAT      O 8845   6.881   8.573   0.844
 2868WAT     H1 8846   6.892   8.474   0.839
 2868WAT     H2 8847   6.784   8.596   0.842
 2869WAT      O 8848   0.685   6.109   6.867
 2869WAT     H1 8849   0.716   6.093   6.774
 2869WAT     H2 8850   0.760   6.089   6.931
 2870WAT      O 8851   1.618   7.364   6.506
 2870WAT     H1 8852   1.644   7.415   6.424
 2870WAT     H2 8853   1.680   7.388   6.580
 2871WAT      O 8854   7.225   9.138   7.252
 2871WAT     H1 8855   7.304   9.197   7.267
 2871WAT     H2 8856   7.226   9.063   7.319
 2872WAT      O 8857   7.344   4.580   9.042
 2872WAT     H1 8858   7.290   4.662   9.026
 2872WAT     H2 8859   7.327   4.546   9.134
 2873WAT      O 8860   9.696   3.023   6.924
 2873WAT     H1 8861   9.720   3.058   6.833
 2873WAT     H2 8862   9.758   3.062   6.992
 2874WAT      O 8863   9.547   5.355   3.738
 2874WAT     H1 8864   9.610   5.429   3.716
 2874WAT     H2 8865   9.598   5.272   3.759
 2875WAT      O 8866   7.230   4.473   1.481
 2875WAT     H1 8867   7.156   4.444   1.421
 2875WAT     H2 8868   7.195   4.541   1.546
 2876WAT      O 8869   0.641   1.200   1.333
 2876WAT     H1 8870   0.639   1.217   1.431
 2876WAT     H2 8871   0.684   1.111   1.315
 2877WAT      O 8872   6.137   3.652   6.539
 2877WAT     H1 8873   6.074   3.580   6.511
 2877WAT     H2 8874   6.131   3.728   6.474
 2878WAT      O 8875   9.703   8.525   1.615
 2878WAT     H1 8876   9.693   8.566   1.524
 2878WAT     H2 8877   9.622   8.471   1.636
 2879WAT      O 8878   1.601   8.500   9.385
 2879WAT     H1 8879   1.501   8.495   9.379
 2879WAT     H2 8880   1.630   8.595   9.386
 2880WAT      O 8881   5.525   1.780   3.041
 2880WAT     H1 8882   5.530   1.843   3.119
 2880WAT     H2 8883   5.429   1.768   3.015
 2881WAT      O 8884   5.781   4.198   1.236
 2881WAT     H1 8885   5.829   4.179   1.322
 2881WAT     H2 8886   5.684   4.174   1.246
 2882WAT      O 8887   4.292   3.748   8.824
 2882WAT     H1 8888   4.368   3.812   8.836
 2882WAT     H2 8889   4.207   3.792   8.854
 2883WAT      O 8890   8.719   4.303   7.579
 2883WAT     H1 8891   8.774   4.342   7.505
 2883WAT     H2 8892   8.630   4.274   7.543
 2884WAT      O 8893   6.806   5.839   4.052
 2884WAT     H1 8894   6.804   5.743   4.081
 2884WAT     H2 8895   6.795   5.898   4.132
 2885WAT      O 8896   5.513   1.672   1.112
 2885WAT     H1 8897   5.586   1.606   1.096
 2885WAT     H2 8898   5.426   1.635   1.079
 2886WAT      O 8899   0.834   3.991   4.544
 2886WAT     H1 8900   0.856   3.954   4.634
 2886WAT     H2 8901   0.780   4.074   4.554
 2887WAT      O 8902   8.063   6.874   8.596
 2887WAT     H1 8903   8.122   6.913   8.667
 2887WAT     H2 8904   8.086   6.777   8.583
 2888WAT      O 8905   9.447   8.370   8.025
 2888WAT     H1 8906   9.478   8.367   8.120
 2888WAT     H2 8907   9.348   8.353   8.022
 2889WAT      O 8908   8.783   1.553   1.164
 2889WAT     H1 8909   8.756   1.581   1.256
 2889WAT     H2 8910   8.880   1.531   1.163
 2890WAT      O 8911   9.144   5.375   8.781
 2890WAT     H1 8912   9.102   5.443   8.842
 2890WAT     H2 8913   9.218   5.418   8.729
 2891WAT      O 8914   0.978   5.374   0.801
 2891WAT     H1 8915   0.959   5.283   0.763
 2891WAT     H2 8916   1.064   5.408   0.763
 2892WAT      O 8917   3.937   4.774   5.201
 2892WAT     H1 8918   3.844   4.787   5.235
 2892WAT     H2 8919   3.967   4.858   5.155
 2893WAT      O 8920   8.106   2.324   0.987
 2893WAT     H1 8921   8.066   2.405   0.944
 2893WAT     H2 8922   8.169   2.280   0.923
 2894WAT      O 8923   9.049   5.345   5.492
 2894WAT     H1 8924   9.074   5.437   5.521
 2894WAT     H2 8925   9.067   5.335   5.394
 2895WAT      O 8926   2.130   6.488   7.467
 2895WAT     H1 8927   2.064   6.420   7.500
 2895WAT     H2 8928   2.194   6.444   7.404
 2896WAT      O 8929   7.408   0.752   3.349
 2896WAT     H1 8930   7.369   0.660   3.354
 2896WAT     H2 8931   7.338   0.820   3.369
 2897WAT      O 8932   9.023   8.802   3.787
 2897WAT     H1 8933   8.997   8.711   3.818
 2897WAT     H2 8934   9.065   8.796   3.696
 2898WAT      O 8935   9.403   3.172   4.610
 2898WAT     H1 8936   9.407   3.072   4.607
 2898WAT     H2 8937   9.495   3.209   4.621
 2899WAT      O 8938   4.127   2.795   4.891
 2899WAT     H1 8939   4.145   2.729   4.818
 2899WAT     H2 8940   4.054   2.857   4.862
 2900WAT      O 8941   5.992   7.147   9.761
 2900WAT     H1 8942   6.000   7.139   9.661
 2900WAT     H2 8943   6.043   7.072   9.804
 2901WAT      O 8944   8.168   0.198   8.055
 2901WAT     H1 8945   8.206   0.161   7.970
 2901WAT     H2 8946   8.070   0.215   8.044
 2902WAT      O 8947   0.537   8.253   4.985
 2902WAT     H1 8948   0.518   8.198   4.904
 2902WAT     H2 8949   0.490   8.341   4.978
 2903WAT      O 8950   5.232   7.978   3.904
 2903WAT     H1 8951   5.173   7.914   3.855
 2903WAT     H2 8952   5.269   8.045   3.840
 2904WAT      O 8953   3.174   0.701   3.802
 2904WAT     H1 8954   3.194   0.688   3.899
 2904WAT     H2 8955   3.197   0.618   3.752
 2905WAT      O 8956   3.171   7.825   0.946
 2905WAT     H1 8957   3.213   7.753   1.000
 2905WAT     H2 8958   3.190   7.914   0.987
 2906WAT      O 8959   0.659   0.977   6.269
 2906WAT     H1 8960   0.740   1.013   6.315
 2906WAT     H2 8961   0.578   1.026   6.300
 2907WAT      O 8962   4.121   6.150   5.355
 2907WAT     H1 8963   4.217   6.148   5.385
 2907WAT     H2 8964   4.061   6.141   5.435
 2908WAT      O 8965   1.329   2.568   5.828
 2908WAT     H1 8966   1.332   2.592   5.731
 2908WAT     H2 8967   1.373   2.640   5.882
 2909WAT      O 8968   7.117   2.647   4.595
 2909WAT     H1 8969   7.046   2.689   4.652
 2909WAT     H2 8970   7.205   2.691   4.613
 2910WAT      O 8971   6.827   1.958   4.038
 2910WAT     H1 8972   6.771   1.908   4.104
 2910WAT     H2 8973   6.918   1.975   4.077
 2911WAT      O 8974   4.574   0.578   8.185
 2911WAT     H1 8975   4.489   0.526   8.196
 2911WAT     H2 8976   4.562   0.670   8.221
 2912WAT      O 8977   1.902   6.668   4.674
 2912WAT     H1 8978   1.964   6.706   4.743
 2912WAT     H2 8979   1.855   6.743   4.627
 2913WAT      O 8980   4.654   4.431   9.523
 2913WAT     H1 8981   4.653   4.436   9.423
 2913WAT     H2 8982   4.748   4.439   9.556
 2914WAT      O 8983   3.064   9.045   3.640
 2914WAT     H1 8984   3.079   9.130   3.690
 2914WAT     H2 8985   3.036   8.973   3.704
 2915WAT      O 8986   3.181   5.254   4.808
 2915WAT     H1 8987   3.247   5.320   4.845
 2915WAT     H2 8988   3.088   5.283   4.832
 2916WAT      O 8989   2.204   3.912   9.662
 2916WAT     H1 8990   2.123   3.946   9.709
 2916WAT     H2 8991   2.232   3.979   9.593
 2917WAT      O 8992   2.948   5.759   8.452
 2917WAT     H1 8993   3.037   5.798   8.429
 2917WAT     H2 8994   2.898   5.737   8.369
 2918WAT      O 8995   9.791   4.897   4.327
 2918WAT     H1 8996   9.861   4.840   4.369
 2918WAT     H2 8997   9.702   4.852   4.333
 2919WAT      O 8998   1.133   8.382   5.463
 2919WAT     H1 8999   1.209   8.390   5.527
 2919WAT     H2 9000   1.049   8.414   5.507
 2920WAT      O 9001   4.996   8.631   6.716
 2920WAT     H1 9002   4.899   8.654   6.710
 2920WAT     H2 9003   5.026   8.585   6.632
 2921WAT      O 9004   0.386   9.144   0.676
 2921WAT     H1 9005   0.467   9.125   0.621
 2921WAT     H2 9006   0.376   9.073   0.745
 2922WAT      O 9007   9.745   4.170   4.919
 2922WAT     H1 9008   9.738   4.195   5.016
 2922WAT     H2 9009   9.823   4.108   4.906
 2923WAT      O 9010   3.664   6.085   1.795
 2923WAT     H1 9011   3.696   6.150   1.726
 2923WAT     H2 9012   3.740   6.026   1.823
 2924WAT      O 9013   1.410   9.253   5.787
 2924WAT     H1 9014   1.455   9.168   5.816
 2924WAT     H2 9015   1.366   9.296   5.866
 2925WAT      O 9016   2.231   7.156   9.592
 2925WAT     H1 9017   2.211   7.089   9.663
 2925WAT     H2 9018   2.213   7.115   9.502
 2926WAT      O 9019   0.996   4.540   1.338
 2926WAT     H1 9020   1.090   4.533   1.304
 2926WAT     H2 9021   0.975   4.459   1.392
 2927WAT      O 9022   2.790   4.002   1.543
 2927WAT     H1 9023   2.727   4.000   1.621
 2927WAT     H2 9024   2.839   3.915   1.537
 2928WAT      O 9025   7.915   9.212   2.358
 2928WAT     H1 9026   7.922   9.227   2.259
 2928WAT     H2 9027   7.859   9.284   2.399
 2929WAT      O 9028   1.099   2.600   5.435
 2929WAT     H1 9029   1.005   2.593   5.401
 2929WAT     H2 9030   1.157   2.638   5.364
 2930WAT      O 9031   3.072   6.042   7.666
 2930WAT     H1 9032   3.095   6.115   7.602
 2930WAT     H2 9033   2.980   6.057   7.702
 2931WAT      O 9034   0.378   4.407   3.211
 2931WAT     H1 9035   0.456   4.435   3.266
 2931WAT     H2 9036   0.315   4.483   3.200
 2932WAT      O 9037   5.621   8.570   0.022
 2932WAT     H1 9038   5.557   8.646   0.009
 2932WAT     H2 9039   5.638   8.526  -0.066
 2933WAT      O 9040   6.042   0.966   8.800
 2933WAT     H1 9041   5.956   0.948   8.847
 2933WAT     H2 9042   6.046   1.063   8.776
 2934WAT      O 9043   8.848   1.951   5.552
 2934WAT     H1 9044   8.835   1.952   5.452
 2934WAT     H2 9045   8.909   2.026   5.578
 2935WAT      O 9046   3.152   6.382   6.422
 2935WAT     H1 9047   3.157   6.372   6.323
 2935WAT     H2 9048   3.243   6.369   6.462
 2936WAT      O 9049   8.836   7.113   7.482
 2936WAT     H1 9050   8.868   7.182   7.548
 2936WAT     H2 9051   8.884   7.026   7.499
 2937WAT      O 9052   9.132   9.422   2.699
 2937WAT     H1 9053   9.148   9.332   2.740
 2937WAT     H2 9054   9.211   9.448   2.643
 2938WAT      O 9055   1.717   3.833   5.586
 2938WAT     H1 9056   1.775   3.777   5.645
 2938WAT     H2 9057   1.664   3.896   5.642
 2939WAT      O 9058   9.421   5.176   7.163
 2939WAT     H1 9059   9.376   5.245   7.219
 2939WAT     H2 9060   9.467   5.220   7.086
 2940WAT      O 9061   8.963   7.716   8.329
 2940WAT     H1 9062   8.994   7.623   8.346
 2940WAT     H2 9063   9.041   7.779   8.330
 2941WAT      O 9064   8.689   3.777   3.876
 2941WAT     H1 9065   8.739   3.783   3.962
 2941WAT     H2 9066   8.665   3.681   3.858
 2942WAT      O 9067   9.466   0.874   0.915
 2942WAT     H1 9068   9.519   0.794   0.889
 2942WAT     H2 9069   9.416   0.855   0.999
 2943WAT      O 9070   7.461   7.338   5.996
 2943WAT     H1 9071   7.477   7.305   5.903
 2943WAT     H2 9072   7.390   7.408   5.996
 2944WAT      O 9073   3.966   2.083   2.696
 2944WAT     H1 9074   4.063   2.060   2.697
 2944WAT     H2 9075   3.925   2.051   2.611
 2945WAT      O 9076   2.628   3.806   9.575
 2945WAT     H1 9077   2.707   3.751   9.604
 2945WAT     H2 9078   2.590   3.853   9.654
 2946WAT      O 9079   4.113   4.008   3.973
 2946WAT     H1 9080   4.167   3.930   3.941
 2946WAT     H2 9081   4.076   4.057   3.895
 2947WAT      O 9082   9.729   6.965   1.469
 2947WAT     H1 9083   9.801   6.976   1.400
 2947WAT     H2 9084   9.641   6.954   1.423
 2948WAT      O 9085   0.040   8.135   4.039
 2948WAT     H1 9086   0.118   8.188   4.006
 2948WAT     H2 9087  -0.005   8.186   4.113
 2949WAT      O 9088   3.128   2.158   0.477
 2949WAT     H1 9089   3.128   2.245   0.427
 2949WAT     H2 9090   3.035   2.137   0.507
 2950WAT      O 9091   9.815   6.604   8.258
 2950WAT     H1 9092   9.740   6.561   8.208
 2950WAT     H2 9093   9.780   6.642   8.344
 2951WAT      O 9094   6.883   8.060   5.186
 2951WAT     H1 9095   6.808   8.096   5.131
 2951WAT     H2 9096   6.909   7.970   5.152
 2952WAT      O 9097   6.116   4.238   9.830
 2952WAT     H1 9098   6.051   4.302   9.790
 2952WAT     H2 9099   6.079   4.200   9.914
 2953WAT      O 9100   7.687   4.233   1.258
 2953WAT     H1 9101   7.639   4.187   1.332
 2953WAT     H2 9102   7.733   4.166   1.201
 2954WAT      O 9103   5.058   9.645   4.051
 2954WAT     H1 9104   4.973   9.639   4.102
 2954WAT     H2 9105   5.084   9.554   4.019
 2955WAT      O 9106   1.256   7.059   8.964
 2955WAT     H1 9107   1.214   7.145   8.937
 2955WAT     H2 9108   1.185   6.995   8.994
 2956WAT      O 9109   5.266   9.129   3.858
 2956WAT     H1 9110   5.192   9.062   3.846
 2956WAT     H2 9111   5.317   9.106   3.941
 2957WAT      O 9112   1.328   3.244   3.025
 2957WAT     H1 9113   1.333   3.320   3.089
 2957WAT     H2 9114   1.419   3.204   3.012
 2958WAT      O 9115   4.935   7.982   4.983
 2958WAT     H1 9116   4.884   7.917   5.039
 2958WAT     H2 9117   4.936   7.952   4.888
 2959WAT      O 9118   7.157   6.729   2.254
 2959WAT     H1 9119   7.208   6.654   2.295
 2959WAT     H2 9120   7.187   6.816   2.293
 2960WAT      O 9121   2.622   4.498   8.477
 2960WAT     H1 9122   2.622   4.432   8.402
 2960WAT     H2 9123   2.635   4.451   8.564
 2961WAT      O 9124   3.627   3.868   8.036
 2961WAT     H1 9125   3.701   3.855   7.971
 2961WAT     H2 9126   3.578   3.953   8.016
 2962WAT      O 9127   0.774   0.832   4.635
 2962WAT     H1 9128   0.772   0.757   4.569
 2962WAT     H2 9129   0.748   0.917   4.590
 2963WAT      O 9130   8.879   2.253   2.310
 2963WAT     H1 9131   8.949   2.216   2.371
 2963WAT     H2 9132   8.859   2.348   2.336
 2964WAT      O 9133   8.988   4.329   3.807
 2964WAT     H1 9134   9.055   4.255   3.804
 2964WAT     H2 9135   8.897   4.292   3.825
 2965WAT      O 9136   8.951   2.567   5.126
 2965WAT     H1 9137   8.935   2.608   5.036
 2965WAT     H2 9138   8.996   2.633   5.186
 2966WAT      O 9139   3.218   0.563   9.085
 2966WAT     H1 9140   3.125   0.582   9.052
 2966WAT     H2 9141   3.269   0.513   9.014
 2967WAT      O 9142   3.781   3.571   2.815
 2967WAT     H1 9143   3.770   3.668   2.833
 2967WAT     H2 9144   3.830   3.558   2.728
 2968WAT      O 9145   5.441   2.145   6.206
 2968WAT     H1 9146   5.365   2.105   6.155
 2968WAT     H2 9147   5.505   2.189   6.143
 2969WAT      O 9148   3.979   1.446   0.540
 2969WAT     H1 9149   3.936   1.377   0.483
 2969WAT     H2 9150   4.074   1.458   0.512
 2970WAT      O 9151   5.990   2.903   3.224
 2970WAT     H1 9152   6.039   2.835   3.278
 2970WAT     H2 9153   5.893   2.900   3.247
 2971WAT      O 9154   1.203   4.027   9.155
 2971WAT     H1 9155   1.192   3.988   9.063
 2971WAT     H2 9156   1.116   4.024   9.204
 2972WAT      O 9157   5.537   4.483   6.611
 2972WAT     H1 9158   5.617   4.428   6.632
 2972WAT     H2 9159   5.454   4.432   6.634
 2973WAT      O 9160   0.839   3.989   6.353
 2973WAT     H1 9161   0.824   4.056   6.281
 2973WAT     H2 9162   0.787   4.015   6.434
 2974WAT      O 9163   2.733   1.149   7.220
 2974WAT     H1 9164   2.683   1.153   7.306
 2974WAT     H2 9165   2.773   1.238   7.201
 2975WAT      O 9166   1.292   7.331   4.407
 2975WAT     H1 9167   1.339   7.339   4.319
 2975WAT     H2 9168   1.255   7.420   4.433
 2976WAT      O 9169   8.564   2.137   7.433
 2976WAT     H1 9170   8.543   2.069   7.503
 2976WAT     H2 9171   8.515   2.115   7.349
 2977WAT      O 9172   7.636   3.539   5.869
 2977WAT     H1 9173   7.718   3.554   5.924
 2977WAT     H2 9174   7.662   3.501   5.780
 2978WAT      O 9175   5.623   1.972   6.750
 2978WAT     H1 9176   5.601   1.923   6.834
 2978WAT     H2 9177   5.560   2.049   6.740
 2979WAT      O 9178   9.692   3.336   7.741
 2979WAT     H1 9179   9.774   3.389   7.721
 2979WAT     H2 9180   9.704   3.285   7.826
 2980WAT      O 9181   2.774   1.962   2.266
 2980WAT     H1 9182   2.684   2.002   2.286
 2980WAT     H2 9183   2.768   1.908   2.182
 2981WAT      O 9184   8.574   8.589   2.862
 2981WAT     H1 9185   8.593   8.687   2.876
 2981WAT     H2 9186   8.634   8.555   2.789
 2982WAT      O 9187   5.712   3.303   5.032
 2982WAT     H1 9188   5.658   3.271   4.955
 2982WAT     H2 9189   5.653   3.316   5.111
 2983WAT      O 9190   3.503   8.231   6.727
 2983WAT     H1 9191   3.476   8.187   6.813
 2983WAT     H2 9192   3.453   8.188   6.651
 2984WAT      O 9193   1.342   4.856   7.747
 2984WAT     H1 9194   1.337   4.794   7.669
 2984WAT     H2 9195   1.421   4.917   7.737
 2985WAT      O 9196   1.949   3.449   8.215
 2985WAT     H1 9197   1.962   3.487   8.306
 2985WAT     H2 9198   2.013   3.492   8.151
 2986WAT      O 9199   8.299   6.756   2.910
 2986WAT     H1 9200   8.287   6.659   2.930
 2986WAT     H2 9201   8.292   6.771   2.811
 2987WAT      O 9202   1.060   2.191   6.917
 2987WAT     H1 9203   1.125   2.228   6.850
 2987WAT     H2 9204   0.993   2.133   6.870
 2988WAT      O 9205   8.537   6.293   6.663
 2988WAT     H1 9206   8.519   6.321   6.758
 2988WAT     H2 9207   8.580   6.203   6.663
 2989WAT      O 9208   7.794   8.489   5.137
 2989WAT     H1 9209   7.880   8.538   5.122
 2989WAT     H2 9210   7.730   8.548   5.186
 2990WAT      O 9211   7.550   2.003   5.711
 2990WAT     H1 9212   7.455   1.982   5.688
 2990WAT     H2 9213   7.600   2.027   5.627
 2991WAT      O 9214   5.762   6.479   0.363
 2991WAT     H1 9215   5.854   6.519   0.363
 2991WAT     H2 9216   5.748   6.429   0.448
 2992WAT      O 9217   3.799   0.719   8.283
 2992WAT     H1 9218   3.837   0.672   8.203
 2992WAT     H2 9219   3.834   0.676   8.367
 2993WAT      O 9220   0.626   6.270   4.284
 2993WAT     H1 9221   0.673   6.323   4.353
 2993WAT     H2 9222   0.528   6.289   4.287
 2994WAT      O 9223   8.499   9.025   0.566
 2994WAT     H1 9224   8.439   9.088   0.615
 2994WAT     H2 9225   8.448   8.944   0.538
 2995WAT      O 9226   2.364   5.324   1.706
 2995WAT     H1 9227   2.310   5.254   1.660
 2995WAT     H2 9228   2.405   5.285   1.789
 2996WAT      O 9229   0.787   8.709   2.035
 2996WAT     H1 9230   0.749   8.636   1.979
 2996WAT     H2 9231   0.882   8.688   2.058
 2997WAT      O 9232   6.309   0.014   6.357
 2997WAT     H1 9233   6.315   0.017   6.257
 2997WAT     H2 9234   6.243   0.083   6.388
 2998WAT      O 9235   4.317   6.683   6.996
 2998WAT     H1 9236   4.370   6.706   6.914
 2998WAT     H2 9237   4.347   6.740   7.073
 2999WAT      O 9238   3.408   8.368   4.751
 2999WAT     H1 9239   3.435   8.464   4.747
 2999WAT     H2 9240   3.469   8.314   4.694
 3000WAT      O 9241   1.469   7.194   1.074
 3000WAT     H1 9242   1.537   7.129   1.040
 3000WAT     H2 9243   1.391   7.144   1.111
 3001WAT      O 9244   3.023   5.452   5.782
 3001WAT     H1 9245   3.047   5.542   5.818
 3001WAT     H2 9246   3.049   5.447   5.685
 3002WAT      O 9247   6.452   4.711   1.512
 3002WAT     H1 9248   6.461   4.623   1.465
 3002WAT     H2 9249   6.543   4.752   1.523
 3003WAT      O 9250   7.734   3.496   3.994
 3003WAT     H1 9251   7.820   3.451   3.973
 3003WAT     H2 9252   7.667   3.428   4.025
 3004WAT      O 9253   8.195   2.909   0.646
 3004WAT     H1 9254   8.280   2.890   0.697
 3004WAT     H2 9255   8.201   2.869   0.555
 3005WAT      O 9256   6.018   1.530   5.590
 3005WAT     H1 9257   5.961   1.578   5.524
 3005WAT     H2 9258   5.989   1.434   5.595
 3006WAT      O 9259   3.544   1.726   0.187
 3006WAT     H1 9260   3.623   1.786   0.193
 3006WAT     H2 9261   3.566   1.636   0.225
 3007WAT      O 9262   3.006   9.746   2.949
 3007WAT     H1 9263   2.960   9.751   3.038
 3007WAT     H2 9264   3.098   9.785   2.957
 3008WAT      O 9265   2.099   9.057   7.196
 3008WAT     H1 9266   2.102   9.073   7.294
 3008WAT     H2 9267   2.141   8.968   7.175
 3009WAT      O 9268   6.518   8.760   8.516
 3009WAT     H1 9269   6.520   8.816   8.433
 3009WAT     H2 9270   6.593   8.788   8.577
 3010WAT      O 9271   0.352   5.041   6.265
 3010WAT     H1 9272   0.288   5.072   6.335
 3010WAT     H2 9273   0.313   4.962   6.217
 3011WAT      O 9274   9.846   2.627   0.981
 3011WAT     H1 9275   9.928   2.664   0.937
 3011WAT     H2 9276   9.794   2.702   1.021
 3012WAT      O 9277   0.738   7.143   9.065
 3012WAT     H1 9278   0.821   7.197   9.052
 3012WAT     H2 9279   0.735   7.070   8.997
 3013WAT      O 9280   9.495   6.883   3.609
 3013WAT     H1 9281   9.409   6.877   3.558
 3013WAT     H2 9282   9.489   6.826   3.691
 3014WAT      O 9283   4.891   0.661   1.103
 3014WAT     H1 9284   4.867   0.749   1.063
 3014WAT     H2 9285   4.848   0.652   1.193
 3015WAT      O 9286   9.775   7.506   8.427
 3015WAT     H1 9287   9.726   7.463   8.352
 3015WAT     H2 9288   9.809   7.596   8.398
 3016WAT      O 9289   1.612   9.567   7.467
 3016WAT     H1 9290   1.512   9.562   7.470
 3016WAT     H2 9291   1.647   9.502   7.400
 3017WAT      O 9292   9.389   9.745   0.778
 3017WAT     H1 9293   9.406   9.842   0.794
 3017WAT     H2 9294   9.304   9.718   0.823
 3018WAT      O 9295   2.578   8.105   6.593
 3018WAT     H1 9296   2.561   8.149   6.505
 3018WAT     H2 9297   2.675   8.083   6.602
 3019WAT      O 9298   8.267   6.661   2.127
 3019WAT     H1 9299   8.217   6.646   2.041
 3019WAT     H2 9300   8.233   6.598   2.197
 3020WAT      O 9301   6.525   2.168   5.960
 3020WAT     H1 9302   6.455   2.239   5.965
 3020WAT     H2 9303   6.616   2.210   5.963
 3021WAT      O 9304   4.736   5.178   8.475
 3021WAT     H1 9305   4.766   5.214   8.563
 3021WAT     H2 9306   4.807   5.119   8.436
 3022WAT      O 9307   9.792   6.086   5.704
 3022WAT     H1 9308   9.828   6.171   5.664
 3022WAT     H2 9309   9.846   6.009   5.671
 3023WAT      O 9310   1.654   5.662   3.224
 3023WAT     H1 9311   1.702   5.701   3.145
 3023WAT     H2 9312   1.713   5.596   3.270
 3024WAT      O 9313   8.388   6.236   4.535
 3024WAT     H1 9314   8.483   6.235   4.504
 3024WAT     H2 9315   8.372   6.320   4.587
 3025WAT      O 9316   4.014   7.198   1.627
 3025WAT     H1 9317   4.057   7.121   1.675
 3025WAT     H2 9318   3.926   7.219   1.670
 3026WAT      O 9319   6.659   6.989   5.049
 3026WAT     H1 9320   6.605   6.938   5.115
 3026WAT     H2 9321   6.730   6.929   5.011
 3027WAT      O 9322   0.389   8.032   9.785
 3027WAT     H1 9323   0.296   8.057   9.810
 3027WAT     H2 9324   0.443   8.018   9.869
 3028WAT      O 9325   5.130   9.797   4.533
 3028WAT     H1 9326   5.185   9.877   4.507
 3028WAT     H2 9327   5.182   9.714   4.514
 3029WAT      O 9328   4.503   9.268   6.636
 3029WAT     H1 9329   4.598   9.237   6.628
 3029WAT     H2 9330   4.492   9.318   6.722
 3030WAT      O 9331   4.271   5.634   5.875
 3030WAT     H1 9332   4.294   5.543   5.910
 3030WAT     H2 9333   4.276   5.700   5.950
 3031WAT      O 9334   0.893   0.403   0.100
 3031WAT     H1 9335   0.957   0.327   0.115
 3031WAT     H2 9336   0.940   0.490   0.116
 3032WAT      O 9337   5.727   3.862   4.949
 3032WAT     H1 9338   5.715   3.782   5.008
 3032WAT     H2 9339   5.696   3.944   4.997
 3033WAT      O 9340   9.764   5.151   2.127
 3033WAT     H1 9341   9.714   5.073   2.164
 3033WAT     H2 9342   9.729   5.235   2.166
 3034WAT      O 9343   0.341   9.547   2.296
 3034WAT     H1 9344   0.407   9.502   2.357
 3034WAT     H2 9345   0.289   9.477   2.246
 3035WAT      O 9346   4.993   6.529   9.196
 3035WAT     H1 9347   5.006   6.523   9.295
 3035WAT     H2 9348   4.897   6.546   9.176
 3036WAT      O 9349   3.913   9.563   6.471
 3036WAT     H1 9350   3.832   9.578   6.526
 3036WAT     H2 9351   3.942   9.649   6.429
 3037WAT      O 9352   7.350   5.371   5.492
 3037WAT     H1 9353   7.318   5.284   5.529
 3037WAT     H2 9354   7.273   5.434   5.482
 3038WAT      O 9355   1.360   8.304   2.155
 3038WAT     H1 9356   1.396   8.334   2.243
 3038WAT     H2 9357   1.398   8.214   2.132
 3039WAT      O 9358   9.683   1.132   2.606
 3039WAT     H1 9359   9.644   1.131   2.698
 3039WAT     H2 9360   9.659   1.217   2.560
 3040WAT      O 9361   0.717   0.699   2.679
 3040WAT     H1 9362   0.623   0.698   2.646
 3040WAT     H2 9363   0.718   0.680   2.777
 3041WAT      O 9364   6.912   4.325   9.507
 3041WAT     H1 9365   6.887   4.231   9.528
 3041WAT     H2 9366   6.920   4.378   9.592
 3042WAT      O 9367   0.980   2.184   4.215
 3042WAT     H1 9368   0.903   2.127   4.244
 3042WAT     H2 9369   0.999   2.168   4.118
 3043WAT      O 9370   5.031   3.975   6.216
 3043WAT     H1 9371   5.086   4.051   6.251
 3043WAT     H2 9372   4.936   3.987   6.242
 3044WAT      O 9373   7.046   5.925   8.726
 3044WAT     H1 9374   7.145   5.938   8.723
 3044WAT     H2 9375   7.008   5.932   8.634
 3045WAT      O 9376   5.722   6.368   0.601
 3045WAT     H1 9377   5.777   6.368   0.684
 3045WAT     H2 9378   5.632   6.407   0.620
 3046WAT      O 9379   2.569   5.043   8.084
 3046WAT     H1 9380   2.627   5.056   8.004
 3046WAT     H2 9381   2.505   4.967   8.067
 3047WAT      O 9382   8.041   7.525   7.676
 3047WAT     H1 9383   7.987   7.581   7.738
 3047WAT     H2 9384   8.114   7.580   7.636
 3048WAT      O 9385   5.342   6.901   6.815
 3048WAT     H1 9386   5.250   6.863   6.821
 3048WAT     H2 9387   5.337   7.000   6.798
 3049WAT      O 9388   7.319   1.202   0.541
 3049WAT     H1 9389   7.320   1.124   0.603
 3049WAT     H2 9390   7.413   1.233   0.526
 3050WAT      O 9391   7.565   1.021   5.547
 3050WAT     H1 9392   7.494   0.959   5.516
 3050WAT     H2 9393   7.651   0.971   5.557
 3051WAT      O 9394   5.033   4.823   9.238
 3051WAT     H1 9395   5.081   4.799   9.154
 3051WAT     H2 9396   4.980   4.745   9.271
 3052WAT      O 9397   7.378   2.204   3.744
 3052WAT     H1 9398   7.385   2.169   3.838
 3052WAT     H2 9399   7.282   2.224   3.723
 3053WAT      O 9400   9.788   5.382   5.326
 3053WAT     H1 9401   9.760   5.447   5.396
 3053WAT     H2 9402   9.864   5.326   5.361
 3054WAT      O 9403   1.437   7.684   1.890
 3054WAT     H1 9404   1.355   7.631   1.913
 3054WAT     H2 9405   1.468   7.659   1.799
 3055WAT      O 9406   7.751   5.835   9.245
 3055WAT     H1 9407   7.839   5.866   9.210
 3055WAT     H2 9408   7.680   5.849   9.176
 3056WAT      O 9409   5.706   8.440   0.462
 3056WAT     H1 9410   5.797   8.437   0.503
 3056WAT     H2 9411   5.710   8.487   0.374
 3057WAT      O 9412   9.138   0.360   0.599
 3057WAT     H1 9413   9.211   0.305   0.558
 3057WAT     H2 9414   9.177   0.425   0.665
 3058WAT      O 9415   8.378   3.487   3.055
 3058WAT     H1 9416   8.286   3.476   3.019
 3058WAT     H2 9417   8.444   3.443   2.994
 3059WAT      O 9418   7.257   2.066   3.444
 3059WAT     H1 9419   7.307   2.083   3.359
 3059WAT     H2 9420   7.321   2.040   3.516
 3060WAT      O 9421   7.124   2.324   8.654
 3060WAT     H1 9422   7.031   2.303   8.686
 3060WAT     H2 9423   7.153   2.412   8.690
 3061WAT      O 9424   2.234   9.028   4.791
 3061WAT     H1 9425   2.200   9.121   4.780
 3061WAT     H2 9426   2.269   9.017   4.884
 3062WAT      O 9427   6.914   1.665   8.743
 3062WAT     H1 9428   6.897   1.655   8.645
 3062WAT     H2 9429   7.004   1.627   8.765
 3063WAT      O 9430   7.820   6.179   2.503
 3063WAT     H1 9431   7.871   6.265   2.511
 3063WAT     H2 9432   7.787   6.169   2.410
 3064WAT      O 9433   8.620   9.663   9.045
 3064WAT     H1 9434   8.620   9.726   8.967
 3064WAT     H2 9435   8.611   9.715   9.130
 3065WAT      O 9436   2.938   3.241   5.339
 3065WAT     H1 9437   2.872   3.169   5.358
 3065WAT     H2 9438   3.031   3.204   5.348
 3066WAT      O 9439   4.652   1.933   9.392
 3066WAT     H1 9440   4.557   1.952   9.366
 3066WAT     H2 9441   4.705   2.018   9.390
 3067WAT      O 9442   4.938   5.137   2.387
 3067WAT     H1 9443   4.911   5.042   2.369
 3067WAT     H2 9444   4.870   5.180   2.446
 3068WAT      O 9445   3.027   3.755   7.628
 3068WAT     H1 9446   3.076   3.780   7.544
 3068WAT     H2 9447   3.053   3.662   7.655
 3069WAT      O 9448   9.365   0.842   0.268
 3069WAT     H1 9449   9.275   0.869   0.233
 3069WAT     H2 9450   9.355   0.767   0.332
 3070WAT      O 9451   6.213   8.172   7.986
 3070WAT     H1 9452   6.169   8.194   8.074
 3070WAT     H2 9453   6.143   8.169   7.914
 3071WAT      O 9454   6.486   0.480   0.138
 3071WAT     H1 9455   6.443   0.557   0.090
 3071WAT     H2 9456   6.454   0.478   0.232
 3072WAT      O 9457   2.169   8.217   9.579
 3072WAT     H1 9458   2.127   8.197   9.668
 3072WAT     H2 9459   2.252   8.270   9.593
 3073WAT      O 9460   9.782   3.645   3.466
 3073WAT     H1 9461   9.749   3.563   3.421
 3073WAT     H2 9462   9.854   3.687   3.411
 3074WAT      O 9463   6.562   8.574   1.695
 3074WAT     H1 9464   6.565   8.512   1.617
 3074WAT     H2 9465   6.654   8.608   1.715
 3075WAT      O 9466   1.574   5.007   7.435
 3075WAT     H1 9467   1.484   5.039   7.407
 3075WAT     H2 9468   1.580   5.005   7.535
 3076WAT      O 9469   7.970   9.560   4.129
 3076WAT     H1 9470   8.033   9.483   4.121
 3076WAT     H2 9471   7.966   9.609   4.041
 3077WAT      O 9472   5.789   3.166   5.826
 3077WAT     H1 9473   5.694   3.144   5.807
 3077WAT     H2 9474   5.830   3.093   5.880
 3078WAT      O 9475   7.064   0.855   2.113
 3078WAT     H1 9476   7.146   0.912   2.104
 3078WAT     H2 9477   6.984   0.914   2.128
 3079WAT      O 9478   5.220   0.440   4.487
 3079WAT     H1 9479   5.282   0.494   4.544
 3079WAT     H2 9480   5.238   0.343   4.502
 3080WAT      O 9481   3.040   7.172   3.362
 3080WAT     H1 9482   2.955   7.157   3.311
 3080WAT     H2 9483   3.110   7.108   3.330
 3081WAT      O 9484   7.849   3.605   6.557
 3081WAT     H1 9485   7.890   3.694   6.539
 3081WAT     H2 9486   7.877   3.540   6.487
 3082WAT      O 9487   3.880   1.085   7.371
 3082WAT     H1 9488   3.852   1.174   7.335
 3082WAT     H2 9489   3.824   1.013   7.330
 3083WAT      O 9490   6.566   4.250   8.283
 3083WAT     H1 9491   6.562   4.314   8.206
 3083WAT     H2 9492   6.644   4.189   8.271
 3084WAT      O 9493   5.409   3.176   2.544
 3084WAT     H1 9494   5.339   3.209   2.481
 3084WAT     H2 9495   5.433   3.082   2.521
 3085WAT      O 9496   7.202   4.139   3.663
 3085WAT     H1 9497   7.277   4.173   3.720
 3085WAT     H2 9498   7.236   4.065   3.605
 3086WAT      O 9499   9.134   7.820   8.697
 3086WAT     H1 9500   9.076   7.739   8.690
 3086WAT     H2 9501   9.077   7.902   8.705
 3087WAT      O 9502   9.222   4.417   7.874
 3087WAT     H1 9503   9.300   4.478   7.890
 3087WAT     H2 9504   9.143   4.450   7.927
 3088WAT      O 9505   6.611   0.663   5.445
 3088WAT     H1 9506   6.648   0.630   5.532
 3088WAT     H2 9507   6.617   0.762   5.441
 3089WAT      O 9508   9.027   6.265   5.739
 3089WAT     H1 9509   9.031   6.298   5.833
 3089WAT     H2 9510   9.118   6.269   5.698
 3090WAT      O 9511   2.097   6.304   6.505
 3090WAT     H1 9512   1.997   6.295   6.514
 3090WAT     H2 9513   2.139   6.214   6.509
 3091WAT      O 9514   5.677   5.217   4.240
 3091WAT     H1 9515   5.693   5.251   4.333
 3091WAT     H2 9516   5.743   5.145   4.220
 3092WAT      O 9517   8.621   1.444   7.380
 3092WAT     H1 9518   8.612   1.487   7.290
 3092WAT     H2 9519   8.712   1.404   7.389
 3093WAT      O 9520   2.254   0.875   8.844
 3093WAT     H1 9521   2.345   0.859   8.806
 3093WAT     H2 9522   2.185   0.838   8.783
 3094WAT      O 9523   5.650   3.037   5.333
 3094WAT     H1 9524   5.709   3.045   5.253
 3094WAT     H2 9525   5.574   2.976   5.312
 3095WAT      O 9526   5.195   9.541   4.472
 3095WAT     H1 9527   5.120   9.496   4.521
 3095WAT     H2 9528   5.282   9.505   4.504
 3096WAT      O 9529   8.616   8.665   3.635
 3096WAT     H1 9530   8.644   8.575   3.667
 3096WAT     H2 9531   8.586   8.659   3.540
 3097WAT      O 9532   0.702   7.618   8.249
 3097WAT     H1 9533   0.734   7.534   8.205
 3097WAT     H2 9534   0.748   7.629   8.337
 3098WAT      O 9535   3.153   9.710   7.172
 3098WAT     H1 9536   3.078   9.735   7.233
 3098WAT     H2 9537   3.125   9.633   7.115
 3099WAT      O 9538   3.196   9.731   2.351
 3099WAT     H1 9539   3.277   9.779   2.318
 3099WAT     H2 9540   3.219   9.676   2.431
 3100WAT      O 9541   8.911   3.386   6.346
 3100WAT     H1 9542   8.932   3.477   6.311
 3100WAT     H2 9543   8.996   3.341   6.376
 3101WAT      O 9544   3.123   9.113   1.614
 3101WAT     H1 9545   3.124   9.057   1.697
 3101WAT     H2 9546   3.213   9.110   1.570
 3102WAT      O 9547   6.430   7.115   2.046
 3102WAT     H1 9548   6.397   7.102   1.953
 3102WAT     H2 9549   6.381   7.191   2.089
 3103WAT      O 9550   3.503   6.502   9.780
 3103WAT     H1 9551   3.426   6.556   9.747
 3103WAT     H2 9552   3.589   6.547   9.755
 3104WAT      O 9553   5.956   8.907   8.685
 3104WAT     H1 9554   6.017   8.984   8.705
 3104WAT     H2 9555   5.875   8.912   8.743
 3105WAT      O 9556   4.688   6.300   5.020
 3105WAT     H1 9557   4.740   6.375   5.060
 3105WAT     H2 9558   4.690   6.221   5.081
 3106WAT      O 9559   0.038   0.048   2.802
 3106WAT     H1 9560   0.035   0.037   2.901
 3106WAT     H2 9561   0.087  -0.029   2.761
 3107WAT      O 9562   3.539   9.088   2.760
 3107WAT     H1 9563   3.606   9.031   2.808
 3107WAT     H2 9564   3.456   9.034   2.742
 3108WAT      O 9565   6.676   9.731   7.949
 3108WAT     H1 9566   6.764   9.683   7.952
 3108WAT     H2 9567   6.624   9.702   7.869
 3109WAT      O 9568   9.642   2.124   2.798
 3109WAT     H1 9569   9.714   2.054   2.805
 3109WAT     H2 9570   9.627   2.147   2.702
 3110WAT      O 9571   7.396   0.185   5.372
 3110WAT     H1 9572   7.320   0.156   5.431
 3110WAT     H2 9573   7.428   0.275   5.401
 3111WAT      O 9574   7.892   9.399   6.140
 3111WAT     H1 9575   7.893   9.406   6.240
 3111WAT     H2 9576   7.798   9.391   6.108
 3112WAT      O 9577   7.541   5.005   6.240
 3112WAT     H1 9578   7.461   5.038   6.191
 3112WAT     H2 9579   7.544   4.905   6.237
 3113WAT      O 9580   4.194   8.702   0.193
 3113WAT     H1 9581   4.127   8.635   0.223
 3113WAT     H2 9582   4.285   8.659   0.189
 3114WAT      O 9583   9.148   7.754   7.149
 3114WAT     H1 9584   9.065   7.809   7.155
 3114WAT     H2 9585   9.200   7.782   7.068
 3115WAT      O 9586   0.752   4.688   0.843
 3115WAT     H1 9587   0.788   4.701   0.935
 3115WAT     H2 9588   0.755   4.590   0.819
 3116WAT      O 9589   6.576   4.145   8.906
 3116WAT     H1 9590   6.482   4.164   8.933
 3116WAT     H2 9591   6.626   4.106   8.983
 3117WAT      O 9592   7.830   8.326   0.006
 3117WAT     H1 9593   7.802   8.411   0.051
 3117WAT     H2 9594   7.930   8.324  -0.002
 3118WAT      O 9595   1.892   0.403   6.862
 3118WAT     H1 9596   1.912   0.352   6.946
 3118WAT     H2 9597   1.793   0.419   6.856
 3119WAT      O 9598   2.555   9.833   3.787
 3119WAT     H1 9599   2.576   9.791   3.875
 3119WAT     H2 9600   2.456   9.843   3.777
 3120WAT      O 9601   6.634   2.499   9.202
 3120WAT     H1 9602   6.625   2.597   9.187
 3120WAT     H2 9603   6.714   2.481   9.260
 3121WAT      O 9604   5.304   3.540   5.999
 3121WAT     H1 9605   5.381   3.581   6.047
 3121WAT     H2 9606   5.278   3.454   6.045
 3122WAT      O 9607   4.365   3.398   8.553
 3122WAT     H1 9608   4.305   3.326   8.586
 3122WAT     H2 9609   4.416   3.437   8.630
 3123WAT      O 9610   8.921   2.366   7.325
 3123WAT     H1 9611   8.825   2.367   7.298
 3123WAT     H2 9612   8.935   2.295   7.394
 3124WAT      O 9613   2.013   1.136   2.862
 3124WAT     H1 9614   2.027   1.124   2.763
 3124WAT     H2 9615   1.952   1.064   2.896
 3125WAT      O 9616   0.898   9.808   0.851
 3125WAT     H1 9617   0.842   9.725   0.854
 3125WAT     H2 9618   0.842   9.886   0.823
 3126WAT      O 9619   2.346   4.057   5.338
 3126WAT     H1 9620   2.342   4.020   5.245
 3126WAT     H2 9621   2.307   3.990   5.401
 3127WAT      O 9622   7.692   1.979   0.513
 3127WAT     H1 9623   7.646   2.067   0.499
 3127WAT     H2 9624   7.730   1.947   0.427
 3128WAT      O 9625   4.512   6.848   3.737
 3128WAT     H1 9626   4.542   6.918   3.801
 3128WAT     H2 9627   4.423   6.874   3.698
 3129WAT      O 9628   5.443   5.350   2.216
 3129WAT     H1 9629   5.409   5.410   2.144
 3129WAT     H2 9630   5.449   5.401   2.302
 3130WAT      O 9631   6.495   7.526   3.906
 3130WAT     H1 9632   6.564   7.518   3.835
 3130WAT     H2 9633   6.407   7.551   3.865
 3131WAT      O 9634   6.858   9.638   5.471
 3131WAT     H1 9635   6.840   9.698   5.393
 3131WAT     H2 9636   6.924   9.568   5.445
 3132WAT      O 9637   2.469   4.926   9.591
 3132WAT     H1 9638   2.452   4.895   9.685
 3132WAT     H2 9639   2.566   4.915   9.569
 3133WAT      O 9640   8.650   5.876   5.095
 3133WAT     H1 9641   8.747   5.871   5.071
 3133WAT     H2 9642   8.604   5.942   5.035
 3134WAT      O 9643   1.194   4.046   9.609
 3134WAT     H1 9644   1.285   4.021   9.643
 3134WAT     H2 9645   1.124   3.997   9.661
 3135WAT      O 9646   7.191   4.874   1.962
 3135WAT     H1 9647   7.204   4.967   1.997
 3135WAT     H2 9648   7.094   4.859   1.943
 3136WAT      O 9649   2.470   8.794   0.822
 3136WAT     H1 9650   2.491   8.696   0.820
 3136WAT     H2 9651   2.510   8.835   0.904
 3137WAT      O 9652   6.765   1.209   6.318
 3137WAT     H1 9653   6.734   1.304   6.326
 3137WAT     H2 9654   6.686   1.149   6.303
 3138WAT      O 9655   9.505   4.509   9.064
 3138WAT     H1 9656   9.489   4.560   9.148
 3138WAT     H2 9657   9.419   4.473   9.029
 3139WAT      O 9658   7.955   1.824   8.155
 3139WAT     H1 9659   7.881   1.808   8.088
 3139WAT     H2 9660   8.025   1.754   8.144
 3140WAT      O 9661   5.951   4.437   7.776
 3140WAT     H1 9662   5.986   4.449   7.869
 3140WAT     H2 9663   6.025   4.447   7.711
 3141WAT      O 9664   1.975   3.354   0.093
 3141WAT     H1 9665   2.051   3.290   0.086
 3141WAT     H2 9666   2.011   3.447   0.104
 3142WAT      O 9667   3.461   4.580   6.066
 3142WAT     H1 9668   3.479   4.634   5.984
 3142WAT     H2 9669   3.362   4.565   6.075
 3143WAT      O 9670   5.836   5.480   7.697
 3143WAT     H1 9671   5.887   5.424   7.633
 3143WAT     H2 9672   5.888   5.564   7.716
 3144WAT      O 9673   6.167   8.819   8.243
 3144WAT     H1 9674   6.096   8.757   8.211
 3144WAT     H2 9675   6.125   8.895   8.293
 3145WAT      O 9676   8.025   9.821   0.198
 3145WAT     H1 9677   7.939   9.794   0.156
 3145WAT     H2 9678   8.013   9.832   0.296
 3146WAT      O 9679   2.708   4.578   8.154
 3146WAT     H1 9680   2.645   4.605   8.227
 3146WAT     H2 9681   2.777   4.516   8.191
 3147WAT      O 9682   3.166   1.487   8.458
 3147WAT     H1 9683   3.085   1.540   8.432
 3147WAT     H2 9684   3.203   1.524   8.543
 3148WAT      O 9685   2.453   2.372   5.108
 3148WAT     H1 9686   2.496   2.318   5.180
 3148WAT     H2 9687   2.360   2.338   5.092
 3149WAT      O 9688   0.988   0.784   6.255
 3149WAT     H1 9689   0.985   0.880   6.285
 3149WAT     H2 9690   1.033   0.778   6.166
 3150WAT      O 9691   7.003   8.817   1.867
 3150WAT     H1 9692   7.000   8.910   1.905
 3150WAT     H2 9693   6.911   8.779   1.866
 3151WAT      O 9694   5.231   8.777   5.912
 3151WAT     H1 9695   5.174   8.785   5.994
 3151WAT     H2 9696   5.327   8.770   5.939
 3152WAT      O 9697   3.642   4.460   0.426
 3152WAT     H1 9698   3.699   4.378   0.419
 3152WAT     H2 9699   3.549   4.434   0.452
 3153WAT      O 9700   6.180   2.493   9.756
 3153WAT     H1 9701   6.185   2.463   9.661
 3153WAT     H2 9702   6.101   2.553   9.768
 3154WAT      O 9703   9.014   8.273   1.637
 3154WAT     H1 9704   8.927   8.304   1.600
 3154WAT     H2 9705   8.999   8.218   1.719
 3155WAT      O 9706   4.476   2.561   1.469
 3155WAT     H1 9707   4.425   2.508   1.537
 3155WAT     H2 9708   4.471   2.658   1.491
 3156WAT      O 9709   2.885   8.720   8.637
 3156WAT     H1 9710   2.959   8.766   8.589
 3156WAT     H2 9711   2.909   8.625   8.654
 3157WAT      O 9712   3.850   1.530   7.769
 3157WAT     H1 9713   3.882   1.610   7.820
 3157WAT     H2 9714   3.858   1.448   7.826
 3158WAT      O 9715   5.298   5.603   1.202
 3158WAT     H1 9716   5.359   5.537   1.159
 3158WAT     H2 9717   5.279   5.574   1.296
 3159WAT      O 9718   9.773   0.192   4.391
 3159WAT     H1 9719   9.707   0.192   4.315
 3159WAT     H2 9720   9.740   0.254   4.463
 3160WAT      O 9721   4.980   6.875   0.796
 3160WAT     H1 9722   5.021   6.827   0.718
 3160WAT     H2 9723   5.028   6.849   0.880
 3161WAT      O 9724   4.749   7.803   8.226
 3161WAT     H1 9725   4.821   7.739   8.199
 3161WAT     H2 9726   4.736   7.870   8.152
 3162WAT      O 9727   5.498   1.820   3.581
 3162WAT     H1 9728   5.522   1.837   3.677
 3162WAT     H2 9729   5.577   1.842   3.523
 3163WAT      O 9730   3.703   0.005   8.182
 3163WAT     H1 9731   3.700  -0.085   8.224
 3163WAT     H2 9732   3.643   0.067   8.232
 3164WAT      O 9733   8.048   2.998   7.878
 3164WAT     H1 9734   8.016   2.907   7.851
 3164WAT     H2 9735   8.143   2.993   7.909
 3165WAT      O 9736   9.574   3.050   6.464
 3165WAT     H1 9737   9.659   3.015   6.427
 3165WAT     H2 9738   9.543   3.128   6.410
 3166WAT      O 9739   4.623   2.062   9.052
 3166WAT     H1 9740   4.583   1.977   9.087
 3166WAT     H2 9741   4.554   2.134   9.053
 3167WAT      O 9742   9.066   7.366   0.762
 3167WAT     H1 9743   9.039   7.462   0.748
 3167WAT     H2 9744   9.165   7.361   0.768
 3168WAT      O 9745   7.100   7.632   2.034
 3168WAT     H1 9746   7.198   7.648   2.045
 3168WAT     H2 9747   7.062   7.698   1.969
 3169WAT      O 9748   7.218   9.183   3.264
 3169WAT     H1 9749   7.262   9.120   3.328
 3169WAT     H2 9750   7.287   9.221   3.202
 3170WAT      O 9751   9.663   1.487   5.550
 3170WAT     H1 9752   9.609   1.468   5.632
 3170WAT     H2 9753   9.671   1.403   5.496
 3171WAT      O 9754   6.403   1.289   2.950
 3171WAT     H1 9755   6.489   1.250   2.981
 3171WAT     H2 9756   6.353   1.327   3.028
 3172WAT      O 9757   9.010   5.529   8.258
 3172WAT     H1 9758   8.929   5.471   8.257
 3172WAT     H2 9759   9.019   5.575   8.169
 3173WAT      O 9760   8.936   3.310   8.555
 3173WAT     H1 9761   8.839   3.329   8.540
 3173WAT     H2 9762   8.989   3.394   8.543
 3174WAT      O 9763   4.868   1.404   9.056
 3174WAT     H1 9764   4.848   1.498   9.083
 3174WAT     H2 9765   4.804   1.342   9.101
 3175WAT      O 9766   7.780   0.638   1.125
 3175WAT     H1 9767   7.792   0.558   1.184
 3175WAT     H2 9768   7.801   0.613   1.030
 3176WAT      O 9769   5.548   3.358   9.446
 3176WAT     H1 9770   5.561   3.396   9.354
 3176WAT     H2 9771   5.490   3.418   9.499
 3177WAT      O 9772   1.884   2.064   9.372
 3177WAT     H1 9773   1.944   2.107   9.439
 3177WAT     H2 9774   1.921   2.079   9.280
 3178WAT      O 9775   5.426   6.448   7.480
 3178WAT     H1 9776   5.510   6.503   7.482
 3178WAT     H2 9777   5.352   6.498   7.523
 3179WAT      O 9778   5.327   7.054   2.498
 3179WAT     H1 9779   5.380   7.081   2.578
 3179WAT     H2 9780   5.281   6.967   2.516
 3180WAT      O 9781   3.553   1.577   5.005
 3180WAT     H1 9782   3.606   1.528   4.935
 3180WAT     H2 9783   3.614   1.603   5.080
 3181WAT      O 9784   4.770   0.385   1.362
 3181WAT     H1 9785   4.856   0.338   1.344
 3181WAT     H2 9786   4.789   0.475   1.399
 3182WAT      O 9787   8.683   1.104   8.793
 3182WAT     H1 9788   8.734   1.188   8.771
 3182WAT     H2 9789   8.591   1.110   8.755
 3183WAT      O 9790   6.388   8.566   4.522
 3183WAT     H1 9791   6.464   8.545   4.583
 3183WAT     H2 9792   6.376   8.492   4.456
 3184WAT      O 9793   1.315   6.751   1.719
 3184WAT     H1 9794   1.353   6.737   1.627
 3184WAT     H2 9795   1.254   6.675   1.742
 3185WAT      O 9796   2.029   8.009   0.951
 3185WAT     H1 9797   1.970   8.069   0.896
 3185WAT     H2 9798   2.097   7.967   0.892
 3186WAT      O 9799   0.567   6.675   2.683
 3186WAT     H1 9800   0.500   6.652   2.754
 3186WAT     H2 9801   0.624   6.752   2.715
 3187WAT      O 9802   9.834   4.959   8.562
 3187WAT     H1 9803   9.824   4.869   8.604
 3187WAT     H2 9804   9.754   4.978   8.505
 3188WAT      O 9805   6.841   5.342   7.542
 3188WAT     H1 9806   6.935   5.308   7.533
 3188WAT     H2 9807   6.838   5.415   7.611
 3189WAT      O 9808   0.551   4.600   3.650
 3189WAT     H1 9809   0.563   4.502   3.633
 3189WAT     H2 9810   0.582   4.652   3.571
 3190WAT      O 9811   3.639   9.102   7.002
 3190WAT     H1 9812   3.555   9.155   6.990
 3190WAT     H2 9813   3.713   9.147   6.952
 3191WAT      O 9814   1.918   8.896   1.411
 3191WAT     H1 9815   1.955   8.988   1.425
 3191WAT     H2 9816   1.848   8.899   1.339
 3192WAT      O 9817   1.831   2.403   8.158
 3192WAT     H1 9818   1.862   2.419   8.064
 3192WAT     H2 9819   1.746   2.453   8.174
 3193WAT      O 9820   6.957   6.302   3.755
 3193WAT     H1 9821   6.857   6.304   3.753
 3193WAT     H2 9822   6.990   6.364   3.827
 3194WAT      O 9823   0.173   8.492   4.293
 3194WAT     H1 9824   0.188   8.512   4.196
 3194WAT     H2 9825   0.245   8.431   4.326
 3195WAT      O 9826   8.916   6.305   4.564
 3195WAT     H1 9827   8.874   6.297   4.655
 3195WAT     H2 9828   8.937   6.400   4.545
 3196WAT      O 9829   0.425   3.713   4.665
 3196WAT     H1 9830   0.505   3.715   4.605
 3196WAT     H2 9831   0.426   3.628   4.718
 3197WAT      O 9832   3.618   4.035   9.839
 3197WAT     H1 9833   3.584   4.072   9.925
 3197WAT     H2 9834   3.692   4.093   9.805
 3198WAT      O 9835   5.796   7.324   3.314
 3198WAT     H1 9836   5.716   7.376   3.287
 3198WAT     H2 9837   5.813   7.337   3.412
 3199WAT      O 9838   5.494   9.318   8.340
 3199WAT     H1 9839   5.488   9.267   8.425
 3199WAT     H2 9840   5.427   9.392   8.340
 3200WAT      O 9841   4.675   0.920   1.274
 3200WAT     H1 9842   4.664   0.965   1.363
 3200WAT     H2 9843   4.742   0.846   1.283
 3201WAT      O 9844   4.428   0.199   3.628
 3201WAT     H1 9845   4.473   0.287   3.614
 3201WAT     H2 9846   4.481   0.127   3.583
 3202WAT      O 9847   8.401   1.399   3.614
 3202WAT     H1 9848   8.345   1.348   3.678
 3202WAT     H2 9849   8.491   1.417   3.655
 3203WAT      O 9850   2.404   0.749   2.105
 3203WAT     H1 9851   2.370   0.843   2.101
 3203WAT     H2 9852   2.354   0.699   2.176
 3204WAT      O 9853   8.060   8.695   9.320
 3204WAT     H1 9854   8.015   8.605   9.323
 3204WAT     H2 9855   8.156   8.685   9.347
 3205WAT      O 9856   4.295   4.356   3.937
 3205WAT     H1 9857   4.265   4.431   3.996
 3205WAT     H2 9858   4.217   4.299   3.912
 3206WAT      O 9859   8.109   2.821   4.860
 3206WAT     H1 9860   8.088   2.757   4.934
 3206WAT     H2 9861   8.209   2.827   4.849
 3207WAT      O 9862   4.581   4.699   3.356
 3207WAT     H1 9863   4.631   4.765   3.300
 3207WAT     H2 9864   4.566   4.615   3.303
 3208WAT      O 9865   6.201   6.760   8.447
 3208WAT     H1 9866   6.278   6.714   8.402
 3208WAT     H2 9867   6.129   6.694   8.466
 3209WAT      O 9868   8.049   3.324   2.756
 3209WAT     H1 9869   8.121   3.393   2.755
 3209WAT     H2 9870   8.005   3.323   2.846
 3210WAT      O 9871   3.921   3.395   8.660
 3210WAT     H1 9872   3.987   3.470   8.661
 3210WAT     H2 9873   3.886   3.382   8.568
 3211WAT      O 9874   8.616   3.829   2.255
 3211WAT     H1 9875   8.632   3.901   2.187
 3211WAT     H2 9876   8.669   3.850   2.338
 3212WAT      O 9877   1.843   1.700   8.291
 3212WAT     H1 9878   1.870   1.704   8.195
 3212WAT     H2 9879   1.835   1.605   8.320
 3213WAT      O 9880   0.462   7.340   0.365
 3213WAT     H1 9881   0.375   7.307   0.328
 3213WAT     H2 9882   0.514   7.263   0.402
 3214WAT      O 9883   4.708   4.021   1.967
 3214WAT     H1 9884   4.638   4.069   1.916
 3214WAT     H2 9885   4.746   4.081   2.038
 3215WAT      O 9886   6.968   9.338   7.485
 3215WAT     H1 9887   6.969   9.258   7.545
 3215WAT     H2 9888   7.061   9.372   7.473
 3216WAT      O 9889   9.172   2.873   5.489
 3216WAT     H1 9890   9.206   2.957   5.447
 3216WAT     H2 9891   9.077   2.887   5.519
 3217WAT      O 9892   2.005   1.168   8.560
 3217WAT     H1 9893   1.997   1.199   8.655
 3217WAT     H2 9894   2.097   1.132   8.545
 3218WAT      O 9895   9.595   5.213   7.521
 3218WAT     H1 9896   9.683   5.208   7.569
 3218WAT     H2 9897   9.609   5.257   7.432
 3219WAT      O 9898   4.132   6.746   2.555
 3219WAT     H1 9899   4.129   6.689   2.637
 3219WAT     H2 9900   4.116   6.841   2.580
 3220WAT      O 9901   7.209   8.836   2.190
 3220WAT     H1 9902   7.253   8.781   2.262
 3220WAT     H2 9903   7.183   8.776   2.114
 3221WAT      O 9904   4.518   0.229   9.455
 3221WAT     H1 9905   4.527   0.229   9.355
 3221WAT     H2 9906   4.424   0.255   9.479
 3222WAT      O 9907   7.781   6.501   3.184
 3222WAT     H1 9908   7.880   6.501   3.198
 3222WAT     H2 9909   7.759   6.548   3.099
 3223WAT      O 9910   0.632   4.873   4.696
 3223WAT     H1 9911   0.654   4.938   4.769
 3223WAT     H2 9912   0.619   4.922   4.610
 3224WAT      O 9913   5.732   2.090   0.314
 3224WAT     H1 9914   5.804   2.032   0.277
 3224WAT     H2 9915   5.711   2.164   0.250
 3225WAT      O 9916   5.970   3.989   1.719
 3225WAT     H1 9917   6.013   3.937   1.793
 3225WAT     H2 9918   5.872   3.998   1.736
 3226WAT      O 9919   7.000   4.091   8.414
 3226WAT     H1 9920   6.951   4.046   8.489
 3226WAT     H2 9921   6.940   4.096   8.334
 3227WAT      O 9922   1.852   6.298   6.315
 3227WAT     H1 9923   1.940   6.332   6.279
 3227WAT     H2 9924   1.817   6.362   6.383
 3228WAT      O 9925   3.283   0.009   4.937
 3228WAT     H1 9926   3.335   0.088   4.969
 3228WAT     H2 9927   3.238   0.033   4.851
 3229WAT      O 9928   3.750   5.383   0.137
 3229WAT     H1 9929   3.819   5.381   0.209
 3229WAT     H2 9930   3.771   5.455   0.072
 3230WAT      O 9931   7.796   2.640   2.533
 3230WAT     H1 9932   7.775   2.737   2.531
 3230WAT     H2 9933   7.720   2.589   2.492
 3231WAT      O 9934   5.997   3.968   3.902
 3231WAT     H1 9935   6.078   4.016   3.937
 3231WAT     H2 9936   5.915   4.021   3.925
 3232WAT      O 9937   7.532   7.000   9.252
 3232WAT     H1 9938   7.479   6.964   9.329
 3232WAT     H2 9939   7.497   6.962   9.166
 3233WAT      O 9940   8.153   8.845   5.799
 3233WAT     H1 9941   8.139   8.759   5.750
 3233WAT     H2 9942   8.087   8.852   5.874
 3234WAT      O 9943   2.572   4.315   7.550
 3234WAT     H1 9944   2.646   4.249   7.551
 3234WAT     H2 9945   2.590   4.388   7.616
 3235WAT      O 9946   3.365   9.364   0.946
 3235WAT     H1 9947   3.391   9.456   0.917
 3235WAT     H2 9948   3.266   9.361   0.961
 3236WAT      O 9949   3.076   6.687   4.574
 3236WAT     H1 9950   2.985   6.703   4.536
 3236WAT     H2 9951   3.098   6.590   4.569
 3237WAT      O 9952   9.815   8.757   9.171
 3237WAT     H1 9953   9.908   8.794   9.172
 3237WAT     H2 9954   9.818   8.659   9.152
 3238WAT      O 9955   6.301   1.094   9.552
 3238WAT     H1 9956   6.241   1.060   9.479
 3238WAT     H2 9957   6.245   1.131   9.626
 3239WAT      O 9958   7.655   8.523   0.357
 3239WAT     H1 9959   7.702   8.546   0.272
 3239WAT     H2 9960   7.619   8.605   0.400
 3240WAT      O 9961   2.797   7.366   7.121
 3240WAT     H1 9962   2.778   7.464   7.125
 3240WAT     H2 9963   2.746   7.319   7.194
 3241WAT      O 9964   6.353   6.044   5.280
 3241WAT     H1 9965   6.355   6.096   5.194
 3241WAT     H2 9966   6.265   6.057   5.325
 3242WAT      O 9967   3.740   4.999   6.966
 3242WAT     H1 9968   3.739   5.079   7.026
 3242WAT     H2 9969   3.830   4.989   6.924
 3243WAT      O 9970   9.443   7.275   9.328
 3243WAT     H1 9971   9.469   7.284   9.425
 3243WAT     H2 9972   9.394   7.358   9.300
 3244WAT      O 9973   0.812   7.834   1.283
 3244WAT     H1 9974   0.735   7.772   1.264
 3244WAT     H2 9975   0.791   7.892   1.361
 3245WAT      O 9976   5.987   3.970   4.908
 3245WAT     H1 9977   6.053   3.928   4.970
 3245WAT     H2 9978   5.894   3.946   4.935
 3246WAT      O 9979   7.643   2.691   3.695
 3246WAT     H1 9980   7.575   2.618   3.693
 3246WAT     H2 9981   7.725   2.660   3.742
 3247WAT      O 9982   7.926   5.834   6.590
 3247WAT     H1 9983   7.857   5.813   6.659
 3247WAT     H2 9984   7.982   5.753   6.573
 3248WAT      O 9985   1.978   9.084   5.912
 3248WAT     H1 9986   1.930   9.161   5.954
 3248WAT     H2 9987   1.912   9.017   5.878
 3249WAT      O 9988   2.727   6.856   0.708
 3249WAT     H1 9989   2.656   6.804   0.660
 3249WAT     H2 9990   2.748   6.811   0.795
 3250WAT      O 9991   2.156   5.112   9.337
 3250WAT     H1 9992   2.195   5.020   9.325
 3250WAT     H2 9993   2.117   5.120   9.429
 3251WAT      O 9994   2.404   7.625   9.790
 3251WAT     H1 9995   2.383   7.589   9.882
 3251WAT     H2 9996   2.322   7.622   9.734
 3252WAT      O 9997   0.628   2.795   0.141
 3252WAT     H1 9998   0.531   2.784   0.119
 3252WAT     H2 9999   0.637   2.840   0.230
 3253WAT      O10000   0.791   5.262   1.488
 3253WAT     H110001   0.776   5.350   1.444
 3253WAT     H210002   0.883   5.259   1.525
 3254WAT      O10003   7.970   3.365   0.867
 3254WAT     H110004   7.873   3.350   0.881
 3254WAT     H210005   8.007   3.294   0.807
 3255WAT      O10006   6.074   5.172   7.146
 3255WAT     H110007   6.051   5.219   7.232
 3255WAT     H210008   6.009   5.199   7.075
 3256WAT      O10009   7.559   9.608   4.214
 3256WAT     H110010   7.480   9.550   4.195
 3256WAT     H210011   7.537   9.703   4.192
 3257WAT      O10012   8.438   6.444   5.635
 3257WAT     H110013   8.447   6.453   5.536
 3257WAT     H210014   8.526   6.460   5.678
 3258WAT      O10015   1.372   4.820   9.606
 3258WAT     H110016   1.342   4.781   9.693
 3258WAT     H210017   1.293   4.831   9.545
 3259WAT      O10018   0.956   7.638   9.361
 3259WAT     H110019   0.912   7.597   9.440
 3259WAT     H210020   1.031   7.697   9.391
 3260WAT      O10021   1.297   1.636   2.389
 3260WAT     H110022   1.319   1.548   2.345
 3260WAT     H210023   1.203   1.662   2.366
 3261WAT      O10024   1.796   0.445   9.455
 3261WAT     H110025   1.793   0.346   9.445
 3261WAT     H210026   1.781   0.469   9.551
 3262WAT      O10027   8.787   3.071   7.563
 3262WAT     H110028   8.699   3.056   7.607
 3262WAT     H210029   8.777   3.062   7.464
 3263WAT      O10030   8.192   4.626   0.528
 3263WAT     H110031   8.227   4.690   0.597
 3263WAT     H210032   8.252   4.627   0.448
 3264WAT      O10033   0.566   5.821   2.726
 3264WAT     H110034   0.662   5.819   2.753
 3264WAT     H210035   0.518   5.891   2.778
 3265WAT      O10036   5.161   0.657   1.160
 3265WAT     H110037   5.230   0.712   1.111
 3265WAT     H210038   5.076   0.657   1.108
 3266WAT      O10039   4.737   5.594   5.703
 3266WAT     H110040   4.834   5.573   5.694
 3266WAT     H210041   4.719   5.628   5.796
 3267WAT      O10042   7.448   2.739   0.871
 3267WAT     H110043   7.403   2.703   0.789
 3267WAT     H210044   7.393   2.812   0.910
 3268WAT      O10045   3.911   6.742   4.671
 3268WAT     H110046   3.849   6.712   4.744
 3268WAT     H210047   3.861   6.803   4.609
 3269WAT      O10048   9.522   8.340   9.495
 3269WAT     H110049   9.491   8.250   9.526
 3269WAT     H210050   9.504   8.350   9.398
 3270WAT      O10051   2.522   0.631   8.989
 3270WAT     H110052   2.436   0.672   9.018
 3270WAT     H210053   2.537   0.545   9.038
 3271WAT      O10054   5.235   3.524   5.299
 3271WAT     H110055   5.308   3.482   5.245
 3271WAT     H210056   5.272   3.603   5.348
 3272WAT      O10057   1.291   2.872   4.290
 3272WAT     H110058   1.304   2.900   4.194
 3272WAT     H210059   1.312   2.775   4.300
 3273WAT      O10060   5.189   1.392   1.135
 3273WAT     H110061   5.244   1.439   1.066
 3273WAT     H210062   5.244   1.378   1.218
 3274WAT      O10063   3.695   4.081   2.930
 3274WAT     H110064   3.629   4.087   3.005
 3274WAT     H210065   3.676   4.152   2.862
 3275WAT      O10066   4.681   3.894   4.161
 3275WAT     H110067   4.767   3.890   4.109
 3275WAT     H210068   4.647   3.987   4.162
 3276WAT      O10069   6.875   3.195   5.716
 3276WAT     H110070   6.789   3.149   5.691
 3276WAT     H210071   6.895   3.265   5.647
 3277WAT      O10072   9.484   5.311   5.350
 3277WAT     H110073   9.582   5.319   5.334
 3277WAT     H210074   9.439   5.397   5.327
 3278WAT      O10075   4.124   3.342   4.672
 3278WAT     H110076   4.050   3.276   4.661
 3278WAT     H210077   4.191   3.330   4.599
 3279WAT      O10078   6.102   3.878   1.946
 3279WAT     H110079   6.103   3.788   1.989
 3279WAT     H210080   6.077   3.947   2.014
 3280WAT      O10081   3.912   6.466   6.770
 3280WAT     H110082   3.925   6.450   6.868
 3280WAT     H210083   3.874   6.558   6.757
 3281WAT      O10084   3.235   7.868   8.200
 3281WAT     H110085   3.138   7.877   8.218
 3281WAT     H210086   3.250   7.802   8.126
 3282WAT      O10087   8.550   1.526   4.239
 3282WAT     H110088   8.642   1.563   4.259
 3282WAT     H210089   8.539   1.439   4.286
 3283WAT      O10090   5.918   7.802   5.830
 3283WAT     H110091   5.827   7.835   5.852
 3283WAT     H210092   5.960   7.861   5.761
 3284WAT      O10093   3.133   3.878   2.047
 3284WAT     H110094   3.068   3.898   2.120
 3284WAT     H210095   3.171   3.786   2.060
 3285WAT      O10096   3.095   8.429   2.631
 3285WAT     H110097   3.184   8.421   2.676
 3285WAT     H210098   3.108   8.469   2.539
 3286WAT      O10099   5.681   6.136   1.214
 3286WAT     H110100   5.612   6.162   1.282
 3286WAT     H210101   5.678   6.201   1.138
 3287WAT      O10102   5.999   6.144   3.028
 3287WAT     H110103   6.079   6.098   3.066
 3287WAT     H210104   5.931   6.076   3.002
 3288WAT      O10105   3.268   1.072   1.757
 3288WAT     H110106   3.186   1.029   1.718
 3288WAT     H210107   3.348   1.045   1.704
 3289WAT      O10108   2.889   7.628   4.024
 3289WAT     H110109   2.920   7.549   3.972
 3289WAT     H210110   2.810   7.670   3.979
 3290WAT      O10111   3.050   4.325   3.649
 3290WAT     H110112   3.033   4.238   3.601
 3290WAT     H210113   2.999   4.327   3.734
 3291WAT      O10114   0.184   3.975   7.987
 3291WAT     H110115   0.091   3.980   7.951
 3291WAT     H210116   0.246   3.941   7.916
 3292WAT      O10117   7.874   7.286   5.351
 3292WAT     H110118   7.825   7.225   5.290
 3292WAT     H210119   7.957   7.241   5.385
 3293WAT      O10120   4.900   6.051   6.277
 3293WAT     H110121   4.897   6.084   6.371
 3293WAT     H210122   4.994   6.024   6.254
 3294WAT      O10123   2.490   7.076   6.512
 3294WAT     H110124   2.525   7.163   6.478
 3294WAT     H210125   2.564   7.026   6.558
 3295WAT      O10126   3.490   8.026   6.082
 3295WAT     H110127   3.584   8.028   6.116
 3295WAT     H210128   3.434   7.969   6.142
 3296WAT      O10129   8.107   0.621   5.227
 3296WAT     H110130   8.044   0.697   5.246
 3296WAT     H210131   8.058   0.534   5.233
 3297WAT      O10132   9.624   3.750   4.347
 3297WAT     H110133   9.555   3.766   4.417
 3297WAT     H210134   9.684   3.676   4.376
 3298WAT      O10135   8.129   4.917   3.562
 3298WAT     H110136   8.151   4.976   3.640
 3298WAT     H210137   8.070   4.842   3.594
 3299WAT      O10138   3.574   0.821   9.582
 3299WAT     H110139   3.556   0.847   9.487
 3299WAT     H210140   3.556   0.724   9.594
 3300WAT      O10141   6.542   1.345   7.281
 3300WAT     H110142   6.464   1.291   7.251
 3300WAT     H210143   6.619   1.284   7.303
 3301WAT      O10144   5.152   5.062   0.334
 3301WAT     H110145   5.141   5.006   0.252
 3301WAT     H210146   5.082   5.133   0.336
 3302WAT      O10147   4.802   5.844   6.498
 3302WAT     H110148   4.809   5.819   6.401
 3302WAT     H210149   4.878   5.904   6.523
 3303WAT      O10150   7.959   2.262   1.914
 3303WAT     H110151   7.867   2.243   1.946
 3303WAT     H210152   8.017   2.182   1.927
 3304WAT      O10153   2.069   4.126   7.613
 3304WAT     H110154   2.139   4.129   7.542
 3304WAT     H210155   2.110   4.145   7.702
 3305WAT      O10156   7.018   4.351   3.661
 3305WAT     H110157   6.989   4.380   3.752
 3305WAT     H210158   7.098   4.291   3.669
 3306WAT      O10159   5.836   6.172   8.844
 3306WAT     H110160   5.873   6.080   8.843
 3306WAT     H210161   5.739   6.170   8.820
 3307WAT      O10162   5.258   8.122   3.468
 3307WAT     H110163   5.243   8.070   3.384
 3307WAT     H210164   5.170   8.136   3.514
 3308WAT      O10165   1.695   8.287   5.524
 3308WAT     H110166   1.701   8.224   5.446
 3308WAT     H210167   1.770   8.269   5.587
 3309WAT      O10168   8.080   5.611   4.825
 3309WAT     H110169   8.082   5.609   4.725
 3309WAT     H210170   8.133   5.533   4.860
 3310WAT      O10171   3.166   1.380   7.662
 3310WAT     H110172   3.170   1.475   7.693
 3310WAT     H210173   3.232   1.367   7.587
 3311WAT      O10174   3.685   2.421   1.279
 3311WAT     H110175   3.597   2.384   1.309
 3311WAT     H210176   3.758   2.360   1.308
 3312WAT      O10177   7.374   5.485   3.915
 3312WAT     H110178   7.440   5.532   3.856
 3312WAT     H210179   7.338   5.405   3.866
 3313WAT      O10180   2.926   7.891   1.227
 3313WAT     H110181   2.981   7.966   1.264
 3313WAT     H210182   2.965   7.804   1.254
 3314WAT      O10183   1.602   3.180   3.031
 3314WAT     H110184   1.651   3.125   2.963
 3314WAT     H210185   1.647   3.269   3.039
 3315WAT      O10186   2.846   8.054   2.552
 3315WAT     H110187   2.900   7.971   2.566
 3315WAT     H210188   2.893   8.114   2.487
 3316WAT      O10189   0.059   1.022   1.778
 3316WAT     H110190   0.036   1.114   1.748
 3316WAT     H210191  -0.005   0.956   1.737
 3317WAT      O10192   6.313   2.200   1.602
 3317WAT     H110193   6.233   2.239   1.647
 3317WAT     H210194   6.371   2.274   1.567
 3318WAT      O10195   6.379   8.701   9.258
 3318WAT     H110196   6.373   8.630   9.188
 3318WAT     H210197   6.421   8.663   9.341
 3319WAT      O10198   5.884   3.235   8.764
 3319WAT     H110199   5.968   3.278   8.731
 3319WAT     H210200   5.906   3.160   8.825
 3320WAT      O10201   5.938   3.904   5.355
 3320WAT     H110202   5.976   3.964   5.425
 3320WAT     H210203   5.843   3.881   5.377
 3321WAT      O10204   2.719   3.205   3.130
 3321WAT     H110205   2.804   3.158   3.105
 3321WAT     H210206   2.713   3.292   3.081
 3322WAT      O10207   2.808   2.446   5.739
 3322WAT     H110208   2.744   2.509   5.695
 3322WAT     H210209   2.776   2.424   5.831
 3323WAT      O10210   9.062   4.418   6.150
 3323WAT     H110211   9.062   4.429   6.249
 3323WAT     H210212   8.987   4.472   6.110
 3324WAT      O10213   3.083   3.269   7.180
 3324WAT     H110214   3.018   3.274   7.104
 3324WAT     H210215   3.050   3.203   7.247
 3325WAT      O10216   2.827   8.100   6.727
 3325WAT     H110217   2.910   8.135   6.685
 3325WAT     H210218   2.851   8.032   6.796
 3326WAT      O10219   2.156   1.572   2.509
 3326WAT     H110220   2.149   1.602   2.604
 3326WAT     H210221   2.095   1.493   2.495
 3327WAT      O10222   0.312   3.120   5.311
 3327WAT     H110223   0.229   3.115   5.256
 3327WAT     H210224   0.289   3.153   5.403
 3328WAT      O10225   7.002   3.746   9.692
 3328WAT     H110226   6.942   3.808   9.642
 3328WAT     H210227   6.946   3.685   9.749
 3329WAT      O10228   3.482   4.308   6.480
 3329WAT     H110229   3.427   4.313   6.563
 3329WAT     H210230   3.422   4.305   6.400
 3330WAT      O10231   9.233   2.783   7.460
 3330WAT     H110232   9.324   2.741   7.462
 3330WAT     H210233   9.195   2.775   7.368
 3331WAT      O10234   2.151   9.289   4.777
 3331WAT     H110235   2.178   9.364   4.839
 3331WAT     H210236   2.178   9.312   4.684
 3332WAT      O10237   5.211   8.981   8.206
 3332WAT     H110238   5.258   8.936   8.282
 3332WAT     H210239   5.230   8.932   8.121
 3333WAT      O10240   0.814   5.992   9.830
 3333WAT     H110241   0.815   5.896   9.802
 3333WAT     H210242   0.907   6.025   9.841
 3334WAT      O10243   2.863   6.406   4.583
 3334WAT     H110244   2.838   6.494   4.623
 3334WAT     H210245   2.823   6.398   4.491
 3335WAT      O10246   0.329   7.638   0.889
 3335WAT     H110247   0.344   7.644   0.791
 3335WAT     H210248   0.234   7.612   0.907
 3336WAT      O10249   0.226   6.791   8.878
 3336WAT     H110250   0.199   6.768   8.785
 3336WAT     H210251   0.144   6.800   8.935
 3337WAT      O10252   5.907   0.701   4.669
 3337WAT     H110253   5.856   0.787   4.668
 3337WAT     H210254   5.935   0.680   4.763
 3338WAT      O10255   9.686   3.049   8.893
 3338WAT     H110256   9.619   2.979   8.920
 3338WAT     H210257   9.778   3.015   8.910
 3339WAT      O10258   1.924   8.884   6.431
 3339WAT     H110259   1.842   8.828   6.440
 3339WAT     H210260   1.981   8.847   6.357
 3340WAT      O10261   6.212   5.680   8.229
 3340WAT     H110262   6.230   5.648   8.136
 3340WAT     H210263   6.272   5.632   8.293
 3341WAT      O10264   3.571   6.642   5.668
 3341WAT     H110265   3.576   6.671   5.764
 3341WAT     H210266   3.657   6.664   5.623
 3342WAT      O10267   8.674   2.744   3.159
 3342WAT     H110268   8.764   2.787   3.156
 3342WAT     H210269   8.684   2.645   3.154
 3343WAT      O10270   0.634   8.396   0.648
 3343WAT     H110271   0.577   8.473   0.619
 3343WAT     H210272   0.668   8.347   0.568
 3344WAT      O10273   6.213   4.455   8.439
 3344WAT     H110274   6.117   4.427   8.443
 3344WAT     H210275   6.271   4.374   8.444
 3345WAT      O10276   0.825   4.267   5.151
 3345WAT     H110277   0.827   4.289   5.054
 3345WAT     H210278   0.918   4.248   5.183
 3346WAT      O10279   2.778   4.584   9.737
 3346WAT     H110280   2.707   4.555   9.672
 3346WAT     H210281   2.829   4.504   9.768
 3347WAT      O10282   6.913   8.430   8.237
 3347WAT     H110283   6.863   8.383   8.164
 3347WAT     H210284   6.939   8.363   8.307
 3348WAT      O10285   8.406   7.242   9.515
 3348WAT     H110286   8.307   7.238   9.499
 3348WAT     H210287   8.445   7.150   9.504
 3349WAT      O10288   0.194   7.274   4.679
 3349WAT     H110289   0.182   7.361   4.728
 3349WAT     H210290   0.292   7.258   4.663
 3350WAT      O10291   7.991   6.234   8.632
 3350WAT     H110292   8.073   6.205   8.681
 3350WAT     H210293   7.968   6.328   8.656
 3351WAT      O10294   5.325   7.336   8.230
 3351WAT     H110295   5.257   7.262   8.234
 3351WAT     H210296   5.408   7.307   8.277
 3352WAT      O10297   2.355   5.731   2.057
 3352WAT     H110298   2.425   5.697   1.995
 3352WAT     H210299   2.370   5.828   2.075
 3353WAT      O10300   7.409   0.629   0.494
 3353WAT     H110301   7.328   0.658   0.544
 3353WAT     H210302   7.381   0.586   0.408
 3354WAT      O10303   9.653   6.606   0.280
 3354WAT     H110304   9.696   6.559   0.203
 3354WAT     H210305   9.703   6.690   0.299
 3355WAT      O10306   0.341   5.908   3.053
 3355WAT     H110307   0.398   5.969   2.999
 3355WAT     H210308   0.393   5.827   3.079
 3356WAT      O10309   4.674   8.848   7.191
 3356WAT     H110310   4.601   8.791   7.231
 3356WAT     H210311   4.726   8.891   7.264
 3357WAT      O10312   0.400   8.237   0.314
 3357WAT     H110313   0.330   8.301   0.344
 3357WAT     H210314   0.458   8.280   0.245
 3358WAT      O10315   3.696   6.566   7.566
 3358WAT     H110316   3.746   6.505   7.628
 3358WAT     H210317   3.684   6.520   7.478
 3359WAT      O10318   3.007   8.284   5.941
 3359WAT     H110319   3.040   8.303   6.033
 3359WAT     H210320   2.942   8.209   5.944
 3360WAT      O10321   2.460   6.997   1.559
 3360WAT     H110322   2.466   7.038   1.468
 3360WAT     H210323   2.470   7.069   1.628
 3361WAT      O10324   4.079   4.959   2.249
 3361WAT     H110325   4.176   4.938   2.245
 3361WAT     H210326   4.046   4.951   2.343
 3362WAT      O10327   0.852   9.291   8.859
 3362WAT     H110328   0.899   9.259   8.777
 3362WAT     H210329   0.903   9.263   8.940
 3363WAT      O10330   8.345   8.545   7.840
 3363WAT     H110331   8.415   8.574   7.774
 3363WAT     H210332   8.340   8.611   7.915
 3364WAT      O10333   7.897   6.156   9.399
 3364WAT     H110334   7.976   6.126   9.452
 3364WAT     H210335   7.928   6.186   9.308
 3365WAT      O10336   4.782   5.044   1.977
 3365WAT     H110337   4.748   4.983   1.906
 3365WAT     H210338   4.793   5.137   1.940
 3366WAT      O10339   6.415   5.027   9.310
 3366WAT     H110340   6.438   5.015   9.213
 3366WAT     H210341   6.346   5.099   9.319
 3367WAT      O10342   6.410   5.638   0.204
 3367WAT     H110343   6.428   5.595   0.116
 3367WAT     H210344   6.458   5.726   0.209
 3368WAT      O10345   9.823   3.114   3.576
 3368WAT     H110346   9.731   3.127   3.614
 3368WAT     H210347   9.841   3.016   3.568
 3369WAT      O10348   9.627   0.054   7.856
 3369WAT     H110349   9.670  -0.026   7.815
 3369WAT     H210350   9.656   0.063   7.951
 3370WAT      O10351   8.089   3.419   4.468
 3370WAT     H110352   8.156   3.459   4.530
 3370WAT     H210353   8.136   3.373   4.393
 3371WAT      O10354   2.291   4.969   7.265
 3371WAT     H110355   2.264   4.979   7.361
 3371WAT     H210356   2.223   5.014   7.207
 3372WAT      O10357   5.732   7.443   9.699
 3372WAT     H110358   5.691   7.477   9.614
 3372WAT     H210359   5.660   7.416   9.762
 3373WAT      O10360   7.745   0.761   2.963
 3373WAT     H110361   7.685   0.804   3.030
 3373WAT     H210362   7.697   0.686   2.918
 3374WAT      O10363   1.631   3.434   5.216
 3374WAT     H110364   1.612   3.521   5.263
 3374WAT     H210365   1.706   3.387   5.262
 3375WAT      O10366   2.553   2.475   3.738
 3375WAT     H110367   2.606   2.502   3.657
 3375WAT     H210368   2.520   2.382   3.727
 3376WAT      O10369   4.831   0.142   4.029
 3376WAT     H110370   4.821   0.073   3.957
 3376WAT     H210371   4.929   0.157   4.047
 3377WAT      O10372   2.354   8.381   6.913
 3377WAT     H110373   2.279   8.318   6.890
 3377WAT     H210374   2.440   8.331   6.916
 3378WAT      O10375   9.568   7.959   6.439
 3378WAT     H110376   9.540   8.049   6.406
 3378WAT     H210377   9.639   7.922   6.379
 3379WAT      O10378   7.489   4.504   4.355
 3379WAT     H110379   7.527   4.412   4.346
 3379WAT     H210380   7.536   4.553   4.428
 3380WAT      O10381   5.441   0.509   2.917
 3380WAT     H110382   5.356   0.473   2.956
 3380WAT     H210383   5.420   0.561   2.834
 3381WAT      O10384   2.981   9.744   0.474
 3381WAT     H110385   3.054   9.702   0.528
 3381WAT     H210386   3.001   9.842   0.462
 3382WAT      O10387   4.519   2.514   5.748
 3382WAT     H110388   4.589   2.574   5.786
 3382WAT     H210389   4.560   2.426   5.723
 3383WAT      O10390   3.336   1.376   2.097
 3383WAT     H110391   3.374   1.418   2.014
 3383WAT     H210392   3.302   1.447   2.158
 3384WAT      O10393   6.901   3.290   7.162
 3384WAT     H110394   6.988   3.250   7.132
 3384WAT     H210395   6.881   3.260   7.255
 3385WAT      O10396   7.227   1.627   5.604
 3385WAT     H110397   7.318   1.638   5.644
 3385WAT     H210398   7.169   1.577   5.667
 3386WAT      O10399   2.752   8.758   9.327
 3386WAT     H110400   2.771   8.662   9.347
 3386WAT     H210401   2.674   8.788   9.382
 3387WAT      O10402   0.846   9.435   6.926
 3387WAT     H110403   0.747   9.446   6.922
 3387WAT     H210404   0.869   9.343   6.959
 3388WAT      O10405   5.381   7.456   5.113
 3388WAT     H110406   5.305   7.405   5.074
 3388WAT     H210407   5.460   7.450   5.052
 3389WAT      O10408   9.421   3.106   9.231
 3389WAT     H110409   9.511   3.061   9.233
 3389WAT     H210410   9.428   3.194   9.278
 3390WAT      O10411   9.186   2.117   2.190
 3390WAT     H110412   9.167   2.066   2.106
 3390WAT     H210413   9.244   2.196   2.168
 3391WAT      O10414   6.674   8.928   3.134
 3391WAT     H110415   6.628   8.917   3.222
 3391WAT     H210416   6.628   8.872   3.065
 3392WAT      O10417   2.462   3.644   2.322
 3392WAT     H110418   2.415   3.706   2.260
 3392WAT     H210419   2.422   3.552   2.314
 3393WAT      O10420   4.928   2.652   5.044
 3393WAT     H110421   4.858   2.710   5.003
 3393WAT     H210422   4.899   2.625   5.136
 3394WAT      O10423   3.339   4.190   0.345
 3394WAT     H110424   3.302   4.181   0.252
 3394WAT     H210425   3.371   4.100   0.377
 3395WAT      O10426   4.539   2.333   3.695
 3395WAT     H110427   4.535   2.272   3.615
 3395WAT     H210428   4.577   2.421   3.667
 3396WAT      O10429   1.532   3.014   2.663
 3396WAT     H110430   1.626   3.042   2.683
 3396WAT     H210431   1.518   2.920   2.694
 3397WAT      O10432   0.336   0.579   4.413
 3397WAT     H110433   0.242   0.602   4.391
 3397WAT     H210434   0.395   0.603   4.335
 3398WAT      O10435   3.961   3.424   2.608
 3398WAT     H110436   3.933   3.338   2.565
 3398WAT     H210437   3.952   3.499   2.542
 3399WAT      O10438   6.231   5.309   7.821
 3399WAT     H110439   6.195   5.359   7.742
 3399WAT     H210440   6.155   5.278   7.878
 3400WAT      O10441   7.594   0.828   0.099
 3400WAT     H110442   7.631   0.903   0.044
 3400WAT     H210443   7.535   0.770   0.042
 3401WAT      O10444   2.931   4.766   8.151
 3401WAT     H110445   2.910   4.851   8.199
 3401WAT     H210446   2.847   4.712   8.140
 3402WAT      O10447   4.441   6.253   0.203
 3402WAT     H110448   4.393   6.334   0.236
 3402WAT     H210449   4.376   6.193   0.155
 3403WAT      O10450   1.381   2.415   0.801
 3403WAT     H110451   1.475   2.437   0.774
 3403WAT     H210452   1.335   2.497   0.834
 3404WAT      O10453   4.226   8.051   2.203
 3404WAT     H110454   4.142   7.997   2.197
 3404WAT     H210455   4.202   8.147   2.222
 3405WAT      O10456   8.366   6.938   6.058
 3405WAT     H110457   8.361   6.856   6.001
 3405WAT     H210458   8.273   6.969   6.080
 3406WAT      O10459   6.213   3.014   8.773
 3406WAT     H110460   6.292   3.061   8.734
 3406WAT     H210461   6.181   2.944   8.709
 3407WAT      O10462   4.743   2.539   1.524
 3407WAT     H110463   4.732   2.526   1.622
 3407WAT     H210464   4.653   2.544   1.480
 3408WAT      O10465   0.240   8.829   2.953
 3408WAT     H110466   0.278   8.913   2.914
 3408WAT     H210467   0.201   8.848   3.043
 3409WAT      O10468   5.079   6.863   9.678
 3409WAT     H110469   5.058   6.766   9.694
 3409WAT     H210470   5.097   6.878   9.581
 3410WAT      O10471   3.583   9.445   5.824
 3410WAT     H110472   3.489   9.425   5.850
 3410WAT     H210473   3.600   9.412   5.732
 3411WAT      O10474   0.721   7.450   8.635
 3411WAT     H110475   0.766   7.500   8.561
 3411WAT     H210476   0.644   7.398   8.599
 3412WAT      O10477   4.388   9.617   8.013
 3412WAT     H110478   4.315   9.683   8.030
 3412WAT     H210479   4.368   9.567   7.928
 3413WAT      O10480   1.269   8.324   2.865
 3413WAT     H110481   1.226   8.363   2.947
 3413WAT     H210482   1.332   8.390   2.826
 3414WAT      O10483   6.170   0.487   6.861
 3414WAT     H110484   6.220   0.413   6.817
 3414WAT     H210485   6.190   0.573   6.815
 3415WAT      O10486   4.325   5.014   3.255
 3415WAT     H110487   4.234   5.039   3.286
 3415WAT     H210488   4.372   4.964   3.329
 3416WAT      O10489   0.362   3.574   2.298
 3416WAT     H110490   0.432   3.523   2.347
 3416WAT     H210491   0.330   3.651   2.355
 3417WAT      O10492   6.253   9.474   0.196
 3417WAT     H110493   6.262   9.375   0.200
 3417WAT     H210494   6.169   9.502   0.243
 3418WAT      O10495   5.020   8.811   2.335
 3418WAT     H110496   5.037   8.718   2.366
 3418WAT     H210497   5.024   8.873   2.414
 3419WAT      O10498   0.414   5.338   0.462
 3419WAT     H110499   0.424   5.358   0.559
 3419WAT     H210500   0.435   5.420   0.409
 3420WAT      O10501   6.762   4.352   1.392
 3420WAT     H110502   6.718   4.431   1.348
 3420WAT     H210503   6.692   4.288   1.422
 3421WAT      O10504   6.217   3.060   6.485
 3421WAT     H110505   6.228   2.987   6.552
 3421WAT     H210506   6.269   3.039   6.403
 3422WAT      O10507   3.265   1.838   5.903
 3422WAT     H110508   3.280   1.739   5.900
 3422WAT     H210509   3.188   1.857   5.965
 3423WAT      O10510   7.642   2.820   9.609
 3423WAT     H110511   7.556   2.868   9.596
 3423WAT     H210512   7.670   2.826   9.705
 3424WAT      O10513   5.604   7.637   2.953
 3424WAT     H110514   5.564   7.545   2.949
 3424WAT     H210515   5.590   7.676   3.044
 3425WAT      O10516   2.478   5.139   7.561
 3425WAT     H110517   2.409   5.086   7.510
 3425WAT     H210518   2.514   5.211   7.502
 3426WAT      O10519   8.759   4.027   6.973
 3426WAT     H110520   8.798   3.951   7.024
 3426WAT     H210521   8.754   4.004   6.876
 3427WAT      O10522   5.628   9.171   9.769
 3427WAT     H110523   5.554   9.137   9.712
 3427WAT     H210524   5.593   9.193   9.860
 3428WAT      O10525   3.809   0.648   7.053
 3428WAT     H110526   3.810   0.743   7.022
 3428WAT     H210527   3.745   0.639   7.129
 3429WAT      O10528   9.211   0.244   0.949
 3429WAT     H110529   9.148   0.167   0.957
 3429WAT     H210530   9.299   0.212   0.915
 3430WAT      O10531   7.783   3.940   3.570
 3430WAT     H110532   7.704   3.886   3.598
 3430WAT     H210533   7.754   4.033   3.548
 3431WAT      O10534   3.169   7.330   3.536
 3431WAT     H110535   3.131   7.267   3.469
 3431WAT     H210536   3.267   7.340   3.521
 3432WAT      O10537   4.664   2.148   1.846
 3432WAT     H110538   4.687   2.051   1.856
 3432WAT     H210539   4.607   2.177   1.923
 3433WAT      O10540   5.243   2.702   1.887
 3433WAT     H110541   5.328   2.649   1.884
 3433WAT     H210542   5.258   2.791   1.843
 3434WAT      O10543   0.372   9.651   9.713
 3434WAT     H110544   0.423   9.726   9.672
 3434WAT     H210545   0.299   9.622   9.650
 3435WAT      O10546   0.490   1.600   9.235
 3435WAT     H110547   0.518   1.696   9.239
 3435WAT     H210548   0.432   1.580   9.314
 3436WAT      O10549   9.327   3.111   8.700
 3436WAT     H110550   9.357   3.123   8.794
 3436WAT     H210551   9.227   3.102   8.697
 3437WAT      O10552   3.522   2.190   5.096
 3437WAT     H110553   3.560   2.274   5.056
 3437WAT     H210554   3.423   2.188   5.082
 3438WAT      O10555   0.361   9.683   3.718
 3438WAT     H110556   0.413   9.730   3.647
 3438WAT     H210557   0.356   9.585   3.696
 3439WAT      O10558   1.648   1.497   4.286
 3439WAT     H110559   1.726   1.559   4.286
 3439WAT     H210560   1.660   1.427   4.357
 3440WAT      O10561   8.079   3.279   4.984
 3440WAT     H110562   8.047   3.208   4.921
 3440WAT     H210563   8.010   3.295   5.054
 3441WAT      O10564   7.909   4.195   1.502
 3441WAT     H110565   7.930   4.153   1.414
 3441WAT     H210566   7.821   4.241   1.497
 3442WAT      O10567   7.709   2.342   5.569
 3442WAT     H110568   7.609   2.341   5.578
 3442WAT     H210569   7.734   2.387   5.483
 3443WAT      O10570   9.535   7.480   6.262
 3443WAT     H110571   9.462   7.528   6.212
 3443WAT     H210572   9.609   7.458   6.199
 3444WAT      O10573   1.742   6.593   5.593
 3444WAT     H110574   1.745   6.692   5.580
 3444WAT     H210575   1.728   6.549   5.504
 3445WAT      O10576   8.669   4.059   0.540
 3445WAT     H110577   8.695   3.986   0.602
 3445WAT     H210578   8.747   4.121   0.527
 3446WAT      O10579   6.154   8.857   7.416
 3446WAT     H110580   6.117   8.800   7.343
 3446WAT     H210581   6.138   8.813   7.504
 3447WAT      O10582   0.197   0.226   1.361
 3447WAT     H110583   0.251   0.160   1.413
 3447WAT     H210584   0.126   0.266   1.419
 3448WAT      O10585   6.820   0.297   2.390
 3448WAT     H110586   6.884   0.321   2.462
 3448WAT     H210587   6.861   0.229   2.329
 3449WAT      O10588   0.674   0.468   6.768
 3449WAT     H110589   0.739   0.413   6.819
 3449WAT     H210590   0.720   0.513   6.692
 3450WAT      O10591   5.074   8.252   7.456
 3450WAT     H110592   5.102   8.215   7.368
 3450WAT     H210593   5.088   8.351   7.456
 3451WAT      O10594   0.720   1.559   5.324
 3451WAT     H110595   0.729   1.461   5.340
 3451WAT     H210596   0.633   1.577   5.278
 3452WAT      O10597   4.143   2.157   3.689
 3452WAT     H110598   4.137   2.086   3.760
 3452WAT     H210599   4.194   2.121   3.611
 3453WAT      O10600   9.850   4.297   4.677
 3453WAT     H110601   9.831   4.395   4.667
 3453WAT     H210602   9.817   4.267   4.767
 3454WAT      O10603   5.574   4.451   7.910
 3454WAT     H110604   5.496   4.453   7.972
 3454WAT     H210605   5.555   4.508   7.830
 3455WAT      O10606   8.767   8.338   1.565
 3455WAT     H110607   8.759   8.436   1.587
 3455WAT     H210608   8.721   8.285   1.636
 3456WAT      O10609   5.721   9.788   8.900
 3456WAT     H110610   5.698   9.750   8.989
 3456WAT     H210611   5.818   9.772   8.880
 3457WAT      O10612   8.740   5.051   3.442
 3457WAT     H110613   8.698   4.969   3.481
 3457WAT     H210614   8.766   5.114   3.515
 3458WAT      O10615   1.765   9.447   9.001
 3458WAT     H110616   1.753   9.525   9.062
 3458WAT     H210617   1.802   9.370   9.053
 3459WAT      O10618   6.311   5.731   2.207
 3459WAT     H110619   6.385   5.798   2.214
 3459WAT     H210620   6.228   5.769   2.249
 3460WAT      O10621   4.645   2.766   1.219
 3460WAT     H110622   4.663   2.809   1.308
 3460WAT     H210623   4.732   2.740   1.177
 3461WAT      O10624   7.886   1.953   5.721
 3461WAT     H110625   7.900   1.855   5.711
 3461WAT     H210626   7.832   1.970   5.804
 3462WAT      O10627   3.418   3.649   4.641
 3462WAT     H110628   3.494   3.628   4.703
 3462WAT     H210629   3.453   3.668   4.550
 3463WAT      O10630   4.324   8.985   8.616
 3463WAT     H110631   4.373   9.040   8.683
 3463WAT     H210632   4.379   8.977   8.533
 3464WAT      O10633   4.917   0.182   1.547
 3464WAT     H110634   4.914   0.277   1.578
 3464WAT     H210635   5.006   0.143   1.568
 3465WAT      O10636   2.562   8.992   4.970
 3465WAT     H110637   2.479   9.048   4.977
 3465WAT     H210638   2.635   9.046   4.928
 3466WAT      O10639   9.087   6.187   4.379
 3466WAT     H110640   9.182   6.200   4.406
 3466WAT     H210641   9.027   6.211   4.456
 3467WAT      O10642   9.562   5.671   0.821
 3467WAT     H110643   9.488   5.739   0.818
 3467WAT     H210644   9.566   5.629   0.911
 3468WAT      O10645   1.335   4.347   3.133
 3468WAT     H110646   1.328   4.445   3.113
 3468WAT     H210647   1.369   4.300   3.051
 3469WAT      O10648   5.066   9.506   3.701
 3469WAT     H110649   4.984   9.561   3.683
 3469WAT     H210650   5.065   9.425   3.642
 3470WAT      O10651   6.398   2.805   5.206
 3470WAT     H110652   6.378   2.902   5.219
 3470WAT     H210653   6.473   2.778   5.266
 3471WAT      O10654   6.300   4.704   3.007
 3471WAT     H110655   6.392   4.678   2.980
 3471WAT     H210656   6.285   4.801   2.986
 3472WAT      O10657   2.785   0.118   7.353
 3472WAT     H110658   2.874   0.081   7.327
 3472WAT     H210659   2.791   0.218   7.360
 3473WAT      O10660   7.811   3.170   1.127
 3473WAT     H110661   7.762   3.195   1.044
 3473WAT     H210662   7.802   3.243   1.195
 3474WAT      O10663   7.726   7.733   5.177
 3474WAT     H110664   7.732   7.832   5.194
 3474WAT     H210665   7.738   7.715   5.079
 3475WAT      O10666   5.181   7.103   0.975
 3475WAT     H110667   5.275   7.079   0.999
 3475WAT     H210668   5.165   7.200   0.994
 3476WAT      O10669   7.182   5.185   8.910
 3476WAT     H110670   7.114   5.247   8.950
 3476WAT     H210671   7.151   5.156   8.820
 3477WAT      O10672   0.227   2.990   3.287
 3477WAT     H110673   0.195   2.918   3.348
 3477WAT     H210674   0.154   3.012   3.221
 3478WAT      O10675   7.052   7.149   5.265
 3478WAT     H110676   7.050   7.169   5.363
 3478WAT     H210677   7.062   7.050   5.251
 3479WAT      O10678   9.293   2.984   8.145
 3479WAT     H110679   9.362   2.925   8.186
 3479WAT     H210680   9.219   2.999   8.210
 3480WAT      O10681   5.379   6.678   6.164
 3480WAT     H110682   5.414   6.608   6.103
 3480WAT     H210683   5.294   6.716   6.127
 3481WAT      O10684   6.146   0.383   2.455
 3481WAT     H110685   6.075   0.454   2.460
 3481WAT     H210686   6.222   0.416   2.399
 3482WAT      O10687   9.508   5.672   8.040
 3482WAT     H110688   9.589   5.699   7.988
 3482WAT     H210689   9.427   5.681   7.982
 3483WAT      O10690   4.319   8.166   0.354
 3483WAT     H110691   4.373   8.083   0.369
 3483WAT     H210692   4.236   8.162   0.410
 3484WAT      O10693   4.851   1.756   9.384
 3484WAT     H110694   4.777   1.824   9.387
 3484WAT     H210695   4.925   1.785   9.445
 3485WAT      O10696   0.421   8.856   9.463
 3485WAT     H110697   0.334   8.856   9.413
 3485WAT     H210698   0.446   8.762   9.485
 3486WAT      O10699   3.772   1.987   8.424
 3486WAT     H110700   3.830   1.920   8.376
 3486WAT     H210701   3.676   1.967   8.404
 3487WAT      O10702   7.771   1.916   2.320
 3487WAT     H110703   7.838   1.852   2.282
 3487WAT     H210704   7.818   1.981   2.380
 3488WAT      O10705   6.082   0.815   6.256
 3488WAT     H110706   6.060   0.899   6.306
 3488WAT     H210707   6.097   0.836   6.160
 3489WAT      O10708   9.724   0.151   0.755
 3489WAT     H110709   9.713   0.052   0.769
 3489WAT     H210710   9.798   0.184   0.814
 3490WAT      O10711   5.040   0.238   3.794
 3490WAT     H110712   5.053   0.324   3.743
 3490WAT     H210713   5.110   0.232   3.865
 3491WAT      O10714   4.055   9.383   8.106
 3491WAT     H110715   4.012   9.319   8.170
 3491WAT     H210716   4.127   9.336   8.055
 3492WAT      O10717   5.484   2.100   9.289
 3492WAT     H110718   5.445   2.192   9.287
 3492WAT     H210719   5.563   2.099   9.350
 3493WAT      O10720   0.444   4.931   8.992
 3493WAT     H110721   0.497   4.954   9.074
 3493WAT     H210722   0.487   4.853   8.946
 3494WAT      O10723   7.571   7.273   9.151
 3494WAT     H110724   7.547   7.181   9.181
 3494WAT     H210725   7.658   7.270   9.102
 3495WAT      O10726   7.090   6.504   3.894
 3495WAT     H110727   7.070   6.561   3.973
 3495WAT     H210728   7.187   6.478   3.894
 3496WAT      O10729   5.799   9.798   8.602
 3496WAT     H110730   5.727   9.736   8.635
 3496WAT     H210731   5.759   9.864   8.538
 3497WAT      O10732   2.161   2.994   8.910
 3497WAT     H110733   2.211   2.952   8.834
 3497WAT     H210734   2.223   3.045   8.968
 3498WAT      O10735   1.377   7.276   8.783
 3498WAT     H110736   1.412   7.307   8.872
 3498WAT     H210737   1.446   7.220   8.738
 3499WAT      O10738   7.294   8.307   3.575
 3499WAT     H110739   7.335   8.384   3.527
 3499WAT     H210740   7.361   8.265   3.636
 3500WAT      O10741   3.696   0.366   6.448
 3500WAT     H110742   3.654   0.362   6.538
 3500WAT     H210743   3.785   0.321   6.450
 3501WAT      O10744   7.735   4.604   7.675
 3501WAT     H110745   7.818   4.597   7.730
 3501WAT     H210746   7.718   4.700   7.653
 3502WAT      O10747   8.112   2.881   3.562
 3502WAT     H110748   8.053   2.907   3.638
 3502WAT     H210749   8.101   2.784   3.542
 3503WAT      O10750   6.362   0.155   7.309
 3503WAT     H110751   6.429   0.220   7.272
 3503WAT     H210752   6.321   0.104   7.234
 3504WAT      O10753   7.075   1.670   5.178
 3504WAT     H110754   7.174   1.660   5.167
 3504WAT     H210755   7.043   1.748   5.124
 3505WAT      O10756   3.726   4.588   6.448
 3505WAT     H110757   3.678   4.606   6.534
 3505WAT     H210758   3.670   4.620   6.371
 3506WAT      O10759   4.545   4.866   9.456
 3506WAT     H110760   4.638   4.835   9.479
 3506WAT     H210761   4.478   4.806   9.498
 3507WAT      O10762   5.237   6.060   1.029
 3507WAT     H110763   5.183   6.031   0.950
 3507WAT     H210764   5.303   5.989   1.053
 3508WAT      O10765   9.708   0.695   4.181
 3508WAT     H110766   9.694   0.631   4.257
 3508WAT     H210767   9.802   0.729   4.182
 3509WAT      O10768   0.053   9.116   0.167
 3509WAT     H110769  -0.016   9.157   0.228
 3509WAT     H210770   0.144   9.141   0.200
 3510WAT      O10771   9.082   9.208   7.144
 3510WAT     H110772   9.047   9.164   7.227
 3510WAT     H210773   9.156   9.270   7.168
 3511WAT      O10774   3.951   4.421   4.292
 3511WAT     H110775   3.869   4.471   4.263
 3511WAT     H210776   3.924   4.333   4.331
 3512WAT      O10777   9.515   4.944   6.356
 3512WAT     H110778   9.569   5.028   6.355
 3512WAT     H210779   9.577   4.865   6.347
 3513WAT      O10780   2.207   8.767   3.127
 3513WAT     H110781   2.197   8.679   3.173
 3513WAT     H210782   2.299   8.775   3.089
 3514WAT      O10783   9.446   0.132   0.205
 3514WAT     H110784   9.463   0.135   0.107
 3514WAT     H210785   9.504   0.062   0.247
 3515WAT      O10786   0.859   3.300   5.857
 3515WAT     H110787   0.780   3.281   5.914
 3515WAT     H210788   0.879   3.399   5.859
 3516WAT      O10789   2.935   4.394   1.463
 3516WAT     H110790   2.932   4.453   1.383
 3516WAT     H210791   2.867   4.426   1.530
 3517WAT      O10792   2.978   8.337   7.649
 3517WAT     H110793   2.962   8.384   7.562
 3517WAT     H210794   3.005   8.404   7.719
 3518WAT      O10795   0.869   6.957   6.130
 3518WAT     H110796   0.920   6.880   6.167
 3518WAT     H210797   0.926   7.039   6.133
 3519WAT      O10798   4.925   9.678   6.954
 3519WAT     H110799   4.901   9.619   7.031
 3519WAT     H210800   4.842   9.700   6.902
 3520WAT      O10801   0.467   5.420   3.979
 3520WAT     H110802   0.514   5.422   4.067
 3520WAT     H210803   0.452   5.513   3.946
 3521WAT      O10804   4.821   2.159   3.834
 3521WAT     H110805   4.819   2.259   3.842
 3521WAT     H210806   4.732   2.127   3.802
 3522WAT      O10807   7.509   6.324   7.708
 3522WAT     H110808   7.528   6.421   7.691
 3522WAT     H210809   7.447   6.316   7.786
 3523WAT      O10810   2.441   7.931   9.116
 3523WAT     H110811   2.468   7.893   9.204
 3523WAT     H210812   2.522   7.949   9.061
 3524WAT      O10813   1.625   3.297   9.503
 3524WAT     H110814   1.594   3.237   9.576
 3524WAT     H210815   1.629   3.246   9.417
 3525WAT      O10816   5.338   1.032   9.176
 3525WAT     H110817   5.426   1.042   9.222
 3525WAT     H210818   5.273   1.099   9.212
 3526WAT      O10819   6.652   8.182   1.754
 3526WAT     H110820   6.680   8.124   1.677
 3526WAT     H210821   6.728   8.241   1.779
 3527WAT      O10822   4.201   4.251   7.309
 3527WAT     H110823   4.182   4.346   7.333
 3527WAT     H210824   4.295   4.242   7.278
 3528WAT      O10825   0.977   5.009   3.641
 3528WAT     H110826   1.072   4.979   3.653
 3528WAT     H210827   0.951   5.069   3.717
 3529WAT      O10828   0.633   1.269   9.403
 3529WAT     H110829   0.553   1.326   9.422
 3529WAT     H210830   0.706   1.325   9.366
 3530WAT      O10831   5.395   4.482   8.938
 3530WAT     H110832   5.352   4.557   8.887
 3530WAT     H210833   5.486   4.464   8.900
 3531WAT      O10834   1.099   0.120   8.972
 3531WAT     H110835   1.074   0.204   8.925
 3531WAT     H210836   1.132   0.141   9.064
 3532WAT      O10837   1.297   8.796   9.011
 3532WAT     H110838   1.228   8.837   8.952
 3532WAT     H210839   1.256   8.721   9.063
 3533WAT      O10840   2.224   9.818   5.134
 3533WAT     H110841   2.275   9.776   5.209
 3533WAT     H210842   2.130   9.834   5.162
 3534WAT      O10843   8.608   5.285   6.281
 3534WAT     H110844   8.561   5.330   6.205
 3534WAT     H210845   8.637   5.193   6.252
 3535WAT      O10846   3.955   4.783   2.736
 3535WAT     H110847   3.981   4.875   2.766
 3535WAT     H210848   3.855   4.775   2.738
 3536WAT      O10849   2.313   1.185   7.829
 3536WAT     H110850   2.367   1.184   7.913
 3536WAT     H210851   2.222   1.148   7.847
 3537WAT      O10852   6.486   6.147   8.036
 3537WAT     H110853   6.487   6.200   7.951
 3537WAT     H210854   6.538   6.195   8.106
 3538WAT      O10855   0.560   4.934   9.238
 3538WAT     H110856   0.651   4.970   9.258
 3538WAT     H210857   0.532   4.870   9.310
 3539WAT      O10858   2.240   7.295   6.879
 3539WAT     H110859   2.169   7.359   6.849
 3539WAT     H210860   2.256   7.227   6.808
 3540WAT      O10861   4.931   5.318   3.411
 3540WAT     H110862   4.891   5.366   3.333
 3540WAT     H210863   4.859   5.300   3.478
 3541WAT      O10864   4.417   5.607   0.799
 3541WAT     H110865   4.341   5.668   0.823
 3541WAT     H210866   4.442   5.623   0.704
 3542WAT      O10867   1.806   8.331   6.484
 3542WAT     H110868   1.758   8.393   6.546
 3542WAT     H210869   1.876   8.280   6.534
 3543WAT      O10870   1.213   9.275   2.903
 3543WAT     H110871   1.231   9.342   2.975
 3543WAT     H210872   1.255   9.188   2.926
 3544WAT      O10873   9.782   1.769   4.584
 3544WAT     H110874   9.790   1.847   4.521
 3544WAT     H210875   9.692   1.728   4.573
 3545WAT      O10876   1.825   4.009   9.011
 3545WAT     H110877   1.818   3.913   9.037
 3545WAT     H210878   1.905   4.022   8.953
 3546WAT      O10879   2.395   5.323   1.136
 3546WAT     H110880   2.324   5.356   1.198
 3546WAT     H210881   2.374   5.352   1.043
 3547WAT      O10882   2.623   5.439   0.357
 3547WAT     H110883   2.655   5.397   0.273
 3547WAT     H210884   2.687   5.512   0.384
 3548WAT      O10885   8.190   5.667   0.199
 3548WAT     H110886   8.100   5.680   0.157
 3548WAT     H210887   8.179   5.617   0.285
 3549WAT      O10888   9.292   6.172   3.597
 3549WAT     H110889   9.240   6.159   3.682
 3549WAT     H210890   9.291   6.087   3.544
 3550WAT      O10891   8.676   6.035   4.226
 3550WAT     H110892   8.621   5.963   4.183
 3550WAT     H210893   8.702   6.007   4.318
 3551WAT      O10894   5.245   4.242   5.533
 3551WAT     H110895   5.330   4.225   5.483
 3551WAT     H210896   5.237   4.341   5.550
 3552WAT      O10897   7.679   1.757   2.923
 3552WAT     H110898   7.588   1.764   2.883
 3552WAT     H210899   7.745   1.802   2.863
 3553WAT      O10900   0.905   8.650   1.082
 3553WAT     H110901   0.885   8.638   1.179
 3553WAT     H210902   0.937   8.563   1.044
 3554WAT      O10903   1.731   8.652   7.513
 3554WAT     H110904   1.812   8.711   7.514
 3554WAT     H210905   1.759   8.557   7.508
 3555WAT      O10906   6.532   3.889   2.047
 3555WAT     H110907   6.433   3.880   2.055
 3555WAT     H210908   6.560   3.861   1.955
 3556WAT      O10909   8.048   7.785   3.252
 3556WAT     H110910   8.008   7.706   3.297
 3556WAT     H210911   7.978   7.854   3.235
 3557WAT      O10912   3.729   4.138   3.420
 3557WAT     H110913   3.771   4.207   3.361
 3557WAT     H210914   3.715   4.054   3.368
 3558WAT      O10915   6.875   8.727   7.409
 3558WAT     H110916   6.881   8.815   7.362
 3558WAT     H210917   6.929   8.659   7.360
 3559WAT      O10918   0.895   6.631   9.208
 3559WAT     H110919   0.846   6.573   9.273
 3559WAT     H210920   0.993   6.620   9.220
 3560WAT      O10921   9.759   8.839   0.801
 3560WAT     H110922   9.778   8.882   0.889
 3560WAT     H210923   9.677   8.880   0.761
 3561WAT      O10924   0.242   6.247   9.650
 3561WAT     H110925   0.273   6.239   9.745
 3561WAT     H210926   0.169   6.180   9.634
 3562WAT      O10927   8.981   0.564   2.912
 3562WAT     H110928   9.043   0.622   2.860
 3562WAT     H210929   9.034   0.495   2.961
 3563WAT      O10930   5.066   5.605   3.892
 3563WAT     H110931   5.071   5.618   3.793
 3563WAT     H210932   5.047   5.693   3.935
 3564WAT      O10933   6.858   4.630   8.161
 3564WAT     H110934   6.768   4.669   8.181
 3564WAT     H210935   6.921   4.655   8.234
 3565WAT      O10936   1.453   7.260   7.157
 3565WAT     H110937   1.398   7.334   7.121
 3565WAT     H210938   1.438   7.177   7.103
 3566WAT      O10939   1.281   4.633   1.345
 3566WAT     H110940   1.271   4.691   1.264
 3566WAT     H210941   1.289   4.692   1.426
 3567WAT      O10942   8.565   4.585   1.304
 3567WAT     H110943   8.511   4.575   1.220
 3567WAT     H210944   8.618   4.669   1.299
 3568WAT      O10945   7.712   5.274   0.328
 3568WAT     H110946   7.706   5.175   0.343
 3568WAT     H210947   7.625   5.316   0.354
 3569WAT      O10948   6.369   3.276   6.527
 3569WAT     H110949   6.313   3.193   6.524
 3569WAT     H210950   6.381   3.304   6.623
 3570WAT      O10951   4.229   8.174   2.737
 3570WAT     H110952   4.215   8.077   2.720
 3570WAT     H210953   4.294   8.211   2.670
 3571WAT      O10954   0.131   5.500   6.209
 3571WAT     H110955   0.172   5.575   6.157
 3571WAT     H210956   0.067   5.538   6.276
 3572WAT      O10957   5.374   5.943   7.989
 3572WAT     H110958   5.280   5.910   7.991
 3572WAT     H210959   5.398   5.970   7.896
 3573WAT      O10960   6.955   2.753   5.011
 3573WAT     H110961   6.894   2.754   4.931
 3573WAT     H210962   6.901   2.752   5.095
 3574WAT      O10963   9.510   4.908   1.705
 3574WAT     H110964   9.513   4.945   1.612
 3574WAT     H210965   9.558   4.970   1.767
 3575WAT      O10966   0.005   9.310   5.273
 3575WAT     H110967  -0.084   9.335   5.235
 3575WAT     H210968   0.021   9.361   5.358
 3576WAT      O10969   7.903   8.370   0.696
 3576WAT     H110970   7.973   8.389   0.626
 3576WAT     H210971   7.907   8.273   0.720
 3577WAT      O10972   7.517   4.450   8.881
 3577WAT     H110973   7.455   4.501   8.940
 3577WAT     H210974   7.595   4.417   8.935
 3578WAT      O10975   9.347   1.830   6.161
 3578WAT     H110976   9.441   1.832   6.127
 3578WAT     H210977   9.346   1.862   6.256
 3579WAT      O10978   5.070   5.987   6.985
 3579WAT     H110979   5.061   5.962   7.081
 3579WAT     H210980   5.005   6.060   6.963
 3580WAT      O10981   4.894   2.762   1.539
 3580WAT     H110982   4.842   2.683   1.505
 3580WAT     H210983   4.930   2.742   1.629
 3581WAT      O10984   7.486   6.782   0.032
 3581WAT     H110985   7.533   6.696   0.050
 3581WAT     H210986   7.540   6.837  -0.031
 3582WAT      O10987   7.560   7.912   9.660
 3582WAT     H110988   7.517   8.002   9.666
 3582WAT     H210989   7.642   7.919   9.602
 3583WAT      O10990   1.129   7.329   5.324
 3583WAT     H110991   1.156   7.421   5.292
 3583WAT     H210992   1.151   7.320   5.421
 3584WAT      O10993   2.501   4.761   2.169
 3584WAT     H110994   2.519   4.765   2.070
 3584WAT     H210995   2.403   4.772   2.186
 3585WAT      O10996   7.734   1.846   7.197
 3585WAT     H110997   7.701   1.923   7.141
 3585WAT     H210998   7.734   1.873   7.293
 3586WAT      O10999   3.547   4.873   7.858
 3586WAT     H111000   3.571   4.874   7.955
 3586WAT     H211001   3.458   4.828   7.846
 3587WAT      O11002   1.357   1.525   1.877
 3587WAT     H111003   1.457   1.518   1.876
 3587WAT     H211004   1.318   1.446   1.924
 3588WAT      O11005   4.073   6.787   6.916
 3588WAT     H111006   4.159   6.736   6.916
 3588WAT     H211007   4.061   6.832   7.004
 3589WAT      O11008   0.461   1.762   3.148
 3589WAT     H111009   0.462   1.677   3.200
 3589WAT     H211010   0.440   1.839   3.210
 3590WAT      O11011   8.358   0.399   2.248
 3590WAT     H111012   8.330   0.316   2.298
 3590WAT     H211013   8.277   0.443   2.210
 3591WAT      O11014   5.109   7.993   1.072
 3591WAT     H111015   5.151   8.071   1.119
 3591WAT     H211016   5.040   7.952   1.132
 3592WAT      O11017   1.566   4.980   9.703
 3592WAT     H111018   1.515   4.926   9.636
 3592WAT     H211019   1.542   4.950   9.795
 3593WAT      O11020   3.686   4.427   6.183
 3593WAT     H111021   3.601   4.461   6.142
 3593WAT     H211022   3.743   4.385   6.113
 3594WAT      O11023   0.586   9.560   5.877
 3594WAT     H111024   0.501   9.508   5.871
 3594WAT     H211025   0.591   9.607   5.966
 3595WAT      O11026   4.614   1.234   2.396
 3595WAT     H111027   4.530   1.189   2.366
 3595WAT     H211028   4.683   1.230   2.323
 3596WAT      O11029   5.254   9.061   1.999
 3596WAT     H111030   5.231   8.972   2.038
 3596WAT     H211031   5.229   9.133   2.063
 3597WAT      O11032   8.235   9.420   2.633
 3597WAT     H111033   8.255   9.494   2.569
 3597WAT     H211034   8.313   9.406   2.694
 3598WAT      O11035   4.006   5.700   8.647
 3598WAT     H111036   4.075   5.736   8.708
 3598WAT     H211037   3.934   5.655   8.700
 3599WAT      O11038   5.663   3.265   8.257
 3599WAT     H111039   5.741   3.322   8.281
 3599WAT     H211040   5.634   3.213   8.337
 3600WAT      O11041   2.913   1.739   9.177
 3600WAT     H111042   2.928   1.697   9.267
 3600WAT     H211043   2.958   1.828   9.174
 3601WAT      O11044   9.281   1.013   3.840
 3601WAT     H111045   9.187   1.037   3.816
 3601WAT     H211046   9.344   1.061   3.779
 3602WAT      O11047   4.739   2.427   3.887
 3602WAT     H111048   4.710   2.520   3.864
 3602WAT     H211049   4.661   2.365   3.881
 3603WAT      O11050   9.466   6.177   7.848
 3603WAT     H111051   9.461   6.092   7.796
 3603WAT     H211052   9.522   6.244   7.799
 3604WAT      O11053   3.540   4.187   0.167
 3604WAT     H111054   3.480   4.227   0.237
 3604WAT     H211055   3.608   4.254   0.140
 3605WAT      O11056   7.034   1.455   0.884
 3605WAT     H111057   7.109   1.425   0.826
 3605WAT     H211058   7.069   1.478   0.975
 3606WAT      O11059   2.577   1.227   3.824
 3606WAT     H111060   2.501   1.259   3.880
 3606WAT     H211061   2.562   1.255   3.729
 3607WAT      O11062   6.496   5.302   4.901
 3607WAT     H111063   6.423   5.352   4.855
 3607WAT     H211064   6.579   5.358   4.902
 3608WAT      O11065   6.815   6.769   9.457
 3608WAT     H111066   6.739   6.816   9.412
 3608WAT     H211067   6.826   6.804   9.550
 3609WAT      O11068   7.708   0.639   7.374
 3609WAT     H111069   7.682   0.571   7.443
 3609WAT     H211070   7.626   0.683   7.338
 3610WAT      O11071   1.880   7.441   2.975
 3610WAT     H111072   1.871   7.509   3.048
 3610WAT     H211073   1.967   7.455   2.928
 3611WAT      O11074   6.177   1.751   5.894
 3611WAT     H111075   6.231   1.751   5.978
 3611WAT     H211076   6.234   1.725   5.816
 3612WAT      O11077   4.350   5.794   7.309
 3612WAT     H111078   4.341   5.860   7.383
 3612WAT     H211079   4.384   5.707   7.345
 3613WAT      O11080   3.687   0.476   1.501
 3613WAT     H111081   3.706   0.455   1.405
 3613WAT     H211082   3.676   0.390   1.552
 3614WAT      O11083   9.000   2.374   1.485
 3614WAT     H111084   9.025   2.293   1.538
 3614WAT     H211085   8.980   2.348   1.391
 3615WAT      O11086   6.586   4.617   2.103
 3615WAT     H111087   6.658   4.663   2.155
 3615WAT     H211088   6.599   4.518   2.109
 3616WAT      O11089   3.504   2.589   9.709
 3616WAT     H111090   3.542   2.651   9.640
 3616WAT     H211091   3.429   2.635   9.756
 3617WAT      O11092   8.983   9.403   8.722
 3617WAT     H111093   9.056   9.454   8.768
 3617WAT     H211094   8.894   9.437   8.754
 3618WAT      O11095   3.988   3.749   0.465
 3618WAT     H111096   3.969   3.682   0.393
 3618WAT     H211097   4.086   3.748   0.487
 3619WAT      O11098   1.835   5.506   1.902
 3619WAT     H111099   1.794   5.597   1.894
 3619WAT     H211100   1.933   5.512   1.882
 3620WAT      O11101   8.691   2.528   1.264
 3620WAT     H111102   8.657   2.502   1.354
 3620WAT     H211103   8.614   2.556   1.206
 3621WAT      O11104   2.906   1.960   8.032
 3621WAT     H111105   2.898   1.868   7.995
 3621WAT     H211106   2.873   1.961   8.126
 3622WAT      O11107   9.410   0.166   4.055
 3622WAT     H111108   9.348   0.088   4.038
 3622WAT     H211109   9.419   0.219   3.971
 3623WAT      O11110   0.867   6.855   5.860
 3623WAT     H111111   0.920   6.916   5.802
 3623WAT     H211112   0.900   6.861   5.954
 3624WAT      O11113   4.783   8.763   0.908
 3624WAT     H111114   4.833   8.704   0.971
 3624WAT     H211115   4.766   8.714   0.822
 3625WAT      O11116   3.807   7.777   2.659
 3625WAT     H111117   3.786   7.820   2.747
 3625WAT     H211118   3.836   7.847   2.593
 3626WAT      O11119   2.935   6.881   3.718
 3626WAT     H111120   2.881   6.869   3.802
 3626WAT     H211121   2.880   6.929   3.650
 3627WAT      O11122   0.622   1.404   8.116
 3627WAT     H111123   0.667   1.493   8.120
 3627WAT     H211124   0.689   1.333   8.098
 3628WAT      O11125   4.510   4.019   7.952
 3628WAT     H111126   4.544   4.106   7.918
 3628WAT     H211127   4.531   4.010   8.049
 3629WAT      O11128   9.844   4.534   7.061
 3629WAT     H111129   9.925   4.569   7.107
 3629WAT     H211130   9.819   4.445   7.100
 3630WAT      O11131   2.940   6.458   3.830
 3630WAT     H111132   2.947   6.363   3.800
 3630WAT     H211133   3.031   6.494   3.850
 3631WAT      O11134   7.998   0.312   2.321
 3631WAT     H111135   8.080   0.254   2.324
 3631WAT     H211136   7.971   0.337   2.414
 3632WAT      O11137   1.943   5.491   1.548
 3632WAT     H111138   2.020   5.432   1.572
 3632WAT     H211139   1.961   5.585   1.579
 3633WAT      O11140   2.470   3.415   7.965
 3633WAT     H111141   2.372   3.396   7.972
 3633WAT     H211142   2.521   3.329   7.972
 3634WAT      O11143   5.785   4.874   9.392
 3634WAT     H111144   5.755   4.955   9.342
 3634WAT     H211145   5.876   4.891   9.429
 3635WAT      O11146   3.530   5.903   6.576
 3635WAT     H111147   3.582   5.861   6.501
 3635WAT     H211148   3.588   5.967   6.626
 3636WAT      O11149   6.721   0.661   7.027
 3636WAT     H111150   6.805   0.611   7.006
 3636WAT     H211151   6.674   0.616   7.103
 3637WAT      O11152   7.660   5.962   5.042
 3637WAT     H111153   7.735   5.996   5.099
 3637WAT     H211154   7.619   5.882   5.087
 3638WAT      O11155   8.742   0.661   6.084
 3638WAT     H111156   8.703   0.753   6.087
 3638WAT     H211157   8.769   0.639   5.990
 3639WAT      O11158   2.238   3.298   7.123
 3639WAT     H111159   2.239   3.205   7.086
 3639WAT     H211160   2.331   3.334   7.125
 3640WAT      O11161   7.886   0.710   6.401
 3640WAT     H111162   7.789   0.699   6.422
 3640WAT     H211163   7.941   0.675   6.477
 3641WAT      O11164   9.190   2.425   0.708
 3641WAT     H111165   9.183   2.502   0.645
 3641WAT     H211166   9.264   2.364   0.677
 3642WAT      O11167   4.429   5.224   4.637
 3642WAT     H111168   4.500   5.183   4.694
 3642WAT     H211169   4.417   5.170   4.553
 3643WAT      O11170   5.209   1.305   0.352
 3643WAT     H111171   5.109   1.295   0.349
 3643WAT     H211172   5.250   1.220   0.384
 3644WAT      O11173   5.180   4.559   0.615
 3644WAT     H111174   5.212   4.589   0.705
 3644WAT     H211175   5.252   4.573   0.548
 3645WAT      O11176   5.547   7.877   1.031
 3645WAT     H111177   5.463   7.827   1.051
 3645WAT     H211178   5.621   7.812   1.011
 3646WAT      O11179   1.620   4.777   3.993
 3646WAT     H111180   1.575   4.751   3.908
 3646WAT     H211181   1.639   4.876   3.992
 3647WAT      O11182   1.972   2.498   9.038
 3647WAT     H111183   2.006   2.454   9.121
 3647WAT     H211184   1.948   2.593   9.059
 3648WAT      O11185   0.866   2.628   9.017
 3648WAT     H111186   0.802   2.571   8.966
 3648WAT     H211187   0.928   2.570   9.070
 3649WAT      O11188   8.040   6.528   4.381
 3649WAT     H111189   7.967   6.527   4.450
 3649WAT     H211190   8.080   6.619   4.375
 3650WAT      O11191   7.105   3.293   5.160
 3650WAT     H111192   7.079   3.200   5.133
 3650WAT     H211193   7.040   3.358   5.121
 3651WAT      O11194   5.527   9.646   2.010
 3651WAT     H111195   5.531   9.631   2.109
 3651WAT     H211196   5.452   9.708   1.989
 3652WAT      O11197   5.852   4.128   1.487
 3652WAT     H111198   5.815   4.038   1.467
 3652WAT     H211199   5.942   4.118   1.530
 3653WAT      O11200   4.229   6.781   4.986
 3653WAT     H111201   4.280   6.731   4.915
 3653WAT     H211202   4.293   6.830   5.044
 3654WAT      O11203   5.751   2.339   3.011
 3654WAT     H111204   5.766   2.434   3.036
 3654WAT     H211205   5.814   2.314   2.938
 3655WAT      O11206   4.908   2.100   8.694
 3655WAT     H111207   4.975   2.175   8.688
 3655WAT     H211208   4.955   2.013   8.680
 3656WAT      O11209   3.278   7.914   3.170
 3656WAT     H111210   3.201   7.855   3.193
 3656WAT     H211211   3.324   7.942   3.255
 3657WAT      O11212   7.335   2.943   5.103
 3657WAT     H111213   7.391   2.887   5.164
 3657WAT     H211214   7.252   2.971   5.152
 3658WAT      O11215   0.595   7.708   5.625
 3658WAT     H111216   0.635   7.772   5.560
 3658WAT     H211217   0.501   7.687   5.597
 3659WAT      O11218   3.125   5.713   1.489
 3659WAT     H111219   3.112   5.696   1.587
 3659WAT     H211220   3.186   5.791   1.477
 3660WAT      O11221   1.274   5.585   1.077
 3660WAT     H111222   1.254   5.633   1.162
 3660WAT     H211223   1.349   5.520   1.092
 3661WAT      O11224   3.990   7.412   1.112
 3661WAT     H111225   4.027   7.370   1.029
 3661WAT     H211226   4.031   7.502   1.125
 3662WAT      O11227   8.100   1.019   6.771
 3662WAT     H111228   8.026   1.029   6.705
 3662WAT     H211229   8.175   0.966   6.731
 3663WAT      O11230   1.435   8.062   2.107
 3663WAT     H111231   1.389   7.984   2.150
 3663WAT     H211232   1.517   8.030   2.059
 3664WAT      O11233   5.231   3.111   0.420
 3664WAT     H111234   5.272   3.139   0.507
 3664WAT     H211235   5.185   3.189   0.378
 3665WAT      O11236   4.608   4.673   1.855
 3665WAT     H111237   4.666   4.599   1.820
 3665WAT     H211238   4.632   4.758   1.809
 3666WAT      O11239   6.535   6.272   6.228
 3666WAT     H111240   6.562   6.198   6.289
 3666WAT     H211241   6.530   6.358   6.280
 3667WAT      O11242   5.509   6.563   9.505
 3667WAT     H111243   5.580   6.576   9.436
 3667WAT     H211244   5.485   6.651   9.545
 3668WAT      O11245   1.039   3.931   0.855
 3668WAT     H111246   1.065   3.992   0.930
 3668WAT     H211247   1.074   3.967   0.769
 3669WAT      O11248   8.857   2.991   3.894
 3669WAT     H111249   8.825   2.977   3.801
 3669WAT     H211250   8.838   2.909   3.949
 3670WAT      O11251   0.203   8.664   0.179
 3670WAT     H111252   0.118   8.648   0.129
 3670WAT     H211253   0.231   8.580   0.224
 3671WAT      O11254   1.676   1.480   2.968
 3671WAT     H111255   1.644   1.490   3.062
 3671WAT     H211256   1.606   1.434   2.914
 3672WAT      O11257   5.714   2.941   1.341
 3672WAT     H111258   5.787   2.953   1.409
 3672WAT     H211259   5.628   2.919   1.388
 3673WAT      O11260   4.382   5.161   4.189
 3673WAT     H111261   4.385   5.142   4.287
 3673WAT     H211262   4.301   5.217   4.169
 3674WAT      O11263   1.319   5.426   5.480
 3674WAT     H111264   1.389   5.362   5.513
 3674WAT     H211265   1.253   5.443   5.553
 3675WAT      O11266   9.656   9.026   4.927
 3675WAT     H111267   9.619   8.944   4.883
 3675WAT     H211268   9.751   9.011   4.953
 3676WAT      O11269   2.356   1.005   7.085
 3676WAT     H111270   2.344   1.102   7.103
 3676WAT     H211271   2.314   0.951   7.158
 3677WAT      O11272   7.202   9.452   0.912
 3677WAT     H111273   7.142   9.526   0.882
 3677WAT     H211274   7.236   9.471   1.003
 3678WAT      O11275   0.892   6.645   8.940
 3678WAT     H111276   0.828   6.606   8.873
 3678WAT     H211277   0.877   6.603   9.029
 3679WAT      O11278   8.183   6.420   2.327
 3679WAT     H111279   8.098   6.397   2.374
 3679WAT     H211280   8.227   6.336   2.296
 3680WAT      O11281   2.123   9.607   8.259
 3680WAT     H111282   2.034   9.651   8.270
 3680WAT     H211283   2.141   9.549   8.338
 3681WAT      O11284   4.927   3.461   6.066
 3681WAT     H111285   4.921   3.555   6.034
 3681WAT     H211286   4.840   3.434   6.107
 3682WAT      O11287   6.068   6.747   2.555
 3682WAT     H111288   6.078   6.665   2.613
 3682WAT     H211289   6.083   6.828   2.611
 3683WAT      O11290   5.906   5.639   6.135
 3683WAT     H111291   5.858   5.677   6.213
 3683WAT     H211292   5.909   5.706   6.061
 3684WAT      O11293   9.490   5.430   4.319
 3684WAT     H111294   9.544   5.408   4.400
 3684WAT     H211295   9.508   5.525   4.292
 3685WAT      O11296   9.483   4.120   0.460
 3685WAT     H111297   9.410   4.177   0.421
 3685WAT     H211298   9.458   4.094   0.553
 3686WAT      O11299   9.229   7.542   2.470
 3686WAT     H111300   9.166   7.485   2.417
 3686WAT     H211301   9.321   7.537   2.431
 3687WAT      O11302   6.141   8.821   8.943
 3687WAT     H111303   6.085   8.763   8.884
 3687WAT     H211304   6.235   8.788   8.943
 3688WAT      O11305   2.984   1.770   4.979
 3688WAT     H111306   2.901   1.726   4.945
 3688WAT     H211307   3.060   1.752   4.917
 3689WAT      O11308   5.965   9.013   4.463
 3689WAT     H111309   5.949   8.917   4.485
 3689WAT     H211310   5.930   9.070   4.537
 3690WAT      O11311   6.579   0.239   5.155
 3690WAT     H111312   6.528   0.154   5.143
 3690WAT     H211313   6.569   0.270   5.250
 3691WAT      O11314   9.869   4.268   2.140
 3691WAT     H111315   9.910   4.202   2.078
 3691WAT     H211316   9.940   4.328   2.177
 3692WAT      O11317   6.444   0.178   2.742
 3692WAT     H111318   6.436   0.085   2.778
 3692WAT     H211319   6.418   0.178   2.645
 3693WAT      O11320   0.496   2.283   0.691
 3693WAT     H111321   0.526   2.201   0.643
 3693WAT     H211322   0.573   2.347   0.700
 3694WAT      O11323   6.814   7.407   6.283
 3694WAT     H111324   6.890   7.418   6.218
 3694WAT     H211325   6.842   7.443   6.372
 3695WAT      O11326   7.710   7.510   3.595
 3695WAT     H111327   7.644   7.441   3.625
 3695WAT     H211328   7.770   7.534   3.671
 3696WAT      O11329   9.640   1.833   9.858
 3696WAT     H111330   9.686   1.789   9.936
 3696WAT     H211331   9.544   1.805   9.857
 3697WAT      O11332   8.852   8.702   7.888
 3697WAT     H111333   8.884   8.608   7.873
 3697WAT     H211334   8.847   8.719   7.986
 3698WAT      O11335   4.261   4.824   5.222
 3698WAT     H111336   4.261   4.867   5.133
 3698WAT     H211337   4.170   4.789   5.243
 3699WAT      O11338   4.874   2.875   6.087
 3699WAT     H111339   4.971   2.852   6.089
 3699WAT     H211340   4.839   2.866   5.993
 3700WAT      O11341   6.574   2.943   1.308
 3700WAT     H111342   6.487   2.896   1.322
 3700WAT     H211343   6.645   2.877   1.283
 3701WAT      O11344   6.144   1.791   1.541
 3701WAT     H111345   6.183   1.701   1.519
 3701WAT     H211346   6.055   1.800   1.496
 3702WAT      O11347   5.020   8.888   8.606
 3702WAT     H111348   5.090   8.818   8.619
 3702WAT     H211349   5.051   8.953   8.536
 3703WAT      O11350   8.807   8.544   6.272
 3703WAT     H111351   8.839   8.503   6.186
 3703WAT     H211352   8.879   8.538   6.341
 3704WAT      O11353   7.996   6.857   5.949
 3704WAT     H111354   7.917   6.910   5.918
 3704WAT     H211355   7.977   6.819   6.039
 3705WAT      O11356   2.525   0.433   8.692
 3705WAT     H111357   2.597   0.389   8.640
 3705WAT     H211358   2.520   0.394   8.784
 3706WAT      O11359   7.374   6.863   8.443
 3706WAT     H111360   7.327   6.912   8.517
 3706WAT     H211361   7.445   6.804   8.482
 3707WAT      O11362   0.203   2.380   5.472
 3707WAT     H111363   0.255   2.348   5.551
 3707WAT     H211364   0.191   2.305   5.407
 3708WAT      O11365   5.385   9.097   9.642
 3708WAT     H111366   5.329   9.067   9.565
 3708WAT     H211367   5.326   9.110   9.722
 3709WAT      O11368   3.615   7.421   9.537
 3709WAT     H111369   3.664   7.343   9.498
 3709WAT     H211370   3.677   7.475   9.593
 3710WAT      O11371   4.795   3.252   3.476
 3710WAT     H111372   4.778   3.173   3.535
 3710WAT     H211373   4.764   3.335   3.522
 3711WAT      O11374   1.199   6.471   1.773
 3711WAT     H111375   1.117   6.413   1.776
 3711WAT     H211376   1.199   6.533   1.851
 3712WAT      O11377   8.051   8.438   5.496
 3712WAT     H111378   7.959   8.406   5.475
 3712WAT     H211379   8.118   8.368   5.468
 3713WAT      O11380   7.481   4.088   4.959
 3713WAT     H111381   7.514   4.021   4.892
 3713WAT     H211382   7.503   4.056   5.052
 3714WAT      O11383   5.615   5.520   2.882
 3714WAT     H111384   5.579   5.580   2.811
 3714WAT     H211385   5.602   5.563   2.972
 3715WAT      O11386   0.173   0.913   2.234
 3715WAT     H111387   0.148   0.935   2.328
 3715WAT     H211388   0.253   0.968   2.207
 3716WAT      O11389   5.546   9.595   2.285
 3716WAT     H111390   5.611   9.558   2.351
 3716WAT     H211391   5.467   9.533   2.278
 3717WAT      O11392   4.486   9.673   5.358
 3717WAT     H111393   4.456   9.581   5.383
 3717WAT     H211394   4.548   9.668   5.280
 3718WAT      O11395   2.684   2.885   9.442
 3718WAT     H111396   2.670   2.800   9.392
 3718WAT     H211397   2.651   2.875   9.536
 3719WAT      O11398   9.854   4.570   4.644
 3719WAT     H111399   9.909   4.556   4.562
 3719WAT     H211400   9.903   4.629   4.708
 3720WAT      O11401   3.247   6.653   8.734
 3720WAT     H111402   3.265   6.727   8.799
 3720WAT     H211403   3.297   6.671   8.649
 3721WAT      O11404   1.486   5.709   3.477
 3721WAT     H111405   1.430   5.790   3.495
 3721WAT     H211406   1.582   5.730   3.493
 3722WAT      O11407   1.642   3.217   6.044
 3722WAT     H111408   1.739   3.219   6.065
 3722WAT     H211409   1.601   3.135   6.086
 3723WAT      O11410   6.404   0.133   8.197
 3723WAT     H111411   6.359   0.139   8.108
 3723WAT     H211412   6.455   0.047   8.204
 3724WAT      O11413   8.438   2.687   1.116
 3724WAT     H111414   8.374   2.633   1.062
 3724WAT     H211415   8.398   2.705   1.206
 3725WAT      O11416   0.956   0.209   2.884
 3725WAT     H111417   0.940   0.287   2.945
 3725WAT     H211418   0.942   0.238   2.789
 3726WAT      O11419   0.537   7.441   9.730
 3726WAT     H111420   0.443   7.446   9.696
 3726WAT     H211421   0.595   7.505   9.679
 3727WAT      O11422   9.085   4.000   6.903
 3727WAT     H111423   9.122   3.979   6.994
 3727WAT     H211424   9.160   4.019   6.840
 3728WAT      O11425   8.481   8.359   6.580
 3728WAT     H111426   8.537   8.410   6.645
 3728WAT     H211427   8.520   8.370   6.488
 3729WAT      O11428   3.343   2.613   1.984
 3729WAT     H111429   3.256   2.578   1.949
 3729WAT     H211430   3.337   2.626   2.083
 3730WAT      O11431   0.610   4.947   3.200
 3730WAT     H111432   0.625   4.848   3.197
 3730WAT     H211433   0.571   4.972   3.289
 3731WAT      O11434   0.513   8.104   2.542
 3731WAT     H111435   0.519   8.194   2.499
 3731WAT     H211436   0.477   8.038   2.477
 3732WAT      O11437   4.465   8.915   1.442
 3732WAT     H111438   4.414   8.965   1.512
 3732WAT     H211439   4.472   8.970   1.359
 3733WAT      O11440   0.760   5.415   0.482
 3733WAT     H111441   0.723   5.436   0.392
 3733WAT     H211442   0.758   5.316   0.497
 3734WAT      O11443   0.373   7.611   7.028
 3734WAT     H111444   0.444   7.675   7.057
 3734WAT     H211445   0.308   7.659   6.969
 3735WAT      O11446   3.585   9.710   2.724
 3735WAT     H111447   3.587   9.796   2.775
 3735WAT     H211448   3.674   9.695   2.680
 3736WAT      O11449   0.797   5.900   3.626
 3736WAT     H111450   0.827   5.994   3.608
 3736WAT     H211451   0.791   5.850   3.540
 3737WAT      O11452   3.636   1.657   9.449
 3737WAT     H111453   3.588   1.722   9.391
 3737WAT     H211454   3.570   1.603   9.501
 3738WAT      O11455   9.640   7.275   2.459
 3738WAT     H111456   9.664   7.372   2.467
 3738WAT     H211457   9.584   7.261   2.377
 3739WAT      O11458   8.601   9.543   3.832
 3739WAT     H111459   8.649   9.602   3.897
 3739WAT     H211460   8.507   9.528   3.863
 3740WAT      O11461   8.465   3.730   3.150
 3740WAT     H111462   8.418   3.643   3.134
 3740WAT     H211463   8.514   3.756   3.067
 3741WAT      O11464   2.494   5.468   3.575
 3741WAT     H111465   2.472   5.451   3.479
 3741WAT     H211466   2.560   5.400   3.607
 3742WAT      O11467   7.903   9.479   3.820
 3742WAT     H111468   7.851   9.554   3.778
 3742WAT     H211469   7.996   9.478   3.783
 3743WAT      O11470   2.052   8.406   3.391
 3743WAT     H111471   1.992   8.486   3.394
 3743WAT     H211472   1.997   8.323   3.381
 3744WAT      O11473   5.204   6.345   2.677
 3744WAT     H111474   5.153   6.282   2.735
 3744WAT     H211475   5.194   6.319   2.581
 3745WAT      O11476   2.070   4.072   3.126
 3745WAT     H111477   2.048   4.040   3.034
 3745WAT     H211478   2.165   4.050   3.149
 3746WAT      O11479   0.265   4.024   6.631
 3746WAT     H111480   0.206   4.010   6.711
 3746WAT     H211481   0.322   3.943   6.617
 3747WAT      O11482   6.432   8.940   9.149
 3747WAT     H111483   6.417   8.850   9.189
 3747WAT     H211484   6.378   9.008   9.199
 3748WAT      O11485   2.627   2.838   3.242
 3748WAT     H111486   2.544   2.892   3.259
 3748WAT     H211487   2.665   2.808   3.329
 3749WAT      O11488   6.668   1.057   7.625
 3749WAT     H111489   6.570   1.074   7.611
 3749WAT     H211490   6.689   1.060   7.723
 3750WAT      O11491   0.537   3.934   5.658
 3750WAT     H111492   0.461   3.967   5.601
 3750WAT     H211493   0.600   4.010   5.677
 3751WAT      O11494   2.640   6.994   1.894
 3751WAT     H111495   2.718   7.028   1.842
 3751WAT     H211496   2.606   6.910   1.852
 3752WAT      O11497   3.511   6.456   4.267
 3752WAT     H111498   3.461   6.377   4.230
 3752WAT     H211499   3.609   6.438   4.263
 3753WAT      O11500   8.052   5.812   7.245
 3753WAT     H111501   7.988   5.886   7.230
 3753WAT     H211502   8.144   5.849   7.261
 3754WAT      O11503   8.163   1.886   8.869
 3754WAT     H111504   8.134   1.929   8.954
 3754WAT     H211505   8.084   1.873   8.809
 3755WAT      O11506   9.089   6.000   5.230
 3755WAT     H111507   9.121   6.093   5.214
 3755WAT     H211508   9.060   5.990   5.325
 3756WAT      O11509   2.804   2.944   1.487
 3756WAT     H111510   2.873   2.983   1.426
 3756WAT     H211511   2.770   3.015   1.548
 3757WAT      O11512   2.455   9.086   8.227
 3757WAT     H111513   2.429   9.116   8.135
 3757WAT     H211514   2.499   8.996   8.222
 3758WAT      O11515   9.325   4.788   9.235
 3758WAT     H111516   9.399   4.851   9.258
 3758WAT     H211517   9.318   4.719   9.306
 3759WAT      O11518   3.603   7.907   8.728
 3759WAT     H111519   3.569   7.991   8.687
 3759WAT     H211520   3.688   7.926   8.777
 3760WAT      O11521   9.440   3.477   6.374
 3760WAT     H111522   9.494   3.557   6.348
 3760WAT     H211523   9.477   3.395   6.329
 3761WAT      O11524   2.204   0.978   9.695
 3761WAT     H111525   2.284   1.019   9.740
 3761WAT     H211526   2.186   1.025   9.609
 3762WAT      O11527   0.028   4.268   8.850
 3762WAT     H111528  -0.049   4.330   8.839
 3762WAT     H211529   0.094   4.282   8.776
 3763WAT      O11530   2.024   2.831   2.159
 3763WAT     H111531   2.057   2.922   2.131
 3763WAT     H211532   2.000   2.778   2.078
 3764WAT      O11533   0.239   1.720   5.126
 3764WAT     H111534   0.271   1.789   5.192
 3764WAT     H211535   0.259   1.752   5.033
 3765WAT      O11536   3.973   3.363   1.327
 3765WAT     H111537   4.050   3.426   1.335
 3765WAT     H211538   3.959   3.339   1.231
 3766WAT      O11539   1.834   7.806   1.838
 3766WAT     H111540   1.755   7.847   1.883
 3766WAT     H211541   1.913   7.809   1.899
 3767WAT      O11542   5.937   3.388   6.749
 3767WAT     H111543   5.933   3.370   6.650
 3767WAT     H211544   6.027   3.427   6.771
 3768WAT      O11545   2.279   2.788   1.427
 3768WAT     H111546   2.252   2.708   1.481
 3768WAT     H211547   2.294   2.762   1.332
 3769WAT      O11548   7.252   2.785   7.026
 3769WAT     H111549   7.180   2.839   7.070
 3769WAT     H211550   7.240   2.788   6.927
 3770WAT      O11551   4.171   6.190   7.423
 3770WAT     H111552   4.224   6.109   7.450
 3770WAT     H211553   4.088   6.195   7.478
 3771WAT      O11554   6.752   3.832   8.383
 3771WAT     H111555   6.789   3.890   8.456
 3771WAT     H211556   6.827   3.800   8.326
 3772WAT      O11557   0.518   4.252   4.004
 3772WAT     H111558   0.550   4.344   3.982
 3772WAT     H211559   0.535   4.191   3.926
 3773WAT      O11560   8.557   8.149   3.780
 3773WAT     H111561   8.465   8.122   3.809
 3773WAT     H211562   8.621   8.138   3.855
 3774WAT      O11563   3.326   7.989   3.916
 3774WAT     H111564   3.227   8.005   3.917
 3774WAT     H211565   3.351   7.941   3.832
 3775WAT      O11566   6.080   7.086   0.820
 3775WAT     H111567   6.137   7.168   0.809
 3775WAT     H211568   6.132   7.006   0.791
 3776WAT      O11569   4.827   0.621   0.479
 3776WAT     H111570   4.855   0.688   0.549
 3776WAT     H211571   4.877   0.639   0.394
 3777WAT      O11572   3.294   5.448   4.947
 3777WAT     H111573   3.387   5.482   4.931
 3777WAT     H211574   3.271   5.458   5.044
 3778WAT      O11575   7.456   1.486   4.163
 3778WAT     H111576   7.474   1.406   4.106
 3778WAT     H211577   7.358   1.503   4.168
 3779WAT      O11578   1.977   4.758   4.733
 3779WAT     H111579   2.067   4.795   4.756
 3779WAT     H211580   1.911   4.787   4.803
 3780WAT      O11581   3.599   1.716   5.981
 3780WAT     H111582   3.528   1.675   6.038
 3780WAT     H211583   3.641   1.646   5.924
 3781WAT      O11584   5.371   7.651   0.017
 3781WAT     H111585   5.281   7.694   0.025
 3781WAT     H211586   5.437   7.702   0.072
 3782WAT      O11587   2.574   5.496   4.965
 3782WAT     H111588   2.511   5.571   4.985
 3782WAT     H211589   2.592   5.493   4.867
 3783WAT      O11590   0.550   2.412   7.432
 3783WAT     H111591   0.468   2.380   7.479
 3783WAT     H211592   0.567   2.508   7.455
 3784WAT      O11593   5.480   2.536   8.808
 3784WAT     H111594   5.504   2.574   8.718
 3784WAT     H211595   5.488   2.437   8.805
 3785WAT      O11596   3.277   2.663   2.781
 3785WAT     H111597   3.324   2.747   2.809
 3785WAT     H211598   3.289   2.649   2.683
 3786WAT      O11599   0.643   8.783   3.418
 3786WAT     H111600   0.639   8.880   3.440
 3786WAT     H211601   0.632   8.771   3.319
 3787WAT      O11602   1.349   0.007   8.944
 3787WAT     H111603   1.251   0.020   8.960
 3787WAT     H211604   1.377  -0.084   8.977
 3788WAT      O11605   6.340   3.937   3.233
 3788WAT     H111606   6.421   3.985   3.265
 3788WAT     H211607   6.319   3.861   3.295
 3789WAT      O11608   5.868   1.219   2.579
 3789WAT     H111609   5.807   1.283   2.532
 3789WAT     H211610   5.831   1.126   2.571
 3790WAT      O11611   4.639   3.511   1.078
 3790WAT     H111612   4.652   3.413   1.087
 3790WAT     H211613   4.697   3.547   1.005
 3791WAT      O11614   7.417   4.670   0.107
 3791WAT     H111615   7.322   4.641   0.121
 3791WAT     H211616   7.478   4.593   0.123
 3792WAT      O11617   2.131   7.896   7.509
 3792WAT     H111618   2.104   7.801   7.524
 3792WAT     H211619   2.231   7.903   7.513
 3793WAT      O11620   4.529   0.490   2.726
 3793WAT     H111621   4.448   0.464   2.673
 3793WAT     H211622   4.509   0.572   2.780
 3794WAT      O11623   7.398   6.922   9.523
 3794WAT     H111624   7.493   6.904   9.545
 3794WAT     H211625   7.339   6.881   9.593
 3795WAT      O11626   0.574   6.106   9.442
 3795WAT     H111627   0.510   6.181   9.426
 3795WAT     H211628   0.662   6.128   9.401
 3796WAT      O11629   4.152   5.017   4.626
 3796WAT     H111630   4.195   5.047   4.711
 3796WAT     H211631   4.074   5.076   4.606
 3797WAT      O11632   3.238   1.021   1.126
 3797WAT     H111633   3.299   1.099   1.112
 3797WAT     H211634   3.159   1.029   1.066
 3798WAT      O11635   7.204   6.807   0.921
 3798WAT     H111636   7.212   6.844   1.014
 3798WAT     H211637   7.231   6.711   0.920
 3799WAT      O11638   1.148   9.353   6.850
 3799WAT     H111639   1.055   9.317   6.852
 3799WAT     H211640   1.154   9.428   6.785
 3800WAT      O11641   6.964   8.406   0.236
 3800WAT     H111642   7.048   8.355   0.217
 3800WAT     H211643   6.954   8.418   0.335
 3801WAT      O11644   0.424   6.020   6.265
 3801WAT     H111645   0.449   6.018   6.362
 3801WAT     H211646   0.497   6.064   6.213
 3802WAT      O11647   5.365   7.158   7.753
 3802WAT     H111648   5.391   7.076   7.805
 3802WAT     H211649   5.316   7.130   7.671
 3803WAT      O11650   3.533   0.393   2.852
 3803WAT     H111651   3.605   0.452   2.889
 3803WAT     H211652   3.509   0.423   2.760
 3804WAT      O11653   3.163   0.297   9.863
 3804WAT     H111654   3.099   0.356   9.813
 3804WAT     H211655   3.256   0.313   9.829
 3805WAT      O11656   0.154   2.100   4.468
 3805WAT     H111657   0.223   2.034   4.437
 3805WAT     H211658   0.195   2.161   4.537
 3806WAT      O11659   6.100   6.833   3.788
 3806WAT     H111660   6.147   6.819   3.875
 3806WAT     H211661   6.158   6.803   3.712
 3807WAT      O11662   6.772   8.665   2.007
 3807WAT     H111663   6.715   8.732   1.960
 3807WAT     H211664   6.713   8.602   2.059
 3808WAT      O11665   0.730   1.847   4.813
 3808WAT     H111666   0.801   1.786   4.849
 3808WAT     H211667   0.662   1.864   4.884
 3809WAT      O11668   6.800   2.558   7.995
 3809WAT     H111669   6.886   2.588   7.954
 3809WAT     H211670   6.734   2.538   7.923
 3810WAT      O11671   5.623   0.214   0.061
 3810WAT     H111672   5.686   0.291   0.074
 3810WAT     H211673   5.535   0.235   0.102
 3811WAT      O11674   5.907   5.437   5.797
 3811WAT     H111675   5.835   5.506   5.797
 3811WAT     H211676   5.978   5.462   5.863
 3812WAT      O11677   7.142   0.127   8.705
 3812WAT     H111678   7.143   0.035   8.668
 3812WAT     H211679   7.048   0.161   8.711
 3813WAT      O11680   5.692   7.873   8.248
 3813WAT     H111681   5.678   7.969   8.271
 3813WAT     H211682   5.611   7.820   8.274
 3814WAT      O11683   8.485   3.276   1.983
 3814WAT     H111684   8.583   3.275   1.961
 3814WAT     H211685   8.466   3.349   2.049
 3815WAT      O11686   5.647   7.906   6.949
 3815WAT     H111687   5.683   7.963   7.023
 3815WAT     H211688   5.626   7.815   6.985
 3816WAT      O11689   5.004   5.500   7.726
 3816WAT     H111690   4.999   5.513   7.825
 3816WAT     H211691   5.091   5.456   7.703
 3817WAT      O11692   3.992   7.486   4.355
 3817WAT     H111693   3.892   7.492   4.363
 3817WAT     H211694   4.029   7.444   4.438
 3818WAT      O11695   0.009   9.153   1.510
 3818WAT     H111696   0.003   9.147   1.609
 3818WAT     H211697  -0.074   9.196   1.474
 3819WAT      O11698   3.764   2.532   6.206
 3819WAT     H111699   3.788   2.535   6.303
 3819WAT     H211700   3.792   2.617   6.162
 3820WAT      O11701   7.688   2.737   7.064
 3820WAT     H111702   7.619   2.806   7.043
 3820WAT     H211703   7.643   2.653   7.095
 3821WAT      O11704   0.757   5.858   9.466
 3821WAT     H111705   0.771   5.820   9.558
 3821WAT     H211706   0.684   5.926   9.470
 3822WAT      O11707   0.782   7.280   5.014
 3822WAT     H111708   0.862   7.286   4.954
 3822WAT     H211709   0.700   7.270   4.959
 3823WAT      O11710   9.565   2.768   4.492
 3823WAT     H111711   9.523   2.816   4.569
 3823WAT     H211712   9.653   2.810   4.470
 3824WAT      O11713   5.400   5.773   1.733
 3824WAT     H111714   5.466   5.783   1.658
 3824WAT     H211715   5.432   5.701   1.795
 3825WAT      O11716   3.282   3.283   4.697
 3825WAT     H111717   3.366   3.334   4.718
 3825WAT     H211718   3.204   3.346   4.695
 3826WAT      O11719   3.320   9.610   6.577
 3826WAT     H111720   3.283   9.587   6.487
 3826WAT     H211721   3.260   9.676   6.622
 3827WAT      O11722   3.898   4.228   2.333
 3827WAT     H111723   3.820   4.233   2.270
 3827WAT     H211724   3.978   4.195   2.283
 3828WAT      O11725   2.252   3.543   8.285
 3828WAT     H111726   2.323   3.476   8.308
 3828WAT     H211727   2.227   3.533   8.188
 3829WAT      O11728   4.234   9.680   7.110
 3829WAT     H111729   4.286   9.692   7.195
 3829WAT     H211730   4.234   9.583   7.085
 3830WAT      O11731   8.522   5.730   3.459
 3830WAT     H111732   8.506   5.728   3.557
 3830WAT     H211733   8.450   5.782   3.414
 3831WAT      O11734   7.674   0.350   5.966
 3831WAT     H111735   7.750   0.353   5.900
 3831WAT     H211736   7.604   0.416   5.938
 3832WAT      O11737   3.729   1.130   0.698
 3832WAT     H111738   3.672   1.155   0.619
 3832WAT     H211739   3.821   1.107   0.666
 3833WAT      O11740   2.275   7.986   9.534
 3833WAT     H111741   2.221   8.069   9.538
 3833WAT     H211742   2.372   8.008   9.545
 3834WAT      O11743   7.962   1.951   1.511
 3834WAT     H111744   7.911   2.023   1.559
 3834WAT     H211745   7.928   1.862   1.538
 3835WAT      O11746   3.419   8.758   4.981
 3835WAT     H111747   3.465   8.708   4.908
 3835WAT     H211748   3.441   8.855   4.974
 3836WAT      O11749   6.226   9.304   4.055
 3836WAT     H111750   6.166   9.381   4.075
 3836WAT     H211751   6.172   9.220   4.048
 3837WAT      O11752   8.328   1.294   6.574
 3837WAT     H111753   8.382   1.218   6.610
 3837WAT     H211754   8.302   1.355   6.648
 3838WAT      O11755   7.342   0.495   0.251
 3838WAT     H111756   7.299   0.406   0.267
 3838WAT     H211757   7.415   0.485   0.184
 3839WAT      O11758   3.823   6.117   4.519
 3839WAT     H111759   3.909   6.140   4.565
 3839WAT     H211760   3.838   6.114   4.421
 3840WAT      O11761   5.742   8.113   8.866
 3840WAT     H111762   5.678   8.132   8.792
 3840WAT     H211763   5.691   8.105   8.952
 3841WAT      O11764   9.061   6.649   4.102
 3841WAT     H111765   9.089   6.661   4.007
 3841WAT     H211766   8.966   6.680   4.113
 3842WAT      O11767   1.150   2.835   5.580
 3842WAT     H111768   1.143   2.747   5.533
 3842WAT     H211769   1.138   2.909   5.514
 3843WAT      O11770   0.018   5.725   8.128
 3843WAT     H111771   0.038   5.644   8.183
 3843WAT     H211772   0.012   5.805   8.187
 3844WAT      O11773   0.144   5.638   1.515
 3844WAT     H111774   0.135   5.622   1.417
 3844WAT     H211775   0.178   5.731   1.530
 3845WAT      O11776   4.445   0.719   6.249
 3845WAT     H111777   4.416   0.815   6.243
 3845WAT     H211778   4.418   0.671   6.166
 3846WAT      O11779   0.338   0.655   9.246
 3846WAT     H111780   0.245   0.627   9.269
 3846WAT     H211781   0.343   0.755   9.242
 3847WAT      O11782   0.801   4.205   9.453
 3847WAT     H111783   0.701   4.206   9.461
 3847WAT     H211784   0.828   4.248   9.367
 3848WAT      O11785   4.475   6.956   0.019
 3848WAT     H111786   4.457   6.888   0.090
 3848WAT     H211787   4.404   7.026   0.021
 3849WAT      O11788   4.849   4.806   1.600
 3849WAT     H111789   4.934   4.819   1.651
 3849WAT     H211790   4.780   4.870   1.633
 3850WAT      O11791   4.486   6.692   8.120
 3850WAT     H111792   4.564   6.659   8.067
 3850WAT     H211793   4.506   6.785   8.152
 3851WAT      O11794   1.194   6.255   5.652
 3851WAT     H111795   1.099   6.236   5.676
 3851WAT     H211796   1.213   6.352   5.667
 3852WAT      O11797   2.910   2.230   7.577
 3852WAT     H111798   2.979   2.181   7.631
 3852WAT     H211799   2.834   2.257   7.636
 3853WAT      O11800   0.330   1.988   4.177
 3853WAT     H111801   0.261   2.059   4.166
 3853WAT     H211802   0.421   2.028   4.177
 3854WAT      O11803   3.413   5.408   3.482
 3854WAT     H111804   3.446   5.329   3.430
 3854WAT     H211805   3.313   5.409   3.481
 3855WAT      O11806   5.647   1.956   0.966
 3855WAT     H111807   5.621   1.983   0.874
 3855WAT     H211808   5.622   2.029   1.030
 3856WAT      O11809   4.208   0.714   0.544
 3856WAT     H111810   4.109   0.729   0.536
 3856WAT     H211811   4.235   0.718   0.640
 3857WAT      O11812   8.207   0.681   5.573
 3857WAT     H111813   8.108   0.683   5.554
 3857WAT     H211814   8.228   0.606   5.636
 3858WAT      O11815   1.347   3.972   9.368
 3858WAT     H111816   1.301   3.988   9.281
 3858WAT     H211817   1.279   3.968   9.441
 3859WAT      O11818   2.548   1.876   0.725
 3859WAT     H111819   2.589   1.787   0.743
 3859WAT     H211820   2.460   1.883   0.773
 3860WAT      O11821   8.239   7.948   0.483
 3860WAT     H111822   8.191   7.864   0.457
 3860WAT     H211823   8.205   8.024   0.428
 3861WAT      O11824   5.024   6.233   3.805
 3861WAT     H111825   4.993   6.196   3.717
 3861WAT     H211826   5.120   6.262   3.797
 3862WAT      O11827   7.217   0.298   4.809
 3862WAT     H111828   7.172   0.359   4.744
 3862WAT     H211829   7.191   0.323   4.902
 3863WAT      O11830   5.485   8.799   9.388
 3863WAT     H111831   5.441   8.737   9.323
 3863WAT     H211832   5.422   8.873   9.411
 3864WAT      O11833   3.849   3.873   6.082
 3864WAT     H111834   3.749   3.873   6.083
 3864WAT     H211835   3.883   3.962   6.113
 3865WAT      O11836   0.508   0.300   8.007
 3865WAT     H111837   0.604   0.290   7.982
 3865WAT     H211838   0.461   0.357   7.939
 3866WAT      O11839   1.742   7.984   6.749
 3866WAT     H111840   1.790   8.067   6.719
 3866WAT     H211841   1.807   7.908   6.754
 3867WAT      O11842   1.934   8.437   8.792
 3867WAT     H111843   1.878   8.508   8.835
 3867WAT     H211844   1.903   8.421   8.699
 3868WAT      O11845   1.183   3.378   0.703
 3868WAT     H111846   1.169   3.335   0.613
 3868WAT     H211847   1.113   3.347   0.766
 3869WAT      O11848   5.989   4.858   4.755
 3869WAT     H111849   5.903   4.859   4.806
 3869WAT     H211850   5.992   4.776   4.697
 3870WAT      O11851   5.903   3.147   4.481
 3870WAT     H111852   5.934   3.241   4.496
 3870WAT     H211853   5.830   3.125   4.546
 3871WAT      O11854   4.694   3.725   8.987
 3871WAT     H111855   4.752   3.657   8.942
 3871WAT     H211856   4.639   3.680   9.057
 3872WAT      O11857   5.592   1.832   8.627
 3872WAT     H111858   5.570   1.882   8.711
 3872WAT     H211859   5.609   1.897   8.553
 3873WAT      O11860   0.644   3.127   4.912
 3873WAT     H111861   0.679   3.220   4.903
 3873WAT     H211862   0.677   3.086   4.997
 3874WAT      O11863   8.175   7.862   0.926
 3874WAT     H111864   8.208   7.928   0.858
 3874WAT     H211865   8.097   7.812   0.888
 3875WAT      O11866   1.925   2.261   0.766
 3875WAT     H111867   1.984   2.341   0.776
 3875WAT     H211868   1.872   2.247   0.849
 3876WAT      O11869   1.711   7.150   6.718
 3876WAT     H111870   1.624   7.141   6.668
 3876WAT     H211871   1.717   7.077   6.786
 3877WAT      O11872   6.853   7.268   5.076
 3877WAT     H111873   6.868   7.246   4.980
 3877WAT     H211874   6.897   7.200   5.134
 3878WAT      O11875   9.868   4.404   7.411
 3878WAT     H111876   9.967   4.394   7.403
 3878WAT     H211877   9.824   4.384   7.323
 3879WAT      O11878   1.056   8.075   5.740
 3879WAT     H111879   1.034   7.994   5.795
 3879WAT     H211880   1.126   8.051   5.673
 3880WAT      O11881   0.142   6.588   1.989
 3880WAT     H111882   0.090   6.614   2.070
 3880WAT     H211883   0.128   6.655   1.917
 3881WAT      O11884   4.524   8.276   0.186
 3881WAT     H111885   4.494   8.231   0.270
 3881WAT     H211886   4.471   8.359   0.172
 3882WAT      O11887   9.763   0.566   5.791
 3882WAT     H111888   9.785   0.630   5.864
 3882WAT     H211889   9.669   0.580   5.761
 3883WAT      O11890   8.866   2.217   4.531
 3883WAT     H111891   8.938   2.181   4.471
 3883WAT     H211892   8.802   2.143   4.554
 3884WAT      O11893   9.251   4.794   1.764
 3884WAT     H111894   9.343   4.828   1.746
 3884WAT     H211895   9.194   4.808   1.683
 3885WAT      O11896   2.061   6.474   2.657
 3885WAT     H111897   2.151   6.497   2.694
 3885WAT     H211898   2.020   6.556   2.617
 3886WAT      O11899   1.723   6.818   0.061
 3886WAT     H111900   1.751   6.882   0.134
 3886WAT     H211901   1.737   6.724   0.093
 3887WAT      O11902   1.973   6.496   5.005
 3887WAT     H111903   2.026   6.571   4.964
 3887WAT     H211904   1.884   6.531   5.034
 3888WAT      O11905   1.631   6.344   9.086
 3888WAT     H111906   1.718   6.309   9.049
 3888WAT     H211907   1.559   6.333   9.017
 3889WAT      O11908   2.648   7.567   9.021
 3889WAT     H111909   2.628   7.620   9.103
 3889WAT     H211910   2.746   7.569   9.002
 3890WAT      O11911   2.775   6.914   3.486
 3890WAT     H111912   2.683   6.914   3.525
 3890WAT     H211913   2.778   6.975   3.407
 3891WAT      O11914   9.587   7.324   7.417
 3891WAT     H111915   9.577   7.240   7.471
 3891WAT     H211916   9.679   7.329   7.379
 3892WAT      O11917   9.622   9.586   0.422
 3892WAT     H111918   9.618   9.551   0.328
 3892WAT     H211919   9.618   9.509   0.486
 3893WAT      O11920   9.679   4.251   5.910
 3893WAT     H111921   9.717   4.316   5.845
 3893WAT     H211922   9.694   4.284   6.003
 3894WAT      O11923   6.182   8.519   6.631
 3894WAT     H111924   6.082   8.513   6.625
 3894WAT     H211925   6.213   8.598   6.578
 3895WAT      O11926   2.875   5.652   4.002
 3895WAT     H111927   2.798   5.711   3.978
 3895WAT     H211928   2.859   5.560   3.965
 3896WAT      O11929   1.090   0.989   6.493
 3896WAT     H111930   1.186   0.970   6.472
 3896WAT     H211931   1.046   1.031   6.414
 3897WAT      O11932   0.482   7.728   1.855
 3897WAT     H111933   0.455   7.813   1.899
 3897WAT     H211934   0.400   7.679   1.825
 3898WAT      O11935   1.178   0.063   8.354
 3898WAT     H111936   1.203   0.072   8.450
 3898WAT     H211937   1.130  -0.023   8.339
 3899WAT      O11938   7.085   2.719   6.175
 3899WAT     H111939   7.156   2.780   6.140
 3899WAT     H211940   7.065   2.649   6.107
 3900WAT      O11941   6.484   8.821   0.181
 3900WAT     H111942   6.536   8.899   0.216
 3900WAT     H211943   6.494   8.815   0.082
 3901WAT      O11944   4.696   9.100   3.429
 3901WAT     H111945   4.638   9.062   3.501
 3901WAT     H211946   4.768   9.034   3.406
 3902WAT      O11947   0.026   6.294   7.731
 3902WAT     H111948  -0.067   6.257   7.724
 3902WAT     H211949   0.039   6.335   7.821
 3903WAT      O11950   4.743   5.412   0.121
 3903WAT     H111951   4.781   5.484   0.063
 3903WAT     H211952   4.701   5.342   0.064
 3904WAT      O11953   4.740   1.563   0.429
 3904WAT     H111954   4.754   1.483   0.370
 3904WAT     H211955   4.724   1.644   0.372
 3905WAT      O11956   8.488   1.432   2.847
 3905WAT     H111957   8.430   1.350   2.847
 3905WAT     H211958   8.452   1.498   2.782
 3906WAT      O11959   0.116   0.560   3.071
 3906WAT     H111960   0.053   0.606   3.008
 3906WAT     H211961   0.073   0.552   3.161
 3907WAT      O11962   5.377   8.601   1.456
 3907WAT     H111963   5.287   8.618   1.416
 3907WAT     H211964   5.391   8.663   1.533
 3908WAT      O11965   0.135   8.499   8.179
 3908WAT     H111966   0.078   8.551   8.116
 3908WAT     H211967   0.190   8.433   8.129
 3909WAT      O11968   7.438   8.818   4.992
 3909WAT     H111969   7.517   8.757   4.998
 3909WAT     H211970   7.378   8.788   4.918
 3910WAT      O11971   3.382   9.725   5.626
 3910WAT     H111972   3.337   9.798   5.676
 3910WAT     H211973   3.481   9.742   5.624
 3911WAT      O11974   8.919   1.038   4.846
 3911WAT     H111975   8.988   1.086   4.791
 3911WAT     H211976   8.939   1.052   4.943
 3912WAT      O11977   4.369   2.902   8.228
 3912WAT     H111978   4.372   2.995   8.264
 3912WAT     H211979   4.287   2.855   8.263
 3913WAT      O11980   2.171   7.383   5.280
 3913WAT     H111981   2.115   7.434   5.215
 3913WAT     H211982   2.146   7.286   5.276
 3914WAT      O11983   0.632   2.879   2.508
 3914WAT     H111984   0.543   2.849   2.473
 3914WAT     H211985   0.657   2.824   2.588
 3915WAT      O11986   8.385   3.611   9.243
 3915WAT     H111987   8.288   3.632   9.233
 3915WAT     H211988   8.415   3.554   9.166
 3916WAT      O11989   2.442   7.910   6.930
 3916WAT     H111990   2.462   8.006   6.909
 3916WAT     H211991   2.353   7.885   6.892
 3917WAT      O11992   1.991   0.766   9.206
 3917WAT     H111993   1.893   0.759   9.188
 3917WAT     H211994   2.014   0.716   9.289
 3918WAT      O11995   0.479   8.465   5.733
 3918WAT     H111996   0.578   8.456   5.725
 3918WAT     H211997   0.456   8.561   5.752
 3919WAT      O11998   5.247   2.354   6.975
 3919WAT     H111999   5.343   2.359   7.000
 3919WAT     H212000   5.191   2.340   7.057
 3920WAT      O12001   4.470   4.575   6.815
 3920WAT     H112002   4.450   4.593   6.719
 3920WAT     H212003   4.516   4.655   6.855
 3921WAT      O12004   5.838   5.970   2.853
 3921WAT     H112005   5.754   5.967   2.908
 3921WAT     H212006   5.814   5.985   2.757
 3922WAT      O12007   8.159   1.509   0.725
 3922WAT     H112008   8.235   1.476   0.780
 3922WAT     H212009   8.093   1.435   0.709
 3923WAT      O12010   4.565   5.920   7.819
 3923WAT     H112011   4.489   5.856   7.829
 3923WAT     H212012   4.569   5.952   7.724
 3924WAT      O12013   3.647   5.604   2.671
 3924WAT     H112014   3.564   5.656   2.691
 3924WAT     H212015   3.643   5.516   2.718
 3925WAT      O12016   2.278   3.961   5.091
 3925WAT     H112017   2.214   3.893   5.126
 3925WAT     H212018   2.273   3.964   4.992
 3926WAT      O12019   2.208   0.485   6.544
 3926WAT     H112020   2.199   0.387   6.526
 3926WAT     H212021   2.154   0.509   6.624
 3927WAT      O12022   7.077   5.683   7.863
 3927WAT     H112023   7.101   5.596   7.820
 3927WAT     H212024   6.995   5.672   7.919
 3928WAT      O12025   2.236   2.515   8.052
 3928WAT     H112026   2.175   2.593   8.055
 3928WAT     H212027   2.191   2.435   8.093
 3929WAT      O12028   8.190   8.576   4.582
 3929WAT     H112029   8.242   8.659   4.562
 3929WAT     H212030   8.099   8.583   4.540
 3930WAT      O12031   0.702   1.652   8.181
 3930WAT     H112032   0.794   1.651   8.142
 3930WAT     H212033   0.708   1.653   8.281
 3931WAT      O12034   2.779   5.411   1.990
 3931WAT     H112035   2.873   5.402   1.957
 3931WAT     H212036   2.775   5.481   2.061
 3932WAT      O12037   9.786   7.824   6.304
 3932WAT     H112038   9.748   7.754   6.364
 3932WAT     H212039   9.871   7.791   6.264
 3933WAT      O12040   8.208   0.497   8.601
 3933WAT     H112041   8.195   0.401   8.577
 3933WAT     H212042   8.266   0.542   8.533
 3934WAT      O12043   6.881   8.978   4.684
 3934WAT     H112044   6.828   9.063   4.688
 3934WAT     H212045   6.821   8.900   4.701
 3935WAT      O12046   5.907   9.796   1.880
 3935WAT     H112047   5.999   9.802   1.919
 3935WAT     H212048   5.912   9.752   1.790
 3936WAT      O12049   0.149   6.816   5.256
 3936WAT     H112050   0.050   6.812   5.243
 3936WAT     H212051   0.173   6.907   5.291
 3937WAT      O12052   7.680   7.190   2.431
 3937WAT     H112053   7.679   7.186   2.331
 3937WAT     H212054   7.754   7.249   2.461
 3938WAT      O12055   1.769   3.481   4.042
 3938WAT     H112056   1.771   3.496   3.944
 3938WAT     H212057   1.704   3.545   4.084
 3939WAT      O12058   2.082   5.301   6.101
 3939WAT     H112059   1.992   5.336   6.124
 3939WAT     H212060   2.075   5.204   6.076
 3940WAT      O12061   8.949   7.605   3.803
 3940WAT     H112062   8.978   7.674   3.869
 3940WAT     H212063   9.028   7.576   3.749
 3941WAT      O12064   5.722   0.301   9.352
 3941WAT     H112065   5.634   0.347   9.348
 3941WAT     H212066   5.788   0.359   9.399
 3942WAT      O12067   7.929   0.076   7.547
 3942WAT     H112068   7.968   0.060   7.637
 3942WAT     H212069   7.975   0.155   7.505
 3943WAT      O12070   3.812   5.988   3.084
 3943WAT     H112071   3.800   6.039   3.168
 3943WAT     H212072   3.769   5.898   3.093
 3944WAT      O12073   4.318   9.106   7.423
 3944WAT     H112074   4.233   9.053   7.432
 3944WAT     H212075   4.302   9.183   7.361
 3945WAT      O12076   1.955   3.006   2.553
 3945WAT     H112077   1.906   3.032   2.469
 3945WAT     H212078   1.978   2.909   2.550
 3946WAT      O12079   8.285   6.511   8.895
 3946WAT     H112080   8.327   6.473   8.977
 3946WAT     H212081   8.356   6.554   8.838
 3947WAT      O12082   8.908   4.129   2.384
 3947WAT     H112083   8.925   4.197   2.312
 3947WAT     H212084   8.994   4.102   2.426
 3948WAT      O12085   3.017   7.866   5.331
 3948WAT     H112086   3.101   7.896   5.376
 3948WAT     H212087   2.974   7.944   5.284
 3949WAT      O12088   8.966   6.572   5.067
 3949WAT     H112089   8.929   6.481   5.082
 3949WAT     H212090   8.919   6.615   4.989
 3950WAT      O12091   3.382   0.698   1.828
 3950WAT     H112092   3.471   0.671   1.790
 3950WAT     H212093   3.392   0.721   1.925
 3951WAT      O12094   6.748   0.041   3.219
 3951WAT     H112095   6.773   0.041   3.122
 3951WAT     H212096   6.756  -0.052   3.256
 3952WAT      O12097   3.374   2.111   8.215
 3952WAT     H112098   3.407   2.186   8.272
 3952WAT     H212099   3.392   2.132   8.118
 3953WAT      O12100   4.573   5.974   4.838
 3953WAT     H112101   4.571   6.063   4.794
 3953WAT     H212102   4.492   5.963   4.896
 3954WAT      O12103   1.643   5.446   5.190
 3954WAT     H112104   1.578   5.476   5.260
 3954WAT     H212105   1.612   5.478   5.100
 3955WAT      O12106   0.289   5.014   8.067
 3955WAT     H112107   0.233   4.955   8.009
 3955WAT     H212108   0.231   5.077   8.118
 3956WAT      O12109   7.570   1.731   4.060
 3956WAT     H112110   7.536   1.800   4.124
 3956WAT     H212111   7.519   1.646   4.072
 3957WAT      O12112   0.388   5.010   7.564
 3957WAT     H112113   0.327   5.026   7.487
 3957WAT     H212114   0.369   4.921   7.604
 3958WAT      O12115   1.273   5.501   7.666
 3958WAT     H112116   1.284   5.600   7.657
 3958WAT     H212117   1.307   5.456   7.584
 3959WAT      O12118   3.856   5.406   9.687
 3959WAT     H112119   3.850   5.495   9.732
 3959WAT     H212120   3.769   5.386   9.642
 3960WAT      O12121   9.528   9.441   4.575
 3960WAT     H112122   9.472   9.489   4.643
 3960WAT     H212123   9.469   9.381   4.520
 3961WAT      O12124   5.982   5.010   8.679
 3961WAT     H112125   6.030   5.053   8.602
 3961WAT     H212126   5.884   5.013   8.664
 3962WAT      O12127   6.219   9.308   0.863
 3962WAT     H112128   6.135   9.287   0.914
 3962WAT     H212129   6.267   9.222   0.842
 3963WAT      O12130   6.091   3.366   8.664
 3963WAT     H112131   6.183   3.331   8.675
 3963WAT     H212132   6.064   3.362   8.568
 3964WAT      O12133   9.803   0.351   2.450
 3964WAT     H112134   9.744   0.431   2.460
 3964WAT     H212135   9.848   0.332   2.537
 3965WAT      O12136   4.269   6.922   3.642
 3965WAT     H112137   4.265   7.013   3.602
 3965WAT     H212138   4.239   6.855   3.574
 3966WAT      O12139   9.694   9.139   8.503
 3966WAT     H112140   9.643   9.060   8.467
 3966WAT     H212141   9.723   9.119   8.597
 3967WAT      O12142   9.506   3.971   4.625
 3967WAT     H112143   9.601   3.961   4.655
 3967WAT     H212144   9.468   3.881   4.604
 3968WAT      O12145   4.353   5.785   7.898
 3968WAT     H112146   4.289   5.721   7.856
 3968WAT     H212147   4.303   5.867   7.928
 3969WAT      O12148   8.851   0.410   0.557
 3969WAT     H112149   8.922   0.346   0.531
 3969WAT     H212150   8.886   0.473   0.626
 3970WAT      O12151   1.059   1.668   0.608
 3970WAT     H112152   1.004   1.590   0.580
 3970WAT     H212153   1.031   1.750   0.558
 3971WAT      O12154   2.261   7.169   3.035
 3971WAT     H112155   2.314   7.101   3.086
 3971WAT     H212156   2.193   7.211   3.095
 3972WAT      O12157   3.109   7.876   2.862
 3972WAT     H112158   3.106   7.953   2.927
 3972WAT     H212159   3.202   7.866   2.827
 3973WAT      O12160   4.612   4.443   9.842
 3973WAT     H112161   4.622   4.344   9.832
 3973WAT     H212162   4.676   4.476   9.912
 3974WAT      O12163   7.589   0.108   8.429
 3974WAT     H112164   7.508   0.149   8.471
 3974WAT     H212165   7.564   0.067   8.342
 3975WAT      O12166   2.822   0.211   3.064
 3975WAT     H112167   2.752   0.281   3.048
 3975WAT     H212168   2.856   0.178   2.976
 3976WAT      O12169   4.660   5.009   2.874
 3976WAT     H112170   4.652   5.057   2.961
 3976WAT     H212171   4.748   5.031   2.831
 3977WAT      O12172   2.739   8.523   3.362
 3977WAT     H112173   2.671   8.564   3.302
 3977WAT     H212174   2.773   8.438   3.320
 3978WAT      O12175   3.035   2.286   6.736
 3978WAT     H112176   3.095   2.365   6.748
 3978WAT     H212177   2.958   2.312   6.678
 3979WAT      O12178   5.339   4.249   8.727
 3979WAT     H112179   5.353   4.327   8.788
 3979WAT     H212180   5.342   4.164   8.779
 3980WAT      O12181   0.058   1.210   2.405
 3980WAT     H112182   0.096   1.239   2.492
 3980WAT     H212183  -0.042   1.211   2.410
 3981WAT      O12184   7.879   9.519   0.291
 3981WAT     H112185   7.842   9.478   0.375
 3981WAT     H212186   7.845   9.613   0.282
 3982WAT      O12187   2.007   2.020   5.891
 3982WAT     H112188   2.044   1.993   5.802
 3982WAT     H212189   2.069   2.085   5.935
 3983WAT      O12190   2.935   6.248   7.081
 3983WAT     H112191   3.034   6.267   7.075
 3983WAT     H212192   2.920   6.168   7.139
 3984WAT      O12193   4.171   3.340   2.747
 3984WAT     H112194   4.137   3.285   2.823
 3984WAT     H212195   4.095   3.388   2.703
 3985WAT      O12196   9.629   1.605   5.036
 3985WAT     H112197   9.651   1.699   5.060
 3985WAT     H212198   9.675   1.580   4.950
 3986WAT      O12199   8.124   6.559   2.728
 3986WAT     H112200   8.176   6.637   2.693
 3986WAT     H212201   8.148   6.543   2.824
 3987WAT      O12202   5.054   3.733   1.273
 3987WAT     H112203   5.152   3.742   1.288
 3987WAT     H212204   5.015   3.670   1.339
 3988WAT      O12205   4.213   2.160   0.990
 3988WAT     H112206   4.216   2.091   0.918
 3988WAT     H212207   4.288   2.144   1.055
 3989WAT      O12208   2.490   9.259   9.650
 3989WAT     H112209   2.495   9.225   9.744
 3989WAT     H212210   2.503   9.358   9.649
 3990WAT      O12211   6.912   5.770   9.457
 3990WAT     H112212   6.848   5.841   9.427
 3990WAT     H212213   6.967   5.740   9.379
 3991WAT      O12214   4.546   5.379   9.688
 3991WAT     H112215   4.503   5.438   9.621
 3991WAT     H212216   4.542   5.284   9.657
 3992WAT      O12217   0.335   3.884   7.251
 3992WAT     H112218   0.419   3.885   7.306
 3992WAT     H212219   0.313   3.790   7.226
 3993WAT      O12220   5.656   6.305   2.444
 3993WAT     H112221   5.630   6.229   2.505
 3993WAT     H212222   5.698   6.378   2.498
 3994WAT      O12223   3.808   4.345   5.051
 3994WAT     H112224   3.784   4.333   5.148
 3994WAT     H212225   3.737   4.398   5.005
 3995WAT      O12226   7.463   8.691   9.144
 3995WAT     H112227   7.400   8.717   9.217
 3995WAT     H212228   7.543   8.647   9.184
 3996WAT      O12229   6.968   1.365   6.070
 3996WAT     H112230   6.914   1.351   5.988
 3996WAT     H212231   6.988   1.277   6.113
 3997WAT      O12232   8.365   5.290   2.061
 3997WAT     H112233   8.413   5.373   2.091
 3997WAT     H212234   8.373   5.281   1.962
 3998WAT      O12235   6.150   3.803   1.605
 3998WAT     H112236   6.102   3.718   1.625
 3998WAT     H212237   6.089   3.881   1.618
 3999WAT      O12238   5.495   2.363   9.829
 3999WAT     H112239   5.560   2.419   9.777
 3999WAT     H212240   5.404   2.402   9.822
 4000WAT      O12241   4.618   5.445   3.077
 4000WAT     H112242   4.598   5.348   3.087
 4000WAT     H212243   4.533   5.496   3.063
 4001WAT      O12244   0.263   6.381   6.795
 4001WAT     H112245   0.285   6.310   6.728
 4001WAT     H212246   0.347   6.423   6.828
 4002WAT      O12247   9.052   5.738   1.506
 4002WAT     H112248   9.015   5.657   1.462
 4002WAT     H212249   8.991   5.816   1.491
 4003WAT      O12250   2.292   1.919   7.964
 4003WAT     H112251   2.308   1.977   7.885
 4003WAT     H212252   2.270   1.975   8.044
 4004WAT      O12253   0.629   1.142   7.899
 4004WAT     H112254   0.657   1.177   7.809
 4004WAT     H212255   0.694   1.172   7.968
 4005WAT      O12256   6.150   8.965   5.495
 4005WAT     H112257   6.107   8.982   5.583
 4005WAT     H212258   6.099   9.013   5.423
 4006WAT      O12259   9.071   9.336   6.889
 4006WAT     H112260   9.028   9.426   6.878
 4006WAT     H212261   9.062   9.306   6.984
 4007WAT      O12262   1.735   5.273   7.693
 4007WAT     H112263   1.745   5.327   7.609
 4007WAT     H212264   1.721   5.177   7.670
 4008WAT      O12265   4.154   0.018   1.426
 4008WAT     H112266   4.081  -0.047   1.406
 4008WAT     H212267   4.185   0.060   1.341
 4009WAT      O12268   6.984   9.667   3.683
 4009WAT     H112269   7.001   9.754   3.728
 4009WAT     H212270   7.051   9.599   3.713
 4010WAT      O12271   2.534   3.984   0.334
 4010WAT     H112272   2.470   3.937   0.395
 4010WAT     H212273   2.554   4.075   0.371
 4011WAT      O12274   8.521   0.461   1.369
 4011WAT     H112275   8.499   0.456   1.272
 4011WAT     H212276   8.582   0.386   1.394
 4012WAT      O12277   2.026   9.538   8.902
 4012WAT     H112278   1.981   9.556   8.815
 4012WAT     H212279   2.119   9.505   8.886
 4013WAT      O12280   1.549   5.980   5.117
 4013WAT     H112281   1.535   5.901   5.177
 4013WAT     H212282   1.615   5.956   5.046
 4014WAT      O12283   8.171   8.159   3.959
 4014WAT     H112284   8.195   8.256   3.969
 4014WAT     H212285   8.232   8.104   4.015
 4015WAT      O12286   8.732   7.969   1.225
 4015WAT     H112287   8.798   8.042   1.242
 4015WAT     H212288   8.780   7.887   1.194
 4016WAT      O12289   4.880   8.135   9.007
 4016WAT     H112290   4.831   8.071   9.066
 4016WAT     H212291   4.820   8.166   8.933
 4017WAT      O12292   8.181   7.945   1.810
 4017WAT     H112293   8.163   7.890   1.729
 4017WAT     H212294   8.225   8.030   1.784
 4018WAT      O12295   2.213   7.986   1.197
 4018WAT     H112296   2.164   7.987   1.284
 4018WAT     H212297   2.151   8.014   1.123
 4019WAT      O12298   9.555   4.481   8.652
 4019WAT     H112299   9.573   4.443   8.561
 4019WAT     H212300   9.457   4.476   8.671
 4020WAT      O12301   0.697   1.276   1.597
 4020WAT     H112302   0.725   1.351   1.657
 4020WAT     H212303   0.751   1.194   1.618
 4021WAT      O12304   8.097   5.293   3.962
 4021WAT     H112305   8.124   5.385   3.933
 4021WAT     H212306   8.030   5.300   4.036
 4022WAT      O12307   7.348   1.754   0.867
 4022WAT     H112308   7.402   1.827   0.909
 4022WAT     H212309   7.372   1.667   0.909
 4023WAT      O12310   8.068   4.690   9.172
 4023WAT     H112311   8.156   4.730   9.147
 4023WAT     H212312   8.018   4.665   9.089
 4024WAT      O12313   7.019   1.944   3.812
 4024WAT     H112314   6.965   1.932   3.895
 4024WAT     H212315   7.115   1.926   3.832
 4025WAT      O12316   0.511   1.119   1.003
 4025WAT     H112317   0.414   1.128   1.027
 4025WAT     H212318   0.566   1.176   1.064
 4026WAT      O12319   6.106   7.487   2.333
 4026WAT     H112320   6.024   7.543   2.326
 4026WAT     H212321   6.140   7.468   2.241
 4027WAT      O12322   7.681   7.452   7.965
 4027WAT     H112323   7.602   7.498   8.005
 4027WAT     H212324   7.706   7.373   8.021
 4028WAT      O12325   2.873   1.352   5.660
 4028WAT     H112326   2.805   1.377   5.729
 4028WAT     H212327   2.907   1.435   5.616
 4029WAT      O12328   1.892   7.751   9.637
 4029WAT     H112329   1.908   7.693   9.558
 4029WAT     H212330   1.809   7.721   9.685
 4030WAT      O12331   6.471   8.138   7.135
 4030WAT     H112332   6.556   8.089   7.156
 4030WAT     H212333   6.481   8.234   7.160
 4031WAT      O12334   8.078   9.315   3.343
 4031WAT     H112335   8.107   9.222   3.321
 4031WAT     H212336   8.018   9.313   3.423
 4032WAT      O12337   5.270   2.190   0.893
 4032WAT     H112338   5.291   2.216   0.988
 4032WAT     H212339   5.252   2.092   0.889
 4033WAT      O12340   1.496   5.207   3.510
 4033WAT     H112341   1.466   5.291   3.555
 4033WAT     H212342   1.559   5.229   3.436
 4034WAT      O12343   0.645   0.578   5.328
 4034WAT     H112344   0.672   0.614   5.239
 4034WAT     H212345   0.607   0.486   5.317
 4035WAT      O12346   4.746   2.544   9.081
 4035WAT     H112347   4.752   2.444   9.081
 4035WAT     H212348   4.807   2.581   9.152
 4036WAT      O12349   3.144   9.357   7.266
 4036WAT     H112350   3.193   9.280   7.224
 4036WAT     H212351   3.195   9.389   7.346
 4037WAT      O12352   8.306   4.611   4.362
 4037WAT     H112353   8.383   4.674   4.353
 4037WAT     H212354   8.292   4.561   4.277
 4038WAT      O12355   4.347   6.533   2.270
 4038WAT     H112356   4.430   6.509   2.219
 4038WAT     H212357   4.268   6.487   2.230
 4039WAT      O12358   7.542   7.667   3.198
 4039WAT     H112359   7.545   7.666   3.298
 4039WAT     H212360   7.553   7.761   3.166
 4040WAT      O12361   4.871   8.041   0.254
 4040WAT     H112362   4.965   8.023   0.227
 4040WAT     H212363   4.850   8.138   0.238
 4041WAT      O12364   1.919   8.757   2.791
 4041WAT     H112365   1.985   8.812   2.842
 4041WAT     H212366   1.945   8.753   2.695
 4042WAT      O12367   1.106   1.528   8.882
 4042WAT     H112368   1.072   1.469   8.956
 4042WAT     H212369   1.138   1.471   8.806
 4043WAT      O12370   7.433   3.889   0.234
 4043WAT     H112371   7.431   3.926   0.141
 4043WAT     H212372   7.394   3.797   0.233
 4044WAT      O12373   4.233   7.094   5.140
 4044WAT     H112374   4.295   7.016   5.143
 4044WAT     H212375   4.216   7.120   5.045
 4045WAT      O12376   4.198   6.414   7.296
 4045WAT     H112377   4.178   6.324   7.336
 4045WAT     H212378   4.136   6.430   7.219
 4046WAT      O12379   8.069   7.832   9.634
 4046WAT     H112380   7.986   7.886   9.648
 4046WAT     H212381   8.075   7.760   9.702
 4047WAT      O12382   0.490   4.498   8.090
 4047WAT     H112383   0.492   4.597   8.105
 4047WAT     H212384   0.583   4.462   8.091
 4048WAT      O12385   3.508   8.208   4.538
 4048WAT     H112386   3.542   8.177   4.450
 4048WAT     H212387   3.490   8.129   4.597
 4049WAT      O12388   3.209   6.672   0.161
 4049WAT     H112389   3.171   6.722   0.239
 4049WAT     H212390   3.213   6.733   0.082
 4050WAT      O12391   9.013   1.487   9.834
 4050WAT     H112392   9.072   1.425   9.782
 4050WAT     H212393   9.041   1.488   9.930
 4051WAT      O12394   5.114   8.019   9.327
 4051WAT     H112395   5.153   8.111   9.335
 4051WAT     H212396   5.017   8.021   9.349
 4052WAT      O12397   6.423   6.958   5.815
 4052WAT     H112398   6.490   6.987   5.884
 4052WAT     H212399   6.445   7.001   5.728
 4053WAT      O12400   7.700   0.982   6.365
 4053WAT     H112401   7.760   1.051   6.325
 4053WAT     H212402   7.671   1.011   6.456
 4054WAT      O12403   0.579   2.370   5.488
 4054WAT     H112404   0.652   2.307   5.517
 4054WAT     H212405   0.490   2.332   5.513
 4055WAT      O12406   9.371   4.687   3.173
 4055WAT     H112407   9.287   4.661   3.125
 4055WAT     H212408   9.394   4.616   3.240
 4056WAT      O12409   8.369   3.099   6.377
 4056WAT     H112410   8.310   3.156   6.436
 4056WAT     H212411   8.331   3.096   6.285
 4057WAT      O12412   1.795   8.957   4.905
 4057WAT     H112413   1.871   9.021   4.911
 4057WAT     H212414   1.768   8.927   4.996
 4058WAT      O12415   1.963   9.813   5.225
 4058WAT     H112416   1.865   9.824   5.209
 4058WAT     H212417   1.979   9.725   5.270
 4059WAT      O12418   1.939   2.617   1.122
 4059WAT     H112419   2.018   2.631   1.062
 4059WAT     H212420   1.864   2.676   1.091
 4060WAT      O12421   6.811   4.898   9.663
 4060WAT     H112422   6.893   4.859   9.704
 4060WAT     H212423   6.803   4.867   9.568
 4061WAT      O12424   4.446   2.584   0.503
 4061WAT     H112425   4.415   2.643   0.577
 4061WAT     H212426   4.368   2.536   0.463
 4062WAT      O12427   0.937   8.131   1.690
 4062WAT     H112428   0.872   8.206   1.679
 4062WAT     H212429   1.027   8.168   1.711
 4063WAT      O12430   5.001   0.100   6.950
 4063WAT     H112431   5.004   0.000   6.955
 4063WAT     H212432   4.986   0.128   6.855
 4064WAT      O12433   3.232   5.506   5.230
 4064WAT     H112434   3.311   5.487   5.288
 4064WAT     H212435   3.219   5.605   5.222
 4065WAT      O12436   1.763   8.929   8.904
 4065WAT     H112437   1.686   8.929   8.969
 4065WAT     H212438   1.793   8.835   8.888
 4066WAT      O12439   1.820   6.106   2.897
 4066WAT     H112440   1.864   6.115   2.986
 4066WAT     H212441   1.850   6.180   2.837
 4067WAT      O12442   1.813   6.588   2.185
 4067WAT     H112443   1.778   6.681   2.200
 4067WAT     H212444   1.910   6.585   2.208
 4068WAT      O12445   2.575   0.367   0.347
 4068WAT     H112446   2.530   0.308   0.281
 4068WAT     H212447   2.649   0.418   0.303
 4069WAT      O12448   6.337   4.442   8.077
 4069WAT     H112449   6.426   4.407   8.050
 4069WAT     H212450   6.327   4.434   8.176
 4070WAT      O12451   5.386   5.294   4.320
 4070WAT     H112452   5.383   5.393   4.334
 4070WAT     H212453   5.480   5.267   4.298
 4071WAT      O12454   5.596   7.600   1.387
 4071WAT     H112455   5.546   7.598   1.300
 4071WAT     H212456   5.642   7.513   1.401
 4072WAT      O12457   1.236   0.117   1.601
 4072WAT     H112458   1.215   0.162   1.688
 4072WAT     H212459   1.266   0.023   1.618
 4073WAT      O12460   5.857   9.755   2.837
 4073WAT     H112461   5.903   9.667   2.849
 4073WAT     H212462   5.882   9.793   2.748
 4074WAT      O12463   1.999   7.390   6.517
 4074WAT     H112464   1.907   7.392   6.478
 4074WAT     H212465   2.039   7.299   6.503
 4075WAT      O12466   8.507   1.920   8.608
 4075WAT     H112467   8.428   1.968   8.647
 4075WAT     H212468   8.475   1.846   8.550
 4076WAT      O12469   1.230   7.867   2.977
 4076WAT     H112470   1.301   7.937   2.992
 4076WAT     H212471   1.149   7.890   3.031
 4077WAT      O12472   4.467   5.461   4.128
 4077WAT     H112473   4.437   5.372   4.093
 4077WAT     H212474   4.459   5.462   4.228
 4078WAT      O12475   8.855   0.503   7.256
 4078WAT     H112476   8.775   0.444   7.263
 4078WAT     H212477   8.874   0.545   7.345
 4079WAT      O12478   4.441   8.038   5.903
 4079WAT     H112479   4.394   8.126   5.892
 4079WAT     H212480   4.452   8.018   6.000
 4080WAT      O12481   2.075   8.792   9.511
 4080WAT     H112482   2.033   8.798   9.420
 4080WAT     H212483   2.144   8.864   9.520
 4081WAT      O12484   9.278   9.619   5.565
 4081WAT     H112485   9.204   9.678   5.598
 4081WAT     H212486   9.363   9.642   5.613
 4082WAT      O12487   6.797   0.699   3.002
 4082WAT     H112488   6.714   0.669   2.956
 4082WAT     H212489   6.869   0.631   2.990
 4083WAT      O12490   4.692   3.073   5.511
 4083WAT     H112491   4.642   3.076   5.424
 4083WAT     H212492   4.635   3.111   5.583
 4084WAT      O12493   8.996   4.003   1.352
 4084WAT     H112494   9.030   3.939   1.422
 4084WAT     H212495   8.919   3.962   1.304
 4085WAT      O12496   1.969   8.249   4.700
 4085WAT     H112497   2.068   8.248   4.718
 4085WAT     H212498   1.935   8.342   4.713
 4086WAT      O12499   6.319   1.098   7.425
 4086WAT     H112500   6.320   1.157   7.345
 4086WAT     H212501   6.231   1.051   7.431
 4087WAT      O12502   7.679   1.714   3.818
 4087WAT     H112503   7.636   1.712   3.908
 4087WAT     H212504   7.703   1.808   3.795
 4088WAT      O12505   0.131   4.674   0.557
 4088WAT     H112506   0.056   4.612   0.536
 4088WAT     H212507   0.175   4.704   0.472
 4089WAT      O12508   1.407   0.624   7.356
 4089WAT     H112509   1.474   0.620   7.430
 4089WAT     H212510   1.341   0.549   7.367
 4090WAT      O12511   0.735   8.729   4.945
 4090WAT     H112512   0.704   8.801   5.007
 4090WAT     H212513   0.835   8.724   4.947
 4091WAT      O12514   1.196   3.132   8.577
 4091WAT     H112515   1.230   3.216   8.534
 4091WAT     H212516   1.126   3.155   8.644
 4092WAT      O12517   3.870   7.771   8.540
 4092WAT     H112518   3.902   7.771   8.445
 4092WAT     H212519   3.878   7.679   8.578
 4093WAT      O12520   5.142   3.099   0.704
 4093WAT     H112521   5.122   3.058   0.794
 4093WAT     H212522   5.079   3.061   0.636
 4094WAT      O12523   3.876   9.786   5.587
 4094WAT     H112524   3.950   9.809   5.651
 4094WAT     H212525   3.907   9.805   5.494
 4095WAT      O12526   5.211   9.773   9.068
 4095WAT     H112527   5.122   9.817   9.057
 4095WAT     H212528   5.282   9.829   9.026
 4096WAT      O12529   0.097   3.567   1.722
 4096WAT     H112530   0.088   3.486   1.780
 4096WAT     H212531   0.083   3.542   1.626
 4097WAT      O12532   8.427   0.031   5.323
 4097WAT     H112533   8.468  -0.024   5.250
 4097WAT     H212534   8.413   0.124   5.290
 4098WAT      O12535   2.946   5.990   6.677
 4098WAT     H112536   2.855   5.974   6.637
 4098WAT     H212537   2.939   6.055   6.752
 4099WAT      O12538   3.232   9.205   4.027
 4099WAT     H112539   3.301   9.135   4.006
 4099WAT     H212540   3.178   9.224   3.945
 4100WAT      O12541   3.845   1.229   6.561
 4100WAT     H112542   3.832   1.177   6.477
 4100WAT     H212543   3.897   1.174   6.626
 4101WAT      O12544   1.192   8.102   5.497
 4101WAT     H112545   1.137   8.079   5.417
 4101WAT     H212546   1.174   8.197   5.525
 4102WAT      O12547   5.938   5.375   8.605
 4102WAT     H112548   6.030   5.394   8.638
 4102WAT     H212549   5.900   5.298   8.657
 4103WAT      O12550   5.136   6.697   2.295
 4103WAT     H112551   5.087   6.612   2.312
 4103WAT     H212552   5.099   6.769   2.354
 4104WAT      O12553   9.345   8.128   0.578
 4104WAT     H112554   9.252   8.157   0.555
 4104WAT     H212555   9.363   8.148   0.674
 4105WAT      O12556   2.023   1.281   7.194
 4105WAT     H112557   2.043   1.349   7.123
 4105WAT     H212558   1.951   1.220   7.162
 4106WAT      O12559   2.676   4.965   8.486
 4106WAT     H112560   2.633   5.051   8.462
 4106WAT     H212561   2.655   4.942   8.582
 4107WAT      O12562   6.132   2.839   8.569
 4107WAT     H112563   6.157   2.743   8.559
 4107WAT     H212564   6.076   2.868   8.492
 4108WAT      O12565   6.562   7.438   7.611
 4108WAT     H112566   6.522   7.529   7.601
 4108WAT     H212567   6.544   7.384   7.529
 4109WAT      O12568   7.926   4.943   7.049
 4109WAT     H112569   7.974   5.028   7.067
 4109WAT     H212570   7.975   4.867   7.094
 4110WAT      O12571   9.287   9.001   4.324
 4110WAT     H112572   9.337   9.086   4.310
 4110WAT     H212573   9.216   9.015   4.394
 4111WAT      O12574   9.679   8.788   3.392
 4111WAT     H112575   9.638   8.697   3.384
 4111WAT     H212576   9.661   8.840   3.308
 4112WAT      O12577   2.043   5.811   7.567
 4112WAT     H112578   1.960   5.831   7.515
 4112WAT     H212579   2.079   5.722   7.539
 4113WAT      O12580   8.844   1.395   2.751
 4113WAT     H112581   8.828   1.431   2.659
 4113WAT     H212582   8.795   1.308   2.761
 4114WAT      O12583   6.795   0.607   1.456
 4114WAT     H112584   6.741   0.683   1.492
 4114WAT     H212585   6.744   0.564   1.381
 4115WAT      O12586   8.612   1.936   5.698
 4115WAT     H112587   8.689   1.925   5.635
 4115WAT     H212588   8.527   1.918   5.650
 4116WAT      O12589   9.104   7.127   4.110
 4116WAT     H112590   9.111   7.225   4.131
 4116WAT     H212591   9.161   7.076   4.175
 4117WAT      O12592   8.185   5.166   6.985
 4117WAT     H112593   8.102   5.193   7.034
 4117WAT     H212594   8.183   5.202   6.892
 4118WAT      O12595   8.997   5.771   6.412
 4118WAT     H112596   8.941   5.852   6.426
 4118WAT     H212597   9.090   5.799   6.385
 4119WAT      O12598   3.606   8.632   1.762
 4119WAT     H112599   3.518   8.661   1.799
 4119WAT     H212600   3.593   8.550   1.707
 4120WAT      O12601   5.298   4.135   9.154
 4120WAT     H112602   5.216   4.079   9.165
 4120WAT     H212603   5.273   4.228   9.127
 4121WAT      O12604   3.335   7.308   3.842
 4121WAT     H112605   3.342   7.238   3.771
 4121WAT     H212606   3.313   7.266   3.930
 4122WAT      O12607   2.411   0.551   1.926
 4122WAT     H112608   2.380   0.606   1.849
 4122WAT     H212609   2.419   0.609   2.007
 4123WAT      O12610   8.308   5.883   3.406
 4123WAT     H112611   8.309   5.967   3.461
 4123WAT     H212612   8.246   5.895   3.328
 4124WAT      O12613   6.486   2.419   5.181
 4124WAT     H112614   6.435   2.425   5.266
 4124WAT     H212615   6.422   2.421   5.104
 4125WAT      O12616   1.542   9.141   5.220
 4125WAT     H112617   1.531   9.202   5.142
 4125WAT     H212618   1.453   9.105   5.248
 4126WAT      O12619   9.297   1.089   7.637
 4126WAT     H112620   9.266   1.055   7.548
 4126WAT     H212621   9.396   1.099   7.636
 4127WAT      O12622   6.635   7.203   6.228
 4127WAT     H112623   6.691   7.281   6.255
 4127WAT     H212624   6.599   7.158   6.310
 4128WAT      O12625   6.291   9.281   7.933
 4128WAT     H112626   6.193   9.298   7.937
 4128WAT     H212627   6.314   9.204   7.993
 4129WAT      O12628   6.263   3.462   7.606
 4129WAT     H112629   6.251   3.363   7.598
 4129WAT     H212630   6.175   3.505   7.629
 4130WAT      O12631   2.667   6.010   1.216
 4130WAT     H112632   2.756   6.016   1.172
 4130WAT     H212633   2.668   5.936   1.284
 4131WAT      O12634   1.613   1.319   2.339
 4131WAT     H112635   1.614   1.283   2.433
 4131WAT     H212636   1.519   1.338   2.312
 4132WAT      O12637   3.783   1.822   9.827
 4132WAT     H112638   3.696   1.867   9.805
 4132WAT     H212639   3.855   1.861   9.770
 4133WAT      O12640   4.219   2.844   4.548
 4133WAT     H112641   4.141   2.900   4.520
 4133WAT     H212642   4.227   2.766   4.486
 4134WAT      O12643   0.333   7.062   7.374
 4134WAT     H112644   0.264   6.997   7.405
 4134WAT     H212645   0.394   7.018   7.309
 4135WAT      O12646   7.431   9.154   3.739
 4135WAT     H112647   7.336   9.186   3.748
 4135WAT     H212648   7.493   9.232   3.737
 4136WAT      O12649   5.781   7.188   6.569
 4136WAT     H112650   5.810   7.245   6.492
 4136WAT     H212651   5.740   7.104   6.535
 4137WAT      O12652   9.219   4.150   7.886
 4137WAT     H112653   9.280   4.118   7.958
 4137WAT     H212654   9.210   4.250   7.892
 4138WAT      O12655   1.042   9.678   8.391
 4138WAT     H112656   0.995   9.630   8.465
 4138WAT     H212657   0.979   9.691   8.314
 4139WAT      O12658   2.675   8.520   2.223
 4139WAT     H112659   2.618   8.598   2.247
 4139WAT     H212660   2.646   8.440   2.277
 4140WAT      O12661   5.013   7.818   8.953
 4140WAT     H112662   5.024   7.900   9.009
 4140WAT     H212663   4.957   7.752   9.004
 4141WAT      O12664   0.178   4.293   0.606
 4141WAT     H112665   0.211   4.336   0.690
 4141WAT     H212666   0.097   4.238   0.627
 4142WAT      O12667   5.418   3.193   6.671
 4142WAT     H112668   5.467   3.227   6.591
 4142WAT     H212669   5.400   3.095   6.661
 4143WAT      O12670   6.161   5.240   6.367
 4143WAT     H112671   6.184   5.214   6.460
 4143WAT     H212672   6.244   5.241   6.311
 4144WAT      O12673   8.900   1.068   4.371
 4144WAT     H112674   9.000   1.061   4.380
 4144WAT     H212675   8.863   0.980   4.341
 4145WAT      O12676   0.658   1.202   7.639
 4145WAT     H112677   0.661   1.272   7.569
 4145WAT     H212678   0.720   1.127   7.614
 4146WAT      O12679   7.205   1.518   4.238
 4146WAT     H112680   7.174   1.580   4.166
 4146WAT     H212681   7.138   1.517   4.312
 4147WAT      O12682   8.293   8.963   7.157
 4147WAT     H112683   8.208   8.914   7.175
 4147WAT     H212684   8.340   8.981   7.243
 4148WAT      O12685   3.383   1.087   2.552
 4148WAT     H112686   3.425   1.086   2.461
 4148WAT     H212687   3.454   1.074   2.621
 4149WAT      O12688   2.153   3.682   2.796
 4149WAT     H112689   2.111   3.597   2.764
 4149WAT     H212690   2.093   3.726   2.862
 4150WAT      O12691   2.475   9.095   7.919
 4150WAT     H112692   2.473   9.193   7.898
 4150WAT     H212693   2.499   9.044   7.837
 4151WAT      O12694   2.323   2.538   4.654
 4151WAT     H112695   2.325   2.629   4.612
 4151WAT     H212696   2.228   2.512   4.673
 4152WAT      O12697   1.298   2.188   7.023
 4152WAT     H112698   1.353   2.106   7.039
 4152WAT     H212699   1.207   2.160   6.990
 4153WAT      O12700   2.545   3.260   4.566
 4153WAT     H112701   2.486   3.316   4.624
 4153WAT     H212702   2.518   3.164   4.575
 4154WAT      O12703   2.270   9.685   8.073
 4154WAT     H112704   2.214   9.657   8.151
 4154WAT     H212705   2.220   9.666   7.988
 4155WAT      O12706   9.263   0.259   6.612
 4155WAT     H112707   9.165   0.257   6.628
 4155WAT     H212708   9.310   0.295   6.693
 4156WAT      O12709   4.947   1.653   5.273
 4156WAT     H112710   4.988   1.623   5.359
 4156WAT     H212711   4.967   1.586   5.202
 4157WAT      O12712   1.388   9.612   2.959
 4157WAT     H112713   1.311   9.675   2.947
 4157WAT     H212714   1.405   9.563   2.873
 4158WAT      O12715   9.056   3.126   1.370
 4158WAT     H112716   9.115   3.057   1.327
 4158WAT     H212717   8.983   3.152   1.306
 4159WAT      O12718   2.024   2.169   7.011
 4159WAT     H112719   2.054   2.229   6.937
 4159WAT     H212720   1.942   2.119   6.982
 4160WAT      O12721   8.559   9.038   7.680
 4160WAT     H112722   8.626   8.965   7.692
 4160WAT     H212723   8.602   9.126   7.700
 4161WAT      O12724   6.480   2.922   0.017
 4161WAT     H112725   6.569   2.913   0.062
 4161WAT     H212726   6.415   2.858   0.059
 4162WAT      O12727   0.498   7.105   8.450
 4162WAT     H112728   0.485   7.193   8.495
 4162WAT     H212729   0.415   7.049   8.463
 4163WAT      O12730   9.065   7.915   7.798
 4163WAT     H112731   9.095   7.908   7.894
 4163WAT     H212732   9.082   7.828   7.752
 4164WAT      O12733   5.922   7.182   4.996
 4164WAT     H112734   5.881   7.181   5.087
 4164WAT     H212735   5.965   7.271   4.980
 4165WAT      O12736   3.894   1.999   2.440
 4165WAT     H112737   3.857   1.969   2.352
 4165WAT     H212738   3.862   2.092   2.459
 4166WAT      O12739   8.845   7.712   5.918
 4166WAT     H112740   8.749   7.703   5.947
 4166WAT     H212741   8.868   7.809   5.909
 4167WAT      O12742   8.880   1.756   8.507
 4167WAT     H112743   8.845   1.765   8.414
 4167WAT     H212744   8.944   1.830   8.526
 4168WAT      O12745   1.250   5.155   2.890
 4168WAT     H112746   1.322   5.087   2.910
 4168WAT     H212747   1.237   5.214   2.969
 4169WAT      O12748   5.320   4.793   3.733
 4169WAT     H112749   5.319   4.801   3.832
 4169WAT     H212750   5.244   4.735   3.703
 4170WAT      O12751   2.266   6.996   5.455
 4170WAT     H112752   2.287   7.093   5.471
 4170WAT     H212753   2.257   6.979   5.357
 4171WAT      O12754   4.675   8.726   3.297
 4171WAT     H112755   4.761   8.773   3.316
 4171WAT     H212756   4.692   8.630   3.277
 4172WAT      O12757   7.322   2.685   5.560
 4172WAT     H112758   7.328   2.716   5.465
 4172WAT     H212759   7.227   2.682   5.589
 4173WAT      O12760   5.683   2.483   9.689
 4173WAT     H112761   5.657   2.547   9.617
 4173WAT     H212762   5.779   2.457   9.678
 4174WAT      O12763   5.897   1.615   8.101
 4174WAT     H112764   5.858   1.667   8.177
 4174WAT     H212765   5.989   1.585   8.126
 4175WAT      O12766   7.859   4.408   7.135
 4175WAT     H112767   7.829   4.432   7.043
 4175WAT     H212768   7.876   4.310   7.140
 4176WAT      O12769   3.922   5.500   2.834
 4176WAT     H112770   3.976   5.419   2.810
 4176WAT     H212771   3.825   5.475   2.839
 4177WAT      O12772   7.998   5.936   3.697
 4177WAT     H112773   7.970   5.923   3.602
 4177WAT     H212774   7.941   6.006   3.739
 4178WAT      O12775   0.096   7.081   0.469
 4178WAT     H112776   0.018   7.143   0.484
 4178WAT     H212777   0.173   7.110   0.525
 4179WAT      O12778   6.102   1.950   9.007
 4179WAT     H112779   6.147   1.980   8.923
 4179WAT     H212780   6.164   1.964   9.084
 4180WAT      O12781   6.136   7.905   6.754
 4180WAT     H112782   6.041   7.913   6.783
 4180WAT     H212783   6.196   7.930   6.830
 4181WAT      O12784   2.615   8.579   7.132
 4181WAT     H112785   2.621   8.656   7.196
 4181WAT     H212786   2.673   8.597   7.052
 4182WAT      O12787   7.775   6.379   5.466
 4182WAT     H112788   7.699   6.445   5.472
 4182WAT     H212789   7.744   6.298   5.416
 4183WAT      O12790   9.868   5.641   7.533
 4183WAT     H112791   9.827   5.597   7.613
 4183WAT     H212792   9.839   5.736   7.528
 4184WAT      O12793   8.693   7.733   3.710
 4184WAT     H112794   8.780   7.687   3.724
 4184WAT     H212795   8.708   7.832   3.702
 4185WAT      O12796   7.557   8.854   5.426
 4185WAT     H112797   7.650   8.829   5.454
 4185WAT     H212798   7.491   8.800   5.479
 4186WAT      O12799   7.356   3.394   5.138
 4186WAT     H112800   7.266   3.353   5.153
 4186WAT     H212801   7.350   3.461   5.064
 4187WAT      O12802   9.703   7.796   7.513
 4187WAT     H112803   9.755   7.810   7.597
 4187WAT     H212804   9.652   7.879   7.492
 4188WAT      O12805   2.329   8.931   8.567
 4188WAT     H112806   2.381   9.014   8.587
 4188WAT     H212807   2.358   8.894   8.479
 4189WAT      O12808   6.020   2.159   0.588
 4189WAT     H112809   6.064   2.127   0.504
 4189WAT     H212810   6.089   2.172   0.659
 4190WAT      O12811   2.113   2.388   0.476
 4190WAT     H112812   2.099   2.380   0.574
 4190WAT     H212813   2.206   2.420   0.458
 4191WAT      O12814   9.463   4.350   6.288
 4191WAT     H112815   9.508   4.390   6.368
 4191WAT     H212816   9.532   4.308   6.229
 4192WAT      O12817   8.160   9.342   6.678
 4192WAT     H112818   8.140   9.302   6.768
 4192WAT     H212819   8.176   9.269   6.611
 4193WAT      O12820   4.501   2.910   4.802
 4193WAT     H112821   4.440   2.904   4.722
 4193WAT     H212822   4.477   2.838   4.867
 4194WAT      O12823   3.706   2.518   0.865
 4194WAT     H112824   3.785   2.469   0.828
 4194WAT     H212825   3.720   2.536   0.962
 4195WAT      O12826   9.454   8.653   4.334
 4195WAT     H112827   9.497   8.668   4.245
 4195WAT     H212828   9.493   8.572   4.377
 4196WAT      O12829   8.273   1.693   7.164
 4196WAT     H112830   8.269   1.708   7.262
 4196WAT     H212831   8.193   1.640   7.134
 4197WAT      O12832   4.951   3.245   2.530
 4197WAT     H112833   4.983   3.164   2.580
 4197WAT     H212834   4.902   3.216   2.448
 4198WAT      O12835   4.318   2.771   2.318
 4198WAT     H112836   4.272   2.813   2.396
 4198WAT     H212837   4.356   2.683   2.345
 4199WAT      O12838   9.007   5.026   2.793
 4199WAT     H112839   8.971   5.082   2.867
 4199WAT     H212840   9.088   4.977   2.825
 4200WAT      O12841   9.484   7.079   4.347
 4200WAT     H112842   9.504   7.171   4.380
 4200WAT     H212843   9.525   7.067   4.256
 4201WAT      O12844   0.321   0.429   5.473
 4201WAT     H112845   0.350   0.465   5.384
 4201WAT     H212846   0.244   0.365   5.460
 4202WAT      O12847   5.038   0.352   4.306
 4202WAT     H112848   4.953   0.325   4.352
 4202WAT     H212849   5.097   0.399   4.371
 4203WAT      O12850   2.367   9.236   6.230
 4203WAT     H112851   2.454   9.259   6.188
 4203WAT     H212852   2.298   9.303   6.201
 4204WAT      O12853   4.667   7.765   1.521
 4204WAT     H112854   4.670   7.718   1.609
 4204WAT     H212855   4.638   7.860   1.535
 4205WAT      O12856   5.562   4.957   0.144
 4205WAT     H112857   5.598   4.937   0.053
 4205WAT     H212858   5.531   5.052   0.148
 4206WAT      O12859   5.194   8.534   0.745
 4206WAT     H112860   5.141   8.508   0.826
 4206WAT     H212861   5.287   8.500   0.752
 4207WAT      O12862   4.701   0.775   5.314
 4207WAT     H112863   4.775   0.765   5.248
 4207WAT     H212864   4.723   0.848   5.378
 4208WAT      O12865   0.428   2.596   9.010
 4208WAT     H112866   0.396   2.523   9.071
 4208WAT     H212867   0.413   2.568   8.915
 4209WAT      O12868   7.567   4.241   4.358
 4209WAT     H112869   7.486   4.188   4.380
 4209WAT     H212870   7.622   4.191   4.291
 4210WAT      O12871   4.631   3.469   3.560
 4210WAT     H112872   4.559   3.410   3.525
 4210WAT     H212873   4.602   3.507   3.648
 4211WAT      O12874   5.407   2.857   9.392
 4211WAT     H112875   5.308   2.869   9.383
 4211WAT     H212876   5.452   2.946   9.387
 4212WAT      O12877   0.516   7.897   1.646
 4212WAT     H112878   0.534   7.837   1.724
 4212WAT     H212879   0.439   7.860   1.593
 4213WAT      O12880   3.240   5.256   0.572
 4213WAT     H112881   3.248   5.224   0.478
 4213WAT     H212882   3.211   5.352   0.572
 4214WAT      O12883   0.409   1.402   9.465
 4214WAT     H112884   0.324   1.349   9.464
 4214WAT     H212885   0.387   1.499   9.480
 4215WAT      O12886   1.298   8.693   9.728
 4215WAT     H112887   1.316   8.597   9.706
 4215WAT     H212888   1.258   8.700   9.820
 4216WAT      O12889   0.666   7.581   3.990
 4216WAT     H112890   0.763   7.594   4.012
 4216WAT     H212891   0.645   7.484   3.991
 4217WAT      O12892   8.042   9.639   7.447
 4217WAT     H112893   8.070   9.734   7.453
 4217WAT     H212894   7.976   9.619   7.519
 4218WAT      O12895   1.151   0.236   5.101
 4218WAT     H112896   1.222   0.297   5.136
 4218WAT     H212897   1.174   0.208   5.007
 4219WAT      O12898   8.990   6.604   2.805
 4219WAT     H112899   8.987   6.504   2.795
 4219WAT     H212900   8.973   6.647   2.717
 4220WAT      O12901   9.766   8.077   6.014
 4220WAT     H112902   9.813   8.032   5.938
 4220WAT     H212903   9.833   8.130   6.067
 4221WAT      O12904   8.266   2.345   7.388
 4221WAT     H112905   8.269   2.444   7.404
 4221WAT     H212906   8.325   2.322   7.311
 4222WAT      O12907   1.153   8.169   4.511
 4222WAT     H112908   1.227   8.177   4.444
 4222WAT     H212909   1.182   8.208   4.598
 4223WAT      O12910   2.320   1.705   8.693
 4223WAT     H112911   2.318   1.774   8.620
 4223WAT     H212912   2.237   1.650   8.690
 4224WAT      O12913   4.135   5.516   8.512
 4224WAT     H112914   4.230   5.538   8.489
 4224WAT     H212915   4.094   5.591   8.563
 4225WAT      O12916   4.834   6.502   6.382
 4225WAT     H112917   4.850   6.433   6.453
 4225WAT     H212918   4.771   6.571   6.417
 4226WAT      O12919   7.661   8.194   5.745
 4226WAT     H112920   7.608   8.249   5.810
 4226WAT     H212921   7.627   8.211   5.653
 4227WAT      O12922   8.423   9.573   1.913
 4227WAT     H112923   8.414   9.671   1.900
 4227WAT     H212924   8.342   9.527   1.875
 4228WAT      O12925   3.071   1.735   0.401
 4228WAT     H112926   3.071   1.676   0.481
 4228WAT     H212927   3.126   1.817   0.419
 4229WAT      O12928   8.888   2.693   0.121
 4229WAT     H112929   8.946   2.769   0.147
 4229WAT     H212930   8.804   2.695   0.174
 4230WAT      O12931   0.414   4.539   8.712
 4230WAT     H112932   0.363   4.510   8.793
 4230WAT     H212933   0.478   4.612   8.736
 4231WAT      O12934   3.302   0.189   0.392
 4231WAT     H112935   3.303   0.116   0.460
 4231WAT     H212936   3.387   0.188   0.340
 4232WAT      O12937   8.960   8.818   4.101
 4232WAT     H112938   9.055   8.801   4.128
 4232WAT     H212939   8.936   8.757   4.025
 4233WAT      O12940   2.947   0.603   9.027
 4233WAT     H112941   2.858   0.561   9.042
 4233WAT     H212942   2.947   0.651   8.939
 4234WAT      O12943   8.552   6.152   5.057
 4234WAT     H112944   8.540   6.185   5.150
 4234WAT     H212945   8.542   6.229   4.993
 4235WAT      O12946   3.387   3.094   0.239
 4235WAT     H112947   3.366   3.053   0.150
 4235WAT     H212948   3.478   3.066   0.269
 4236WAT      O12949   9.741   5.530   8.547
 4236WAT     H112950   9.817   5.464   8.549
 4236WAT     H212951   9.709   5.540   8.453
 4237WAT      O12952   6.906   3.903   0.693
 4237WAT     H112953   6.994   3.857   0.707
 4237WAT     H212954   6.851   3.895   0.777
 4238WAT      O12955   5.441   3.270   3.490
 4238WAT     H112956   5.485   3.350   3.530
 4238WAT     H212957   5.369   3.299   3.427
 4239WAT      O12958   3.453   8.753   5.584
 4239WAT     H112959   3.446   8.691   5.662
 4239WAT     H212960   3.547   8.788   5.577
 4240WAT      O12961   2.745   6.797   8.174
 4240WAT     H112962   2.653   6.774   8.141
 4240WAT     H212963   2.793   6.849   8.104
 4241WAT      O12964   1.658   6.798   9.052
 4241WAT     H112965   1.752   6.785   9.023
 4241WAT     H212966   1.631   6.722   9.112
 4242WAT      O12967   1.451   7.789   5.382
 4242WAT     H112968   1.416   7.742   5.301
 4242WAT     H212969   1.446   7.888   5.368
 4243WAT      O12970   0.356   5.109   8.428
 4243WAT     H112971   0.405   5.188   8.466
 4243WAT     H212972   0.400   5.025   8.459
 4244WAT      O12973   7.714   5.949   0.960
 4244WAT     H112974   7.676   6.031   1.003
 4244WAT     H212975   7.714   5.961   0.861
 4245WAT      O12976   3.596   0.552   3.452
 4245WAT     H112977   3.589   0.461   3.410
 4245WAT     H212978   3.580   0.622   3.382
 4246WAT      O12979   3.749   3.839   8.289
 4246WAT     H112980   3.708   3.831   8.198
 4246WAT     H212981   3.812   3.763   8.304
 4247WAT      O12982   4.502   0.411   0.499
 4247WAT     H112983   4.568   0.418   0.573
 4247WAT     H212984   4.491   0.500   0.455
 4248WAT      O12985   3.506   1.325   1.612
 4248WAT     H112986   3.409   1.345   1.596
 4248WAT     H212987   3.551   1.406   1.649
 4249WAT      O12988   0.865   6.745   5.447
 4249WAT     H112989   0.932   6.811   5.411
 4249WAT     H212990   0.899   6.706   5.532
 4250WAT      O12991   4.727   6.206   4.153
 4250WAT     H112992   4.684   6.258   4.227
 4250WAT     H212993   4.817   6.174   4.183
 4251WAT      O12994   7.450   0.823   4.517
 4251WAT     H112995   7.466   0.743   4.459
 4251WAT     H212996   7.535   0.848   4.563
 4252WAT      O12997   2.559   0.009   4.411
 4252WAT     H112998   2.469  -0.031   4.429
 4252WAT     H212999   2.611   0.015   4.496
 4253WAT      O13000   6.735   8.642   3.302
 4253WAT     H113001   6.694   8.728   3.333
 4253WAT     H213002   6.716   8.571   3.369
 4254WAT      O13003   7.346   2.549   4.232
 4254WAT     H113004   7.332   2.595   4.144
 4254WAT     H213005   7.257   2.539   4.278
 4255WAT      O13006   7.167   7.901   2.385
 4255WAT     H113007   7.112   7.978   2.352
 4255WAT     H213008   7.112   7.817   2.384
 4256WAT      O13009   3.917   4.517   5.562
 4256WAT     H113010   3.839   4.529   5.502
 4256WAT     H213011   3.890   4.533   5.657
 4257WAT      O13012   2.246   3.432   3.889
 4257WAT     H113013   2.325   3.398   3.939
 4257WAT     H213014   2.219   3.521   3.926
 4258WAT      O13015   5.174   2.731   5.258
 4258WAT     H113016   5.137   2.662   5.196
 4258WAT     H213017   5.108   2.749   5.331
 4259WAT      O13018   0.015   6.477   1.535
 4259WAT     H113019  -0.042   6.555   1.560
 4259WAT     H213020   0.035   6.481   1.437
 4260WAT      O13021   6.011   5.323   1.036
 4260WAT     H113022   5.974   5.287   0.950
 4260WAT     H213023   5.989   5.420   1.042
 4261WAT      O13024   1.230   2.013   1.021
 4261WAT     H113025   1.281   1.945   1.073
 4261WAT     H213026   1.203   1.974   0.933
 4262WAT      O13027   0.816   2.912   4.242
 4262WAT     H113028   0.868   2.832   4.270
 4262WAT     H213029   0.784   2.962   4.323
 4263WAT      O13030   6.346   8.988   8.583
 4263WAT     H113031   6.409   8.910   8.590
 4263WAT     H213032   6.265   8.969   8.638
 4264WAT      O13033   1.170   5.520   5.721
 4264WAT     H113034   1.248   5.565   5.764
 4264WAT     H213035   1.127   5.583   5.657
 4265WAT      O13036   8.882   5.997   3.262
 4265WAT     H113037   8.895   5.901   3.238
 4265WAT     H213038   8.858   6.048   3.180
 4266WAT      O13039   4.985   7.657   8.540
 4266WAT     H113040   5.029   7.619   8.622
 4266WAT     H213041   4.916   7.724   8.568
 4267WAT      O13042   5.382   3.352   0.124
 4267WAT     H113043   5.391   3.309   0.034
 4267WAT     H213044   5.298   3.319   0.168
 4268WAT      O13045   4.002   8.687   2.881
 4268WAT     H113046   3.998   8.762   2.947
 4268WAT     H213047   4.086   8.695   2.827
 4269WAT      O13048   5.079   9.828   8.002
 4269WAT     H113049   4.988   9.788   7.986
 4269WAT     H213050   5.071   9.927   8.013
 4270WAT      O13051   8.307   6.710   5.882
 4270WAT     H113052   8.278   6.725   5.787
 4270WAT     H213053   8.232   6.735   5.944
 4271WAT      O13054   2.364   2.466   0.409
 4271WAT     H113055   2.380   2.405   0.332
 4271WAT     H213056   2.322   2.550   0.377
 4272WAT      O13057   9.809   3.608   5.563
 4272WAT     H113058   9.894   3.662   5.566
 4272WAT     H213059   9.779   3.599   5.468
 4273WAT      O13060   2.612   1.512   2.767
 4273WAT     H113061   2.640   1.608   2.776
 4273WAT     H213062   2.693   1.455   2.757
 4274WAT      O13063   6.875   0.722   8.345
 4274WAT     H113064   6.832   0.804   8.306
 4274WAT     H213065   6.836   0.704   8.435
 4275WAT      O13066   9.636   0.420   0.720
 4275WAT     H113067   9.704   0.347   0.725
 4275WAT     H213068   9.597   0.424   0.629
 4276WAT      O13069   8.035   3.303   7.304
 4276WAT     H113070   8.118   3.310   7.359
 4276WAT     H213071   7.958   3.281   7.363
 4277WAT      O13072   3.544   2.851   8.185
 4277WAT     H113073   3.448   2.849   8.213
 4277WAT     H213074   3.554   2.906   8.103
 4278WAT      O13075   8.356   0.685   5.325
 4278WAT     H113076   8.368   0.664   5.422
 4278WAT     H213077   8.262   0.668   5.298
 4279WAT      O13078   5.422   3.262   3.801
 4279WAT     H113079   5.384   3.226   3.715
 4279WAT     H213080   5.437   3.186   3.865
 4280WAT      O13081   4.119   1.311   5.430
 4280WAT     H113082   4.121   1.344   5.524
 4280WAT     H213083   4.026   1.285   5.406
 4281WAT      O13084   0.576   1.893   6.584
 4281WAT     H113085   0.537   1.858   6.498
 4281WAT     H213086   0.528   1.852   6.661
 4282WAT      O13087   4.289   8.146   5.135
 4282WAT     H113088   4.367   8.198   5.101
 4282WAT     H213089   4.204   8.184   5.100
 4283WAT      O13090   5.252   3.634   9.820
 4283WAT     H113091   5.165   3.598   9.854
 4283WAT     H213092   5.316   3.646   9.896
 4284WAT      O13093   4.550   3.239   0.798
 4284WAT     H113094   4.578   3.231   0.894
 4284WAT     H213095   4.508   3.329   0.783
 4285WAT      O13096   1.641   3.315   6.664
 4285WAT     H113097   1.549   3.281   6.644
 4285WAT     H213098   1.705   3.281   6.596
 4286WAT      O13099   2.751   2.312   0.304
 4286WAT     H113100   2.689   2.306   0.225
 4286WAT     H213101   2.814   2.388   0.291
 4287WAT      O13102   0.104   8.285   1.983
 4287WAT     H113103   0.069   8.376   2.005
 4287WAT     H213104   0.033   8.216   2.002
 4288WAT      O13105   0.455   5.066   0.536
 4288WAT     H113106   0.396   5.002   0.486
 4288WAT     H213107   0.443   5.158   0.499
 4289WAT      O13108   9.157   4.674   4.894
 4289WAT     H113109   9.142   4.768   4.925
 4289WAT     H213110   9.209   4.624   4.963
 4290WAT      O13111   3.808   2.266   3.841
 4290WAT     H113112   3.834   2.191   3.781
 4290WAT     H213113   3.794   2.232   3.934
 4291WAT      O13114   1.797   4.989   7.287
 4291WAT     H113115   1.813   5.034   7.199
 4291WAT     H213116   1.706   5.011   7.320
 4292WAT      O13117   8.764   2.967   1.296
 4292WAT     H113118   8.798   3.060   1.283
 4292WAT     H213119   8.668   2.970   1.322
 4293WAT      O13120   7.968   4.965   2.733
 4293WAT     H113121   8.028   4.894   2.771
 4293WAT     H213122   7.961   5.040   2.799
 4294WAT      O13123   1.302   8.011   0.536
 4294WAT     H113124   1.316   7.919   0.499
 4294WAT     H213125   1.226   8.055   0.488
 4295WAT      O13126   2.617   5.838   4.707
 4295WAT     H113127   2.650   5.888   4.627
 4295WAT     H213128   2.597   5.902   4.781
 4296WAT      O13129   7.481   6.270   1.693
 4296WAT     H113130   7.509   6.295   1.786
 4296WAT     H213131   7.490   6.171   1.682
 4297WAT      O13132   0.311   7.564   0.405
 4297WAT     H113133   0.381   7.495   0.389
 4297WAT     H213134   0.223   7.520   0.422
 4298WAT      O13135   1.440   3.135   8.328
 4298WAT     H113136   1.392   3.047   8.326
 4298WAT     H213137   1.374   3.208   8.348
 4299WAT      O13138   8.308   6.961   0.472
 4299WAT     H113139   8.295   6.882   0.412
 4299WAT     H213140   8.402   6.994   0.465
 4300WAT      O13141   2.377   1.276   7.129
 4300WAT     H113142   2.361   1.300   7.224
 4300WAT     H213143   2.294   1.290   7.076
 4301WAT      O13144   4.450   5.769   5.720
 4301WAT     H113145   4.407   5.712   5.790
 4301WAT     H213146   4.500   5.711   5.656
 4302WAT      O13147   7.887   9.611   8.177
 4302WAT     H113148   7.858   9.538   8.239
 4302WAT     H213149   7.901   9.695   8.229
 4303WAT      O13150   7.580   7.734   1.672
 4303WAT     H113151   7.545   7.709   1.582
 4303WAT     H213152   7.503   7.748   1.735
 4304WAT      O13153   1.264   4.067   7.992
 4304WAT     H113154   1.276   4.045   7.895
 4304WAT     H213155   1.181   4.023   8.026
 4305WAT      O13156   4.850   1.469   2.136
 4305WAT     H113157   4.940   1.458   2.177
 4305WAT     H213158   4.852   1.433   2.042
 4306WAT      O13159   4.102   7.655   1.177
 4306WAT     H113160   4.198   7.653   1.204
 4306WAT     H213161   4.061   7.742   1.204
 4307WAT      O13162   1.161   5.046   8.901
 4307WAT     H113163   1.216   5.004   8.828
 4307WAT     H213164   1.177   4.997   8.986
 4308WAT      O13165   3.213   7.522   3.121
 4308WAT     H113166   3.181   7.546   3.213
 4308WAT     H213167   3.150   7.558   3.053
 4309WAT      O13168   9.006   2.635   8.106
 4309WAT     H113169   8.957   2.574   8.168
 4309WAT     H213170   9.046   2.582   8.032
 4310WAT      O13171   3.211   3.505   5.546
 4310WAT     H113172   3.308   3.480   5.541
 4310WAT     H213173   3.200   3.583   5.607
 4311WAT      O13174   4.951   2.804   4.630
 4311WAT     H113175   5.031   2.857   4.602
 4311WAT     H213176   4.891   2.863   4.685
 4312WAT      O13177   6.785   5.011   5.444
 4312WAT     H113178   6.861   5.000   5.507
 4312WAT     H213179   6.717   5.072   5.484
 4313WAT      O13180   7.409   2.600   2.909
 4313WAT     H113181   7.466   2.603   2.991
 4313WAT     H213182   7.438   2.672   2.846
 4314WAT      O13183   9.175   7.237   3.851
 4314WAT     H113184   9.153   7.328   3.887
 4314WAT     H213185   9.140   7.167   3.912
 4315WAT      O13186   5.276   2.681   4.090
 4315WAT     H113187   5.235   2.598   4.053
 4315WAT     H213188   5.339   2.720   4.023
 4316WAT      O13189   8.967   5.485   2.779
 4316WAT     H113190   8.883   5.471   2.727
 4316WAT     H213191   9.021   5.400   2.779
 4317WAT      O13192   8.431   5.164   7.528
 4317WAT     H113193   8.434   5.181   7.429
 4317WAT     H213194   8.437   5.251   7.577
 4318WAT      O13195   7.973   0.231   3.899
 4318WAT     H113196   7.970   0.325   3.932
 4318WAT     H213197   7.991   0.169   3.976
 4319WAT      O13198   8.175   3.943   4.922
 4319WAT     H113199   8.157   3.916   4.828
 4319WAT     H213200   8.151   4.039   4.935
 4320WAT      O13201   9.890   0.153   3.975
 4320WAT     H113202   9.800   0.158   4.018
 4320WAT     H213203   9.881   0.170   3.877
 4321WAT      O13204   7.838   1.270   5.370
 4321WAT     H113205   7.840   1.262   5.271
 4321WAT     H213206   7.807   1.361   5.396
 4322WAT      O13207   2.899   7.581   2.080
 4322WAT     H113208   2.958   7.542   2.009
 4322WAT     H213209   2.804   7.563   2.057
 4323WAT      O13210   6.582   5.365   1.442
 4323WAT     H113211   6.608   5.374   1.346
 4323WAT     H213212   6.612   5.446   1.493
 4324WAT      O13213   8.927   4.849   4.186
 4324WAT     H113214   8.955   4.768   4.238
 4324WAT     H213215   8.847   4.890   4.230
 4325WAT      O13216   5.705   4.501   4.512
 4325WAT     H113217   5.769   4.442   4.561
 4325WAT     H213218   5.611   4.474   4.534
 4326WAT      O13219   2.275   4.920   0.355
 4326WAT     H113220   2.375   4.928   0.359
 4326WAT     H213221   2.248   4.827   0.380
 4327WAT      O13222   5.228   3.272   4.798
 4327WAT     H113223   5.133   3.243   4.808
 4327WAT     H213224   5.288   3.199   4.831
 4328WAT      O13225   5.937   4.603   7.406
 4328WAT     H113226   6.010   4.536   7.396
 4328WAT     H213227   5.862   4.563   7.458
 4329WAT      O13228   6.309   8.300   5.478
 4329WAT     H113229   6.383   8.336   5.535
 4329WAT     H213230   6.348   8.248   5.402
 4330WAT      O13231   6.221   0.530   0.019
 4330WAT     H113232   6.161   0.609   0.035
 4330WAT     H213233   6.270   0.543  -0.067
 4331WAT      O13234   7.519   5.721   1.924
 4331WAT     H113235   7.460   5.802   1.922
 4331WAT     H213236   7.490   5.657   1.853
 4332WAT      O13237   7.491   8.302   5.904
 4332WAT     H113238   7.492   8.348   5.993
 4332WAT     H213239   7.397   8.279   5.880
 4333WAT      O13240   4.289   4.220   3.585
 4333WAT     H113241   4.299   4.175   3.496
 4333WAT     H213242   4.243   4.308   3.574
 4334WAT      O13243   6.779   7.525   9.175
 4334WAT     H113244   6.849   7.459   9.151
 4334WAT     H213245   6.813   7.618   9.157
 4335WAT      O13246   7.887   7.552   8.933
 4335WAT     H113247   7.898   7.581   9.028
 4335WAT     H213248   7.957   7.596   8.877
 4336WAT      O13249   7.330   2.460   0.416
 4336WAT     H113250   7.298   2.460   0.321
 4336WAT     H213251   7.429   2.446   0.418
 4337WAT      O13252   3.376   0.661   7.943
 4337WAT     H113253   3.328   0.704   7.866
 4337WAT     H213254   3.420   0.732   7.999
 4338WAT      O13255   7.203   5.433   7.821
 4338WAT     H113256   7.162   5.370   7.888
 4338WAT     H213257   7.252   5.380   7.752
 4339WAT      O13258   8.108   4.944   9.316
 4339WAT     H113259   8.068   4.876   9.256
 4339WAT     H213260   8.142   4.900   9.399
 4340WAT      O13261   6.264   3.360   0.267
 4340WAT     H113262   6.243   3.275   0.218
 4340WAT     H213263   6.231   3.438   0.215
 4341WAT      O13264   6.466   6.953   7.930
 4341WAT     H113265   6.480   6.855   7.942
 4341WAT     H213266   6.543   7.002   7.970
 4342WAT      O13267   3.239   6.245   2.854
 4342WAT     H113268   3.252   6.343   2.866
 4342WAT     H213269   3.289   6.214   2.774
 4343WAT      O13270   2.697   4.955   3.648
 4343WAT     H113271   2.624   5.023   3.641
 4343WAT     H213272   2.666   4.878   3.703
 4344WAT      O13273   1.418   3.353   1.113
 4344WAT     H113274   1.469   3.384   1.032
 4344WAT     H213275   1.425   3.254   1.121
 4345WAT      O13276   5.865   0.823   5.618
 4345WAT     H113277   5.931   0.763   5.572
 4345WAT     H213278   5.817   0.771   5.689
 4346WAT      O13279   0.356   8.803   7.028
 4346WAT     H113280   0.368   8.810   6.929
 4346WAT     H213281   0.411   8.727   7.063
 4347WAT      O13282   5.735   9.363   2.707
 4347WAT     H113283   5.812   9.399   2.759
 4347WAT     H213284   5.651   9.407   2.738
 4348WAT      O13285   5.700   3.594   5.859
 4348WAT     H113286   5.728   3.596   5.955
 4348WAT     H213287   5.772   3.551   5.804
 4349WAT      O13288   9.616   4.942   6.078
 4349WAT     H113289   9.569   4.862   6.117
 4349WAT     H213290   9.549   4.998   6.029
 4350WAT      O13291   6.963   1.754   9.613
 4350WAT     H113292   6.895   1.818   9.647
 4350WAT     H213293   7.055   1.792   9.627
 4351WAT      O13294   3.636   2.029   0.306
 4351WAT     H113295   3.690   1.964   0.359
 4351WAT     H213296   3.539   2.018   0.327
 4352WAT      O13297   4.839   3.887   2.756
 4352WAT     H113298   4.788   3.844   2.831
 4352WAT     H213299   4.796   3.973   2.731
 4353WAT      O13300   0.247   4.030   5.573
 4353WAT     H113301   0.184   4.039   5.649
 4353WAT     H213302   0.279   4.120   5.544
 4354WAT      O13303   0.103   4.186   6.144
 4354WAT     H113304   0.132   4.278   6.167
 4354WAT     H213305   0.153   4.155   6.063
 4355WAT      O13306   1.551   0.055   2.779
 4355WAT     H113307   1.601   0.026   2.861
 4355WAT     H213308   1.614   0.061   2.702
 4356WAT      O13309   7.870   9.702   0.688
 4356WAT     H113310   7.965   9.729   0.704
 4356WAT     H213311   7.811   9.782   0.696
 4357WAT      O13312   0.558   3.284   7.779
 4357WAT     H113313   0.518   3.254   7.693
 4357WAT     H213314   0.588   3.204   7.831
 4358WAT      O13315   2.382   3.593   4.583
 4358WAT     H113316   2.385   3.686   4.620
 4358WAT     H213317   2.416   3.529   4.653
 4359WAT      O13318   2.877   4.109   0.069
 4359WAT     H113319   2.843   4.078  -0.020
 4359WAT     H213320   2.911   4.030   0.120
 4360WAT      O13321   2.060   2.548   4.799
 4360WAT     H113322   2.056   2.646   4.779
 4360WAT     H213323   1.968   2.513   4.812
 4361WAT      O13324   1.743   5.670   4.899
 4361WAT     H113325   1.649   5.652   4.925
 4361WAT     H213326   1.773   5.603   4.831
 4362WAT      O13327   0.777   2.393   8.172
 4362WAT     H113328   0.801   2.425   8.263
 4362WAT     H213329   0.843   2.324   8.142
 4363WAT      O13330   6.890   9.685   7.267
 4363WAT     H113331   6.833   9.747   7.320
 4363WAT     H213332   6.839   9.601   7.247
 4364WAT      O13333   6.988   5.589   6.877
 4364WAT     H113334   7.067   5.649   6.872
 4364WAT     H213335   7.019   5.494   6.880
 4365WAT      O13336   5.419   6.486   2.243
 4365WAT     H113337   5.375   6.556   2.188
 4365WAT     H213338   5.518   6.497   2.238
 4366WAT      O13339   7.513   9.117   2.193
 4366WAT     H113340   7.501   9.071   2.281
 4366WAT     H213341   7.501   9.216   2.205
 4367WAT      O13342   3.843   5.630   4.167
 4367WAT     H113343   3.832   5.545   4.218
 4367WAT     H213344   3.825   5.614   4.070
 4368WAT      O13345   4.364   8.656   4.709
 4368WAT     H113346   4.321   8.605   4.784
 4368WAT     H213347   4.340   8.753   4.717
 4369WAT      O13348   8.284   2.350   8.267
 4369WAT     H113349   8.311   2.261   8.303
 4369WAT     H213350   8.250   2.339   8.174
 4370WAT      O13351   5.768   6.676   6.323
 4370WAT     H113352   5.711   6.749   6.286
 4370WAT     H213353   5.715   6.622   6.388
 4371WAT      O13354   5.386   7.093   5.481
 4371WAT     H113355   5.323   7.163   5.449
 4371WAT     H213356   5.445   7.131   5.552
 4372WAT      O13357   3.039   7.815   9.525
 4372WAT     H113358   3.047   7.715   9.522
 4372WAT     H213359   2.945   7.840   9.547
 4373WAT      O13360   2.959   6.586   6.384
 4373WAT     H113361   2.923   6.547   6.299
 4373WAT     H213362   3.032   6.528   6.419
 4374WAT      O13363   6.595   7.627   0.385
 4374WAT     H113364   6.513   7.576   0.358
 4374WAT     H213365   6.569   7.697   0.452
 4375WAT      O13366   8.350   3.359   8.077
 4375WAT     H113367   8.445   3.390   8.068
 4375WAT     H213368   8.314   3.337   7.986
 4376WAT      O13369   4.961  -0.001   3.685
 4376WAT     H113370   4.911  -0.045   3.761
 4376WAT     H213371   4.986   0.092   3.711
 4377WAT      O13372   3.317   5.074   4.521
 4377WAT     H113373   3.279   5.109   4.436
 4377WAT     H213374   3.256   5.005   4.560
 4378WAT      O13375   1.577   3.906   9.521
 4378WAT     H113376   1.623   3.819   9.508
 4378WAT     H213377   1.507   3.918   9.450
 4379WAT      O13378   6.164   8.322   5.889
 4379WAT     H113379   6.099   8.305   5.963
 4379WAT     H213380   6.204   8.413   5.899
 4380WAT      O13381   8.968   5.564   7.126
 4380WAT     H113382   8.931   5.629   7.060
 4380WAT     H213383   8.955   5.471   7.091
 4381WAT      O13384   8.658   9.381   5.028
 4381WAT     H113385   8.568   9.363   4.988
 4381WAT     H213386   8.726   9.388   4.956
 4382WAT      O13387   5.440   3.963   9.855
 4382WAT     H113388   5.424   3.971   9.757
 4382WAT     H213389   5.354   3.949   9.903
 4383WAT      O13390   9.646   6.372   7.689
 4383WAT     H113391   9.648   6.460   7.642
 4383WAT     H213392   9.655   6.299   7.621
 4384WAT      O13393   8.458   0.229   2.915
 4384WAT     H113394   8.405   0.185   2.987
 4384WAT     H213395   8.503   0.310   2.952
 4385WAT      O13396   3.722   9.592   2.214
 4385WAT     H113397   3.678   9.523   2.156
 4385WAT     H213398   3.703   9.683   2.179
 4386WAT      O13399   8.216   0.086   4.714
 4386WAT     H113400   8.286   0.036   4.766
 4386WAT     H213401   8.247   0.179   4.698
 4387WAT      O13402   3.232   2.667   6.543
 4387WAT     H113403   3.284   2.712   6.470
 4387WAT     H213404   3.135   2.669   6.521
 4388WAT      O13405   6.296   7.374   3.094
 4388WAT     H113406   6.394   7.384   3.074
 4388WAT     H213407   6.271   7.434   3.169
 4389WAT      O13408   3.424   3.607   0.186
 4389WAT     H113409   3.468   3.657   0.260
 4389WAT     H213410   3.448   3.511   0.191
 4390WAT      O13411   1.936   0.832   7.590
 4390WAT     H113412   1.849   0.816   7.543
 4390WAT     H213413   1.952   0.930   7.598
 4391WAT      O13414   1.005   2.571   7.879
 4391WAT     H113415   0.991   2.576   7.978
 4391WAT     H213416   1.005   2.475   7.851
 4392WAT      O13417   1.440   1.246   7.878
 4392WAT     H113418   1.369   1.279   7.941
 4392WAT     H213419   1.407   1.254   7.784
 4393WAT      O13420   6.189   7.713   6.572
 4393WAT     H113421   6.262   7.654   6.608
 4393WAT     H213422   6.183   7.796   6.628
 4394WAT      O13423   6.220   2.765   4.737
 4394WAT     H113424   6.241   2.856   4.702
 4394WAT     H213425   6.187   2.708   4.662
 4395WAT      O13426   6.023   4.493   7.011
 4395WAT     H113427   6.080   4.461   6.935
 4395WAT     H213428   5.958   4.561   6.978
 4396WAT      O13429   9.866   6.512   8.974
 4396WAT     H113430   9.920   6.436   9.010
 4396WAT     H213431   9.812   6.481   8.896
 4397WAT      O13432   9.046   3.110   0.429
 4397WAT     H113433   9.037   3.011   0.412
 4397WAT     H213434   9.116   3.125   0.498
 4398WAT      O13435   3.727   2.684   3.313
 4398WAT     H113436   3.664   2.689   3.390
 4398WAT     H213437   3.677   2.657   3.230
 4399WAT      O13438   7.104   2.334   8.381
 4399WAT     H113439   7.100   2.329   8.481
 4399WAT     H213440   7.150   2.419   8.355
 4400WAT      O13441   7.075   1.910   0.965
 4400WAT     H113442   7.064   1.971   0.886
 4400WAT     H213443   7.091   1.965   1.047
 4401WAT      O13444   3.472   8.552   0.427
 4401WAT     H113445   3.470   8.452   0.423
 4401WAT     H213446   3.386   8.589   0.392
 4402WAT      O13447   3.760   7.811   0.145
 4402WAT     H113448   3.703   7.869   0.204
 4402WAT     H213449   3.705   7.776   0.069
 4403WAT      O13450   2.863   2.978   9.004
 4403WAT     H113451   2.848   2.886   9.039
 4403WAT     H213452   2.811   2.990   8.919
 4404WAT      O13453   3.851   4.218   1.798
 4404WAT     H113454   3.765   4.255   1.833
 4404WAT     H213455   3.923   4.232   1.865
 4405WAT      O13456   6.594   4.874   7.910
 4405WAT     H113457   6.523   4.815   7.947
 4405WAT     H213458   6.675   4.870   7.969
 4406WAT      O13459   2.256   8.209   4.644
 4406WAT     H113460   2.320   8.235   4.572
 4406WAT     H213461   2.291   8.239   4.732
 4407WAT      O13462   2.776   4.598   0.122
 4407WAT     H113463   2.731   4.640   0.043
 4407WAT     H213464   2.792   4.501   0.104
 4408WAT      O13465   8.400   5.546   1.820
 4408WAT     H113466   8.343   5.628   1.832
 4408WAT     H213467   8.479   5.568   1.763
 4409WAT      O13468   3.219   0.136   4.264
 4409WAT     H113469   3.228   0.177   4.355
 4409WAT     H213470   3.141   0.073   4.264
 4410WAT      O13471   4.052   9.569   3.815
 4410WAT     H113472   3.983   9.640   3.801
 4410WAT     H213473   4.056   9.544   3.912
 4411WAT      O13474   7.213   3.228   9.300
 4411WAT     H113475   7.138   3.199   9.240
 4411WAT     H213476   7.187   3.313   9.347
 4412WAT      O13477   3.534   7.295   4.549
 4412WAT     H113478   3.582   7.358   4.611
 4412WAT     H213479   3.597   7.260   4.480
 4413WAT      O13480   5.702   0.107   5.515
 4413WAT     H113481   5.765   0.165   5.463
 4413WAT     H213482   5.739   0.015   5.523
 4414WAT      O13483   5.782   2.322   5.400
 4414WAT     H113484   5.843   2.283   5.331
 4414WAT     H213485   5.835   2.352   5.478
 4415WAT      O13486   8.177   6.632   5.634
 4415WAT     H113487   8.240   6.554   5.632
 4415WAT     H213488   8.099   6.613   5.574
 4416WAT      O13489   6.280   9.839   8.829
 4416WAT     H113490   6.314   9.807   8.741
 4416WAT     H213491   6.195   9.792   8.852
 4417WAT      O13492   2.741   0.283   8.609
 4417WAT     H113493   2.750   0.264   8.511
 4417WAT     H213494   2.826   0.261   8.656
 4418WAT      O13495   3.839   0.415   1.260
 4418WAT     H113496   3.810   0.373   1.174
 4418WAT     H213497   3.838   0.515   1.249
 4419WAT      O13498   5.439   1.487   2.454
 4419WAT     H113499   5.361   1.433   2.485
 4419WAT     H213500   5.426   1.583   2.480
 4420WAT      O13501   5.844   0.399   4.776
 4420WAT     H113502   5.907   0.466   4.816
 4420WAT     H213503   5.806   0.342   4.848
 4421WAT      O13504   2.198   3.061   6.155
 4421WAT     H113505   2.285   3.012   6.167
 4421WAT     H213506   2.217   3.158   6.144
 4422WAT      O13507   1.965   1.630   8.698
 4422WAT     H113508   1.980   1.726   8.673
 4422WAT     H213509   1.874   1.601   8.666
 4423WAT      O13510   0.812   0.818   4.149
 4423WAT     H113511   0.724   0.839   4.191
 4423WAT     H213512   0.872   0.898   4.157
 4424WAT      O13513   7.097   0.222   2.560
 4424WAT     H113514   7.137   0.265   2.640
 4424WAT     H213515   7.167   0.211   2.489
 4425WAT      O13516   3.506   8.096   6.437
 4425WAT     H113517   3.578   8.126   6.375
 4425WAT     H213518   3.442   8.036   6.388
 4426WAT      O13519   4.184   0.842   9.857
 4426WAT     H113520   4.257   0.783   9.891
 4426WAT     H213521   4.220   0.932   9.836
 4427WAT      O13522   0.899   5.782   6.958
 4427WAT     H113523   0.939   5.780   6.866
 4427WAT     H213524   0.895   5.689   6.995
 4428WAT      O13525   9.543   0.958   7.867
 4428WAT     H113526   9.498   0.895   7.803
 4428WAT     H213527   9.521   0.932   7.961
 4429WAT      O13528   0.159   3.578   2.801
 4429WAT     H113529   0.193   3.499   2.851
 4429WAT     H213530   0.127   3.549   2.710
 4430WAT      O13531   3.535   4.240   1.306
 4430WAT     H113532   3.435   4.246   1.308
 4430WAT     H213533   3.563   4.144   1.304
 4431WAT      O13534   4.362   3.813   1.955
 4431WAT     H113535   4.281   3.754   1.954
 4431WAT     H213536   4.332   3.909   1.956
 4432WAT      O13537   3.406   1.736   2.773
 4432WAT     H113538   3.498   1.757   2.806
 4432WAT     H213539   3.411   1.705   2.678
 4433WAT      O13540   9.477   1.484   7.689
 4433WAT     H113541   9.517   1.507   7.778
 4433WAT     H213542   9.401   1.421   7.703
 4434WAT      O13543   8.376   1.807   2.934
 4434WAT     H113544   8.361   1.712   2.908
 4434WAT     H213545   8.458   1.841   2.887
 4435WAT      O13546   7.663   7.939   6.347
 4435WAT     H113547   7.585   7.933   6.408
 4435WAT     H213548   7.742   7.973   6.397
 4436WAT      O13549   0.802   5.352   9.213
 4436WAT     H113550   0.830   5.443   9.183
 4436WAT     H213551   0.816   5.287   9.138
 4437WAT      O13552   5.677   2.082   5.231
 4437WAT     H113553   5.642   2.159   5.177
 4437WAT     H213554   5.775   2.072   5.215
 4438WAT      O13555   3.564   8.645   2.354
 4438WAT     H113556   3.544   8.708   2.429
 4438WAT     H213557   3.661   8.624   2.352
 4439WAT      O13558   7.614   8.014   4.356
 4439WAT     H113559   7.626   8.094   4.415
 4439WAT     H213560   7.625   7.931   4.411
 4440WAT      O13561   1.612   4.435   4.860
 4440WAT     H113562   1.701   4.477   4.847
 4440WAT     H213563   1.554   4.495   4.916
 4441WAT      O13564   2.053   7.825   1.976
 4441WAT     H113565   2.109   7.894   1.930
 4441WAT     H213566   2.109   7.774   2.041
 4442WAT      O13567   3.797   1.519   7.029
 4442WAT     H113568   3.728   1.591   7.022
 4442WAT     H213569   3.772   1.442   6.971
 4443WAT      O13570   9.349   5.097   0.353
 4443WAT     H113571   9.404   5.174   0.386
 4443WAT     H213572   9.268   5.131   0.305
 4444WAT      O13573   8.271   2.877   5.233
 4444WAT     H113574   8.337   2.930   5.181
 4444WAT     H213575   8.180   2.888   5.193
 4445WAT      O13576   3.406   9.214   8.751
 4445WAT     H113577   3.376   9.119   8.745
 4445WAT     H213578   3.335   9.273   8.713
 4446WAT      O13579   8.968   5.473   2.326
 4446WAT     H113580   9.043   5.431   2.378
 4446WAT     H213581   9.001   5.558   2.284
 4447WAT      O13582   7.521   8.189   3.724
 4447WAT     H113583   7.615   8.220   3.731
 4447WAT     H213584   7.519   8.091   3.705
 4448WAT      O13585   8.576   4.298   0.251
 4448WAT     H113586   8.666   4.343   0.252
 4448WAT     H213587   8.587   4.202   0.277
 4449WAT      O13588   3.809   5.066   9.044
 4449WAT     H113589   3.751   5.089   9.122
 4449WAT     H213590   3.873   5.140   9.027
 4450WAT      O13591   9.069   8.322   4.710
 4450WAT     H113592   9.081   8.420   4.727
 4450WAT     H213593   9.005   8.284   4.777
 4451WAT      O13594   5.724   8.652   4.665
 4451WAT     H113595   5.735   8.559   4.628
 4451WAT     H213596   5.650   8.653   4.732
 4452WAT      O13597   3.497   3.340   2.133
 4452WAT     H113598   3.401   3.321   2.114
 4452WAT     H213599   3.504   3.402   2.211
 4453WAT      O13600   8.816   0.402   9.664
 4453WAT     H113601   8.850   0.312   9.634
 4453WAT     H213602   8.888   0.449   9.715
 4454WAT      O13603   4.684   0.734   2.220
 4454WAT     H113604   4.609   0.794   2.247
 4454WAT     H213605   4.704   0.748   2.123
 4455WAT      O13606   0.723   7.533   1.026
 4455WAT     H113607   0.671   7.471   0.967
 4455WAT     H213608   0.661   7.579   1.089
 4456WAT      O13609   2.815   0.718   0.315
 4456WAT     H113610   2.866   0.732   0.400
 4456WAT     H213611   2.739   0.783   0.311
 4457WAT      O13612   2.392   0.817   2.654
 4457WAT     H113613   2.369   0.904   2.696
 4457WAT     H213614   2.423   0.832   2.560
 4458WAT      O13615   8.702   3.419   0.706
 4458WAT     H113616   8.784   3.385   0.660
 4458WAT     H213617   8.728   3.478   0.782
 4459WAT      O13618   4.866   0.454   0.929
 4459WAT     H113619   4.865   0.542   0.977
 4459WAT     H213620   4.819   0.386   0.985
 4460WAT      O13621   1.821   4.594   7.390
 4460WAT     H113622   1.869   4.639   7.315
 4460WAT     H213623   1.727   4.626   7.393
 4461WAT      O13624   0.024   1.381   8.705
 4461WAT     H113625  -0.024   1.404   8.789
 4461WAT     H213626   0.122   1.397   8.718
 4462WAT      O13627   5.943   9.274   7.005
 4462WAT     H113628   6.019   9.217   7.036
 4462WAT     H213629   5.899   9.232   6.925
 4463WAT      O13630   3.861   1.387   1.623
 4463WAT     H113631   3.780   1.424   1.668
 4463WAT     H213632   3.834   1.327   1.548
 4464WAT      O13633   4.615   3.915   2.405
 4464WAT     H113634   4.705   3.882   2.376
 4464WAT     H213635   4.549   3.840   2.404
 4465WAT      O13636   1.128   0.656   8.008
 4465WAT     H113637   1.072   0.737   7.990
 4465WAT     H213638   1.223   0.675   7.983
 4466WAT      O13639   1.002   0.462   0.558
 4466WAT     H113640   1.015   0.376   0.608
 4466WAT     H213641   1.085   0.481   0.504
 4467WAT      O13642   1.460   2.680   5.387
 4467WAT     H113643   1.473   2.744   5.312
 4467WAT     H213644   1.473   2.586   5.354
 4468WAT      O13645   6.289   1.041   2.041
 4468WAT     H113646   6.299   0.963   2.103
 4468WAT     H213647   6.227   1.108   2.081
 4469WAT      O13648   2.692   0.987   8.101
 4469WAT     H113649   2.755   0.946   8.035
 4469WAT     H213650   2.726   0.973   8.194
 4470WAT      O13651   6.518   8.825   1.609
 4470WAT     H113652   6.568   8.893   1.663
 4470WAT     H213653   6.532   8.734   1.648
 4471WAT      O13654   3.845   5.622   8.285
 4471WAT     H113655   3.854   5.715   8.319
 4471WAT     H213656   3.850   5.621   8.185
 4472WAT      O13657   5.439   7.831   4.096
 4472WAT     H113658   5.370   7.870   4.036
 4472WAT     H213659   5.397   7.805   4.183
 4473WAT      O13660   4.015   8.854   1.794
 4473WAT     H113661   4.033   8.828   1.699
 4473WAT     H213662   4.058   8.943   1.813
 4474WAT      O13663   8.875   5.645   0.195
 4474WAT     H113664   8.805   5.587   0.236
 4474WAT     H213665   8.875   5.735   0.240
 4475WAT      O13666   1.608   8.593   8.240
 4475WAT     H113667   1.553   8.591   8.156
 4475WAT     H213668   1.548   8.606   8.319
 4476WAT      O13669   3.495   0.862   3.399
 4476WAT     H113670   3.413   0.806   3.405
 4476WAT     H213671   3.484   0.931   3.328
 4477WAT      O13672   7.599   3.334   0.311
 4477WAT     H113673   7.586   3.413   0.372
 4477WAT     H213674   7.631   3.366   0.222
 4478WAT      O13675   9.267   4.239   9.205
 4478WAT     H113676   9.264   4.145   9.168
 4478WAT     H213677   9.319   4.239   9.290
 4479WAT      O13678   1.003   4.794   0.452
 4479WAT     H113679   0.989   4.705   0.407
 4479WAT     H213680   1.085   4.837   0.415
 4480WAT      O13681   7.220   3.479   9.400
 4480WAT     H113682   7.307   3.522   9.372
 4480WAT     H213683   7.186   3.524   9.482
 4481WAT      O13684   5.538   3.429   3.195
 4481WAT     H113685   5.490   3.425   3.107
 4481WAT     H213686   5.471   3.437   3.269
 4482WAT      O13687   7.215   4.185   2.505
 4482WAT     H113688   7.285   4.223   2.445
 4482WAT     H213689   7.141   4.250   2.516
 4483WAT      O13690   6.394   9.619   5.284
 4483WAT     H113691   6.438   9.673   5.357
 4483WAT     H213692   6.295   9.631   5.290
 4484WAT      O13693   2.550   9.395   1.891
 4484WAT     H113694   2.529   9.493   1.889
 4484WAT     H213695   2.562   9.361   1.798
 4485WAT      O13696   5.954   8.650   5.206
 4485WAT     H113697   5.908   8.584   5.146
 4485WAT     H213698   6.024   8.604   5.260
 4486WAT      O13699   0.910   4.054   0.171
 4486WAT     H113700   0.940   4.124   0.236
 4486WAT     H213701   0.810   4.059   0.161
 4487WAT      O13702   3.970   4.032   3.062
 4487WAT     H113703   4.002   3.945   3.025
 4487WAT     H213704   3.896   4.066   3.005
 4488WAT      O13705   8.671   0.042   4.402
 4488WAT     H113706   8.689   0.054   4.499
 4488WAT     H213707   8.757   0.040   4.351
 4489WAT      O13708   0.823   4.589   6.748
 4489WAT     H113709   0.855   4.565   6.839
 4489WAT     H213710   0.834   4.511   6.687
 4490WAT      O13711   8.339   7.836   5.731
 4490WAT     H113712   8.265   7.877   5.784
 4490WAT     H213713   8.377   7.757   5.780
 4491WAT      O13714   6.684   0.241   9.389
 4491WAT     H113715   6.731   0.326   9.365
 4491WAT     H213716   6.671   0.237   9.489
 4492WAT      O13717   9.540   7.506   2.696
 4492WAT     H113718   9.480   7.582   2.672
 4492WAT     H213719   9.492   7.420   2.680
 4493WAT      O13720   8.317   7.814   2.833
 4493WAT     H113721   8.284   7.827   2.740
 4493WAT     H213722   8.303   7.719   2.861
 4494WAT      O13723   0.124   8.011   2.383
 4494WAT     H113724   0.215   7.971   2.388
 4494WAT     H213725   0.130   8.106   2.352
 4495WAT      O13726   3.144   3.148   7.882
 4495WAT     H113727   3.173   3.213   7.812
 4495WAT     H213728   3.055   3.110   7.857
 4496WAT      O13729   3.094   8.425   6.524
 4496WAT     H113730   3.174   8.480   6.547
 4496WAT     H213731   3.122   8.330   6.513
 4497WAT      O13732   2.022   7.698   7.255
 4497WAT     H113733   1.955   7.763   7.218
 4497WAT     H213734   2.006   7.687   7.353
 4498WAT      O13735   9.296   9.822   8.386
 4498WAT     H113736   9.213   9.798   8.437
 4498WAT     H213737   9.296   9.773   8.299
 4499WAT      O13738   5.335   3.013   6.359
 4499WAT     H113739   5.357   2.958   6.440
 4499WAT     H213740   5.236   3.027   6.353
 4500WAT      O13741   2.225   0.496   0.738
 4500WAT     H113742   2.295   0.512   0.668
 4500WAT     H213743   2.263   0.514   0.829
 4501WAT      O13744   5.775   0.701   1.518
 4501WAT     H113745   5.828   0.666   1.441
 4501WAT     H213746   5.800   0.796   1.536
 4502WAT      O13747   5.296   8.402   5.832
 4502WAT     H113748   5.294   8.453   5.919
 4502WAT     H213749   5.372   8.338   5.833
 4503WAT      O13750   3.481   7.014   2.466
 4503WAT     H113751   3.436   7.080   2.405
 4503WAT     H213752   3.463   7.039   2.561
 4504WAT      O13753   7.330   0.380   3.001
 4504WAT     H113754   7.333   0.461   3.059
 4504WAT     H213755   7.285   0.305   3.050
 4505WAT      O13756   3.726   8.663   4.622
 4505WAT     H113757   3.709   8.615   4.536
 4505WAT     H213758   3.760   8.755   4.602
 4506WAT      O13759   7.407   6.792   1.366
 4506WAT     H113760   7.361   6.712   1.405
 4506WAT     H213761   7.351   6.830   1.293
 4507WAT      O13762   3.152   6.282   2.389
 4507WAT     H113763   3.158   6.338   2.471
 4507WAT     H213764   3.233   6.297   2.332
 4508WAT      O13765   0.437   1.409   0.677
 4508WAT     H113766   0.368   1.456   0.622
 4508WAT     H213767   0.525   1.455   0.667
 4509WAT      O13768   9.777   3.341   5.902
 4509WAT     H113769   9.804   3.277   5.830
 4509WAT     H213770   9.828   3.321   5.985
 4510WAT      O13771   2.269   8.221   9.197
 4510WAT     H113772   2.208   8.235   9.120
 4510WAT     H213773   2.264   8.300   9.259
 4511WAT      O13774   7.394   2.590   3.934
 4511WAT     H113775   7.299   2.579   3.907
 4511WAT     H213776   7.453   2.532   3.878
 4512WAT      O13777   4.398   0.963   5.950
 4512WAT     H113778   4.471   0.896   5.935
 4512WAT     H213779   4.361   0.992   5.862
 4513WAT      O13780   7.838   0.668   9.114
 4513WAT     H113781   7.796   0.593   9.165
 4513WAT     H213782   7.924   0.693   9.156
 4514WAT      O13783   1.402   0.204   9.669
 4514WAT     H113784   1.409   0.251   9.757
 4514WAT     H213785   1.406   0.271   9.595
 4515WAT      O13786   2.909   9.805   1.582
 4515WAT     H113787   2.849   9.779   1.658
 4515WAT     H213788   2.853   9.842   1.508
 4516WAT      O13789   9.172   1.733   2.187
 4516WAT     H113790   9.091   1.675   2.177
 4516WAT     H213791   9.248   1.694   2.135
 4517WAT      O13792   3.744   4.932   1.599
 4517WAT     H113793   3.779   4.857   1.655
 4517WAT     H213794   3.755   5.018   1.648
 4518WAT      O13795   4.912   8.642   2.758
 4518WAT     H113796   4.859   8.643   2.674
 4518WAT     H213797   5.005   8.610   2.739
 4519WAT      O13798   3.937   1.128   8.169
 4519WAT     H113799   3.948   1.079   8.083
 4519WAT     H213800   3.915   1.224   8.150
 4520WAT      O13801   6.697   6.545   9.835
 4520WAT     H113802   6.717   6.617   9.902
 4520WAT     H213803   6.684   6.458   9.883
 4521WAT      O13804   9.456   0.813   7.424
 4521WAT     H113805   9.420   0.879   7.357
 4521WAT     H213806   9.458   0.722   7.383
 4522WAT      O13807   6.444   6.560   0.163
 4522WAT     H113808   6.521   6.495   0.162
 4522WAT     H213809   6.389   6.548   0.080
 4523WAT      O13810   5.738   0.188   3.639
 4523WAT     H113811   5.703   0.096   3.656
 4523WAT     H213812   5.745   0.203   3.541
 4524WAT      O13813   0.449   5.634   8.624
 4524WAT     H113814   0.518   5.660   8.692
 4524WAT     H213815   0.404   5.716   8.590
 4525WAT      O13816   6.791   8.428   2.375
 4525WAT     H113817   6.891   8.429   2.368
 4525WAT     H213818   6.761   8.341   2.414
 4526WAT      O13819   6.638   6.156   5.045
 4526WAT     H113820   6.717   6.208   5.009
 4526WAT     H213821   6.656   6.130   5.139
 4527WAT      O13822   9.622   9.119   6.923
 4527WAT     H113823   9.524   9.130   6.941
 4527WAT     H213824   9.661   9.057   6.990
 4528WAT      O13825   5.336   1.715   9.521
 4528WAT     H113826   5.267   1.704   9.593
 4528WAT     H213827   5.427   1.709   9.561
 4529WAT      O13828   7.342   1.736   1.776
 4529WAT     H113829   7.298   1.713   1.863
 4529WAT     H213830   7.432   1.775   1.793
 4530WAT      O13831   0.702   1.954   1.312
 4530WAT     H113832   0.771   1.887   1.337
 4530WAT     H213833   0.713   2.035   1.370
 4531WAT      O13834   7.551   1.400   0.323
 4531WAT     H113835   7.512   1.309   0.312
 4531WAT     H213836   7.490   1.456   0.379
 4532WAT      O13837   0.459   5.742   0.049
 4532WAT     H113838   0.512   5.793   0.117
 4532WAT     H213839   0.391   5.685   0.095
 4533WAT      O13840   5.246   0.386   7.025
 4533WAT     H113841   5.211   0.453   7.091
 4533WAT     H213842   5.207   0.404   6.935
 4534WAT      O13843   7.118   4.482   0.473
 4534WAT     H113844   7.076   4.492   0.383
 4534WAT     H213845   7.067   4.535   0.540
 4535WAT      O13846   5.013   6.994   2.768
 4535WAT     H113847   5.079   6.923   2.743
 4535WAT     H213848   5.062   7.075   2.801
 4536WAT      O13849   0.261   4.243   5.241
 4536WAT     H113850   0.190   4.173   5.250
 4536WAT     H213851   0.350   4.202   5.259
 4537WAT      O13852   0.544   8.209   3.403
 4537WAT     H113853   0.498   8.245   3.322
 4537WAT     H213854   0.517   8.262   3.483
 4538WAT      O13855   8.341   9.099   9.035
 4538WAT     H113856   8.309   9.091   8.941
 4538WAT     H213857   8.265   9.128   9.094
 4539WAT      O13858   6.055   6.658   0.965
 4539WAT     H113859   5.971   6.710   0.980
 4539WAT     H213860   6.085   6.618   1.051
 4540WAT      O13861   3.055   4.188   0.474
 4540WAT     H113862   3.037   4.090   0.484
 4540WAT     H213863   3.142   4.202   0.428
 4541WAT      O13864   1.714   6.153   0.148
 4541WAT     H113865   1.638   6.156   0.082
 4541WAT     H213866   1.778   6.080   0.121
 4542WAT      O13867   4.304   5.432   6.940
 4542WAT     H113868   4.370   5.431   7.015
 4542WAT     H213869   4.349   5.460   6.856
 4543WAT      O13870   6.656   1.225   4.941
 4543WAT     H113871   6.708   1.166   4.878
 4543WAT     H213872   6.718   1.263   5.009
 4544WAT      O13873   1.640   3.357   1.448
 4544WAT     H113874   1.703   3.369   1.525
 4544WAT     H213875   1.552   3.399   1.471
 4545WAT      O13876   6.975   5.051   3.031
 4545WAT     H113877   7.026   5.137   3.034
 4545WAT     H213878   6.985   5.004   3.118
 4546WAT      O13879   8.463   7.943   5.357
 4546WAT     H113880   8.435   8.033   5.393
 4546WAT     H213881   8.517   7.895   5.425
 4547WAT      O13882   4.607   2.961   5.937
 4547WAT     H113883   4.617   2.878   5.882
 4547WAT     H213884   4.556   3.029   5.885
 4548WAT      O13885   8.743   6.434   2.658
 4548WAT     H113886   8.714   6.370   2.587
 4548WAT     H213887   8.833   6.407   2.693
 4549WAT      O13888   0.070   1.846   4.763
 4549WAT     H113889  -0.004   1.844   4.696
 4549WAT     H213890   0.155   1.872   4.718
 4550WAT      O13891   9.785   0.969   6.689
 4550WAT     H113892   9.735   1.041   6.737
 4550WAT     H213893   9.879   0.963   6.725
 4551WAT      O13894   6.009   3.411   2.329
 4551WAT     H113895   5.913   3.420   2.359
 4551WAT     H213896   6.043   3.500   2.299
 4552WAT      O13897   5.895   0.083   6.901
 4552WAT     H113898   5.921   0.088   6.997
 4552WAT     H213899   5.849  -0.003   6.882
 4553WAT      O13900   0.611   7.911   2.144
 4553WAT     H113901   0.524   7.917   2.095
 4553WAT     H213902   0.652   7.822   2.127
 4554WAT      O13903   4.073   7.230   0.557
 4554WAT     H113904   4.029   7.302   0.611
 4554WAT     H213905   4.037   7.233   0.463
 4555WAT      O13906   9.264   0.806   4.349
 4555WAT     H113907   9.344   0.808   4.290
 4555WAT     H213908   9.245   0.711   4.376
 4556WAT      O13909   5.041   8.981   2.546
 4556WAT     H113910   5.091   8.938   2.621
 4556WAT     H213911   5.037   9.080   2.560
 4557WAT      O13912   8.491   1.842   9.748
 4557WAT     H113913   8.472   1.940   9.759
 4557WAT     H213914   8.578   1.830   9.701
 4558WAT      O13915   4.640   1.313   1.393
 4558WAT     H113916   4.542   1.297   1.379
 4558WAT     H213917   4.686   1.314   1.304
 4559WAT      O13918   3.144   4.495   2.345
 4559WAT     H113919   3.082   4.552   2.291
 4559WAT     H213920   3.213   4.456   2.285
 4560WAT      O13921   7.073   1.022   1.411
 4560WAT     H113922   7.022   0.936   1.403
 4560WAT     H213923   7.080   1.065   1.321
 4561WAT      O13924   0.693   3.017   8.336
 4561WAT     H113925   0.686   3.084   8.410
 4561WAT     H213926   0.602   2.999   8.299
 4562WAT      O13927   8.413   0.261   0.238
 4562WAT     H113928   8.402   0.168   0.272
 4562WAT     H213929   8.495   0.301   0.278
 4563WAT      O13930   9.329   2.289   3.678
 4563WAT     H113931   9.270   2.211   3.701
 4563WAT     H213932   9.402   2.297   3.745
 4564WAT      O13933   1.188   1.535   9.775
 4564WAT     H113934   1.119   1.469   9.806
 4564WAT     H213935   1.201   1.525   9.676
 4565WAT      O13936   2.610   8.508   1.945
 4565WAT     H113937   2.625   8.520   2.043
 4565WAT     H213938   2.698   8.488   1.900
 4566WAT      O13939   0.724   3.920   7.074
 4566WAT     H113940   0.811   3.880   7.046
 4566WAT     H213941   0.659   3.913   6.998
 4567WAT      O13942   6.382   5.277   2.367
 4567WAT     H113943   6.437   5.358   2.349
 4567WAT     H213944   6.403   5.242   2.458
 4568WAT      O13945   3.516   2.965   6.581
 4568WAT     H113946   3.512   3.061   6.612
 4568WAT     H213947   3.436   2.945   6.526
 4569WAT      O13948   4.268   9.216   9.354
 4569WAT     H113949   4.362   9.218   9.387
 4569WAT     H213950   4.265   9.245   9.258
 4570WAT      O13951   6.987   3.767   2.588
 4570WAT     H113952   6.960   3.852   2.633
 4570WAT     H213953   7.084   3.749   2.606
 4571WAT      O13954   1.585   3.263   7.307
 4571WAT     H113955   1.566   3.255   7.405
 4571WAT     H213956   1.582   3.360   7.281
 4572WAT      O13957   1.786   2.709   6.224
 4572WAT     H113958   1.823   2.628   6.268
 4572WAT     H213959   1.857   2.779   6.217
 4573WAT      O13960   2.955   2.104   1.501
 4573WAT     H113961   3.021   2.171   1.469
 4573WAT     H213962   2.889   2.148   1.562
 4574WAT      O13963   2.827   3.637   2.038
 4574WAT     H113964   2.788   3.628   2.130
 4574WAT     H213965   2.827   3.734   2.012
 4575WAT      O13966   5.512   3.496   8.318
 4575WAT     H113967   5.603   3.455   8.308
 4575WAT     H213968   5.481   3.529   8.229
 4576WAT      O13969   9.232   0.565   3.626
 4576WAT     H113970   9.202   0.475   3.654
 4576WAT     H213971   9.276   0.559   3.536
 4577WAT      O13972   6.168   0.853   2.496
 4577WAT     H113973   6.070   0.832   2.487
 4577WAT     H213974   6.208   0.792   2.564
 4578WAT      O13975   9.326   3.135   8.956
 4578WAT     H113976   9.388   3.121   9.034
 4578WAT     H213977   9.236   3.097   8.978
 4579WAT      O13978   0.411   7.510   8.304
 4579WAT     H113979   0.502   7.544   8.279
 4579WAT     H213980   0.377   7.451   8.231
 4580WAT      O13981   2.068   6.545   2.247
 4580WAT     H113982   2.100   6.553   2.153
 4580WAT     H213983   2.113   6.614   2.303
 4581WAT      O13984   8.648   8.557   2.149
 4581WAT     H113985   8.636   8.469   2.102
 4581WAT     H213986   8.562   8.607   2.147
 4582WAT      O13987   7.265   0.647   4.137
 4582WAT     H113988   7.333   0.707   4.094
 4582WAT     H213989   7.305   0.605   4.218
 4583WAT      O13990   5.977   9.536   0.314
 4583WAT     H113991   5.992   9.543   0.412
 4583WAT     H213992   5.885   9.500   0.296
 4584WAT      O13993   7.856   2.440   0.522
 4584WAT     H113994   7.884   2.531   0.489
 4584WAT     H213995   7.912   2.370   0.477
 4585WAT      O13996   4.755   8.317   9.292
 4585WAT     H113997   4.702   8.345   9.372
 4585WAT     H213998   4.692   8.291   9.218
 4586WAT      O13999   0.017   0.839   0.177
 4586WAT     H114000   0.109   0.876   0.163
 4586WAT     H214001  -0.006   0.778   0.101
 4587WAT      O14002   3.130   5.666   3.806
 4587WAT     H114003   3.082   5.691   3.721
 4587WAT     H214004   3.071   5.687   3.884
 4588WAT      O14005   6.972   7.274   9.595
 4588WAT     H114006   7.036   7.322   9.655
 4588WAT     H214007   6.984   7.175   9.608
 4589WAT      O14008   3.363   1.326   3.895
 4589WAT     H114009   3.286   1.273   3.859
 4589WAT     H214010   3.447   1.300   3.846
 4590WAT      O14011   4.859   5.354   7.551
 4590WAT     H114012   4.865   5.266   7.597
 4590WAT     H214013   4.882   5.427   7.615
 4591WAT      O14014   6.887   0.407   3.705
 4591WAT     H114015   6.798   0.438   3.735
 4591WAT     H214016   6.885   0.307   3.693
 4592WAT      O14017   0.327   2.883   5.058
 4592WAT     H114018   0.270   2.802   5.043
 4592WAT     H214019   0.350   2.889   5.155
 4593WAT      O14020   0.843   2.964   7.082
 4593WAT     H114021   0.877   3.037   7.142
 4593WAT     H214022   0.744   2.974   7.070
 4594WAT      O14023   1.008   0.998   3.433
 4594WAT     H114024   1.074   0.930   3.465
 4594WAT     H214025   0.947   0.957   3.365
 4595WAT      O14026   7.992   4.880   7.699
 4595WAT     H114027   7.996   4.839   7.790
 4595WAT     H214028   7.988   4.980   7.708
 4596WAT      O14029   7.385   7.153   2.765
 4596WAT     H114030   7.322   7.086   2.726
 4596WAT     H214031   7.445   7.108   2.832
 4597WAT      O14032   2.527   6.443   4.929
 4597WAT     H114033   2.584   6.504   4.984
 4597WAT     H214034   2.585   6.383   4.873
 4598WAT      O14035   5.783   7.376   0.586
 4598WAT     H114036   5.880   7.354   0.599
 4598WAT     H214037   5.730   7.291   0.580
 4599WAT      O14038   2.147   1.617   5.686
 4599WAT     H114039   2.225   1.669   5.652
 4599WAT     H214040   2.146   1.621   5.786
 4600WAT      O14041   0.426   5.382   8.519
 4600WAT     H114042   0.427   5.470   8.566
 4600WAT     H214043   0.381   5.393   8.430
 4601WAT      O14044   7.228   3.366   1.161
 4601WAT     H114045   7.247   3.437   1.229
 4601WAT     H214046   7.143   3.386   1.114
 4602WAT      O14047   8.566   3.955   8.983
 4602WAT     H114048   8.498   3.886   8.956
 4602WAT     H214049   8.521   4.026   9.037
 4603WAT      O14050   9.212   6.837   7.450
 4603WAT     H114051   9.233   6.894   7.370
 4603WAT     H214052   9.261   6.750   7.442
 4604WAT      O14053   3.897   7.903   0.855
 4604WAT     H114054   3.958   7.831   0.888
 4604WAT     H214055   3.875   7.886   0.759
 4605WAT      O14056   4.385   1.347   5.940
 4605WAT     H114057   4.409   1.432   5.986
 4605WAT     H214058   4.328   1.291   6.001
 4606WAT      O14059   8.304   7.336   5.316
 4606WAT     H114060   8.206   7.316   5.307
 4606WAT     H214061   8.318   7.400   5.391
 4607WAT      O14062   3.074   3.113   4.233
 4607WAT     H114063   3.120   3.107   4.322
 4607WAT     H214064   3.076   3.023   4.189
 4608WAT      O14065   1.781   6.940   0.754
 4608WAT     H114066   1.737   6.869   0.699
 4608WAT     H214067   1.880   6.932   0.746
 4609WAT      O14068   3.929   5.203   4.644
 4609WAT     H114069   3.868   5.217   4.566
 4609WAT     H214070   3.994   5.279   4.650
 4610WAT      O14071   0.168   9.347   2.475
 4610WAT     H114072   0.091   9.405   2.502
 4610WAT     H214073   0.135   9.276   2.412
 4611WAT      O14074   6.161   9.823   5.670
 4611WAT     H114075   6.105   9.810   5.752
 4611WAT     H214076   6.166   9.737   5.619
 4612WAT      O14077   9.494   9.085   4.601
 4612WAT     H114078   9.487   9.140   4.518
 4612WAT     H214079   9.433   9.006   4.594
 4613WAT      O14080   5.014   7.322   8.414
 4613WAT     H114081   4.924   7.362   8.395
 4613WAT     H214082   5.038   7.260   8.339
 4614WAT      O14083   0.147   3.275   3.894
 4614WAT     H114084   0.166   3.217   3.973
 4614WAT     H214085   0.231   3.292   3.843
 4615WAT      O14086   8.106   8.954   6.160
 4615WAT     H114087   8.132   8.873   6.211
 4615WAT     H214088   8.056   8.927   6.078
 4616WAT      O14089   7.691   1.815   1.409
 4616WAT     H114090   7.756   1.770   1.471
 4616WAT     H214091   7.659   1.900   1.451
 4617WAT      O14092   0.552   1.804   7.432
 4617WAT     H114093   0.607   1.853   7.499
 4617WAT     H214094   0.492   1.739   7.479
 4618WAT      O14095   2.487   3.636   3.690
 4618WAT     H114096   2.468   3.734   3.701
 4618WAT     H214097   2.538   3.603   3.769
 4619WAT      O14098   7.144   5.344   6.013
 4619WAT     H114099   7.048   5.332   6.036
 4619WAT     H214100   7.159   5.437   5.978
 4620WAT      O14101   9.315   7.963   0.973
 4620WAT     H114102   9.239   7.930   1.028
 4620WAT     H214103   9.396   7.975   1.030
 4621WAT      O14104   1.595   8.532   5.610
 4621WAT     H114105   1.499   8.534   5.636
 4621WAT     H214106   1.612   8.452   5.552
 4622WAT      O14107   6.661   5.271   2.029
 4622WAT     H114108   6.585   5.281   1.964
 4622WAT     H214109   6.700   5.360   2.049
 4623WAT      O14110   0.448   5.510   4.430
 4623WAT     H114111   0.489   5.483   4.518
 4623WAT     H214112   0.359   5.465   4.420
 4624WAT      O14113   4.547   7.541   8.467
 4624WAT     H114114   4.460   7.507   8.503
 4624WAT     H214115   4.529   7.619   8.407
 4625WAT      O14116   4.015   6.773   3.289
 4625WAT     H114117   3.921   6.746   3.306
 4625WAT     H214118   4.016   6.863   3.244
 4626WAT      O14119   8.270   6.387   4.334
 4626WAT     H114120   8.195   6.442   4.370
 4626WAT     H214121   8.311   6.335   4.408
 4627WAT      O14122   8.594   7.941   2.881
 4627WAT     H114123   8.499   7.909   2.885
 4627WAT     H214124   8.596   8.040   2.898
 4628WAT      O14125   7.708   7.340   6.970
 4628WAT     H114126   7.778   7.410   6.984
 4628WAT     H214127   7.633   7.354   7.034
 4629WAT      O14128   7.126   4.060   2.193
 4629WAT     H114129   7.145   4.158   2.182
 4629WAT     H214130   7.207   4.007   2.168
 4630WAT      O14131   0.464   3.330   9.772
 4630WAT     H114132   0.430   3.380   9.692
 4630WAT     H214133   0.438   3.234   9.764
 4631WAT      O14134   3.567   0.305   4.244
 4631WAT     H114135   3.632   0.368   4.200
 4631WAT     H214136   3.477   0.316   4.204
 4632WAT      O14137   1.522   9.071   3.620
 4632WAT     H114138   1.610   9.075   3.572
 4632WAT     H214139   1.538   9.083   3.718
 4633WAT      O14140   9.228   9.604   9.234
 4633WAT     H114141   9.266   9.544   9.163
 4633WAT     H214142   9.151   9.656   9.197
 4634WAT      O14143   0.084   3.581   1.152
 4634WAT     H114144   0.077   3.482   1.136
 4634WAT     H214145   0.157   3.619   1.095
 4635WAT      O14146   2.569   4.368   3.630
 4635WAT     H114147   2.488   4.376   3.573
 4635WAT     H214148   2.587   4.455   3.676
 4636WAT      O14149   1.435   0.703   5.331
 4636WAT     H114150   1.382   0.694   5.415
 4636WAT     H214151   1.375   0.690   5.252
 4637WAT      O14152   7.236   3.141   4.428
 4637WAT     H114153   7.168   3.103   4.490
 4637WAT     H214154   7.282   3.067   4.379
 4638WAT      O14155   5.349   0.656   3.765
 4638WAT     H114156   5.269   0.599   3.747
 4638WAT     H214157   5.320   0.750   3.782
 4639WAT      O14158   5.002   9.207   2.714
 4639WAT     H114159   5.080   9.209   2.777
 4639WAT     H214160   4.960   9.298   2.711
 4640WAT      O14161   2.570   3.813   3.245
 4640WAT     H114162   2.655   3.811   3.193
 4640WAT     H214163   2.506   3.746   3.207
 4641WAT      O14164   1.926   6.982   2.483
 4641WAT     H114165   2.019   6.985   2.445
 4641WAT     H214166   1.930   6.950   2.578
 4642WAT      O14167   8.903   8.774   7.066
 4642WAT     H114168   8.931   8.868   7.045
 4642WAT     H214169   8.818   8.753   7.018
 4643WAT      O14170   6.622   4.612   6.432
 4643WAT     H114171   6.661   4.700   6.459
 4643WAT     H214172   6.681   4.569   6.364
 4644WAT      O14173   1.041   3.995   8.121
 4644WAT     H114174   0.988   3.915   8.150
 4644WAT     H214175   0.980   4.074   8.112
 4645WAT      O14176   0.769   4.826   3.514
 4645WAT     H114177   0.837   4.880   3.564
 4645WAT     H214178   0.686   4.880   3.500
 4646WAT      O14179   1.267   0.498   0.810
 4646WAT     H114180   1.344   0.469   0.867
 4646WAT     H214181   1.182   0.465   0.851
 4647WAT      O14182   0.938   9.303   3.216
 4647WAT     H114183   0.929   9.265   3.124
 4647WAT     H214184   0.861   9.272   3.272
 4648WAT      O14185   6.844   3.556   3.683
 4648WAT     H114186   6.899   3.634   3.654
 4648WAT     H214187   6.759   3.554   3.629
 4649WAT      O14188   1.618   4.175   8.903
 4649WAT     H114189   1.547   4.123   8.949
 4649WAT     H214190   1.708   4.137   8.927
 4650WAT      O14191   2.414   9.465   1.556
 4650WAT     H114192   2.450   9.374   1.575
 4650WAT     H214193   2.345   9.489   1.624
 4651WAT      O14194   0.818   8.941   9.589
 4651WAT     H114195   0.910   8.910   9.611
 4651WAT     H214196   0.815   8.977   9.496
 4652WAT      O14197   7.075   6.922   0.016
 4652WAT     H114198   7.113   6.831   0.032
 4652WAT     H214199   7.125   6.966  -0.059
 4653WAT      O14200   6.951   8.151   1.393
 4653WAT     H114201   6.874   8.096   1.360
 4653WAT     H214202   7.010   8.095   1.450
 4654WAT      O14203   2.343   5.549   7.280
 4654WAT     H114204   2.315   5.520   7.188
 4654WAT     H214205   2.430   5.597   7.275
 4655WAT      O14206   9.557   0.409   0.202
 4655WAT     H114207   9.525   0.315   0.217
 4655WAT     H214208   9.622   0.434   0.274
 4656WAT      O14209   2.090   5.559   7.758
 4656WAT     H114210   2.043   5.637   7.801
 4656WAT     H214211   2.182   5.552   7.794
 4657WAT      O14212   9.377   6.634   7.442
 4657WAT     H114213   9.451   6.652   7.507
 4657WAT     H214214   9.415   6.623   7.350
 4658WAT      O14215   3.679   8.637   5.393
 4658WAT     H114216   3.594   8.588   5.413
 4658WAT     H214217   3.720   8.670   5.478
 4659WAT      O14218   4.827   2.104   6.304
 4659WAT     H114219   4.919   2.142   6.316
 4659WAT     H214220   4.824   2.013   6.345
 4660WAT      O14221   5.183   2.659   0.247
 4660WAT     H114222   5.262   2.618   0.293
 4660WAT     H214223   5.172   2.753   0.277
 4661WAT      O14224   5.519   6.456   3.540
 4661WAT     H114225   5.560   6.538   3.500
 4661WAT     H214226   5.472   6.404   3.469
 4662WAT      O14227   7.006   5.217   8.433
 4662WAT     H114228   6.989   5.169   8.347
 4662WAT     H214229   6.920   5.248   8.472
 4663WAT      O14230   4.045   4.883   5.768
 4663WAT     H114231   4.030   4.869   5.670
 4663WAT     H214232   4.060   4.794   5.812
 4664WAT      O14233   5.554   1.330   2.755
 4664WAT     H114234   5.525   1.238   2.728
 4664WAT     H214235   5.641   1.324   2.804
 4665WAT      O14236   4.174   4.471   0.928
 4665WAT     H114237   4.194   4.380   0.963
 4665WAT     H214238   4.257   4.527   0.931
 4666WAT      O14239   6.089   6.683   1.675
 4666WAT     H114240   6.004   6.669   1.624
 4666WAT     H214241   6.124   6.595   1.706
 4667WAT      O14242   1.537   1.383   9.610
 4667WAT     H114243   1.525   1.424   9.520
 4667WAT     H214244   1.517   1.451   9.681
 4668WAT      O14245   2.158   2.648   2.793
 4668WAT     H114246   2.072   2.606   2.822
 4668WAT     H214247   2.213   2.672   2.873
 4669WAT      O14248   0.169   8.630   0.594
 4669WAT     H114249   0.133   8.722   0.580
 4669WAT     H214250   0.242   8.633   0.663
 4670WAT      O14251   4.470   4.351   4.626
 4670WAT     H114252   4.508   4.291   4.555
 4670WAT     H214253   4.395   4.405   4.587
 4671WAT      O14254   7.572   2.479   7.158
 4671WAT     H114255   7.602   2.389   7.188
 4671WAT     H214256   7.473   2.480   7.144
 4672WAT      O14257   1.182   2.483   3.271
 4672WAT     H114258   1.191   2.560   3.335
 4672WAT     H214259   1.215   2.511   3.181
 4673WAT      O14260   5.469   5.893   2.470
 4673WAT     H114261   5.385   5.949   2.470
 4673WAT     H214262   5.495   5.872   2.376
 4674WAT      O14263   5.642   5.464   9.022
 4674WAT     H114264   5.547   5.434   9.030
 4674WAT     H214265   5.694   5.397   8.968
 4675WAT      O14266   3.978   4.837   9.107
 4675WAT     H114267   3.956   4.764   9.043
 4675WAT     H214268   3.934   4.922   9.077
 4676WAT      O14269   3.037   8.709   9.644
 4676WAT     H114270   2.993   8.620   9.654
 4676WAT     H214271   3.053   8.728   9.547
 4677WAT      O14272   2.156   0.453   4.176
 4677WAT     H114273   2.250   0.477   4.155
 4677WAT     H214274   2.099   0.535   4.169
 4678WAT      O14275   2.506   3.387   8.357
 4678WAT     H114276   2.517   3.452   8.431
 4678WAT     H214277   2.592   3.339   8.341
 4679WAT      O14278   8.961   9.235   1.995
 4679WAT     H114279   9.021   9.184   2.057
 4679WAT     H214280   8.874   9.253   2.041
 4680WAT      O14281   2.148   5.592   7.445
 4680WAT     H114282   2.116   5.517   7.504
 4680WAT     H214283   2.237   5.568   7.406
 4681WAT      O14284   9.649   4.681   1.634
 4681WAT     H114285   9.583   4.753   1.653
 4681WAT     H214286   9.733   4.722   1.598
 4682WAT      O14287   8.148   5.101   7.834
 4682WAT     H114288   8.245   5.083   7.817
 4682WAT     H214289   8.123   5.190   7.795
 4683WAT      O14290   1.231   6.167   8.897
 4683WAT     H114291   1.295   6.237   8.869
 4683WAT     H214292   1.240   6.087   8.838
 4684WAT      O14293   4.166   5.894   7.128
 4684WAT     H114294   4.229   5.880   7.204
 4684WAT     H214295   4.160   5.810   7.074
 4685WAT      O14296   7.465   7.547   8.090
 4685WAT     H114297   7.467   7.605   8.171
 4685WAT     H214298   7.406   7.468   8.107
 4686WAT      O14299   2.134   4.437   4.719
 4686WAT     H114300   2.182   4.511   4.766
 4686WAT     H214301   2.112   4.365   4.786
 4687WAT      O14302   3.758   2.397   1.892
 4687WAT     H114303   3.753   2.455   1.974
 4687WAT     H214304   3.754   2.455   1.811
 4688WAT      O14305   2.838   2.776   5.427
 4688WAT     H114306   2.917   2.827   5.393
 4688WAT     H214307   2.772   2.764   5.353
 4689WAT      O14308   2.308   8.169   0.929
 4689WAT     H114309   2.260   8.256   0.938
 4689WAT     H214310   2.366   8.154   1.009
 4690WAT      O14311   2.498   3.534   0.702
 4690WAT     H114312   2.452   3.515   0.788
 4690WAT     H214313   2.431   3.534   0.628
 4691WAT      O14314   3.477   4.305   5.470
 4691WAT     H114315   3.499   4.226   5.413
 4691WAT     H214316   3.422   4.370   5.417
 4692WAT      O14317   3.505   7.983   4.730
 4692WAT     H114318   3.599   8.016   4.734
 4692WAT     H214319   3.471   7.965   4.822
 4693WAT      O14320   5.104   4.081   1.006
 4693WAT     H114321   5.120   4.166   0.957
 4693WAT     H214322   5.073   4.011   0.943
 4694WAT      O14323   7.090   2.095   5.622
 4694WAT     H114324   7.024   2.044   5.678
 4694WAT     H214325   7.053   2.185   5.601
 4695WAT      O14326   7.642   5.068   9.830
 4695WAT     H114327   7.581   5.078   9.908
 4695WAT     H214328   7.736   5.058   9.862
 4696WAT      O14329   6.261   6.813   7.656
 4696WAT     H114330   6.167   6.822   7.692
 4696WAT     H214331   6.302   6.904   7.652
 4697WAT      O14332   0.270   6.197   4.565
 4697WAT     H114333   0.182   6.236   4.537
 4697WAT     H214334   0.323   6.267   4.614
 4698WAT      O14335   1.946   6.541   4.060
 4698WAT     H114336   1.988   6.569   4.147
 4698WAT     H214337   2.006   6.476   4.014
 4699WAT      O14338   7.431   9.679   4.911
 4699WAT     H114339   7.513   9.736   4.904
 4699WAT     H214340   7.425   9.640   5.003
 4700WAT      O14341   3.030   4.143   8.900
 4700WAT     H114342   3.013   4.054   8.857
 4700WAT     H214343   3.128   4.160   8.901
 4701WAT      O14344   9.501   4.477   7.686
 4701WAT     H114345   9.574   4.545   7.686
 4701WAT     H214346   9.468   4.463   7.779
 4702WAT      O14347   6.368   2.202   7.600
 4702WAT     H114348   6.315   2.287   7.600
 4702WAT     H214349   6.460   2.219   7.564
 4703WAT      O14350   0.160   4.686   7.176
 4703WAT     H114351   0.176   4.775   7.134
 4703WAT     H214352   0.185   4.690   7.273
 4704WAT      O14353   0.605   8.016   0.096
 4704WAT     H114354   0.632   8.073   0.174
 4704WAT     H214355   0.619   7.920   0.119
 4705WAT      O14356   1.758   8.729   9.808
 4705WAT     H114357   1.810   8.650   9.840
 4705WAT     H214358   1.779   8.809   9.865
 4706WAT      O14359   3.136   6.233   7.478
 4706WAT     H114360   3.176   6.299   7.542
 4706WAT     H214361   3.201   6.215   7.404
 4707WAT      O14362   3.163   2.937   5.952
 4707WAT     H114363   3.106   2.877   6.008
 4707WAT     H214364   3.244   2.965   6.004
 4708WAT      O14365   0.313   4.131   4.522
 4708WAT     H114366   0.356   4.186   4.450
 4708WAT     H214367   0.258   4.190   4.581
 4709WAT      O14368   4.360   8.503   7.950
 4709WAT     H114369   4.264   8.518   7.973
 4709WAT     H214370   4.407   8.462   8.029
 4710WAT      O14371   2.345   6.596   4.812
 4710WAT     H114372   2.400   6.673   4.779
 4710WAT     H214373   2.405   6.523   4.844
 4711WAT      O14374   6.854   3.779   0.446
 4711WAT     H114375   6.871   3.809   0.540
 4711WAT     H214376   6.818   3.855   0.393
 4712WAT      O14377   1.022   8.238   4.241
 4712WAT     H114378   1.113   8.197   4.253
 4712WAT     H214379   1.028   8.314   4.177
 4713WAT      O14380   5.686   0.998   7.704
 4713WAT     H114381   5.728   1.052   7.777
 4713WAT     H214382   5.588   0.991   7.719
 4714WAT      O14383   2.269   9.674   9.473
 4714WAT     H114384   2.286   9.751   9.412
 4714WAT     H214385   2.192   9.696   9.533
 4715WAT      O14386   0.666   5.909   4.118
 4715WAT     H114387   0.720   5.956   4.188
 4715WAT     H214388   0.568   5.920   4.139
 4716WAT      O14389   1.321   1.248   6.922
 4716WAT     H114390   1.284   1.290   6.839
 4716WAT     H214391   1.418   1.271   6.930
 4717WAT      O14392   1.054   2.496   6.823
 4717WAT     H114393   1.039   2.594   6.809
 4717WAT     H214394   1.005   2.466   6.905
 4718WAT      O14395   5.905   7.739   4.060
 4718WAT     H114396   6.002   7.726   4.080
 4718WAT     H214397   5.876   7.673   3.992
 4719WAT      O14398   9.018   6.993   0.604
 4719WAT     H114399   9.113   7.021   0.616
 4719WAT     H214400   8.958   7.073   0.610
 4720WAT      O14401   5.071   7.851   3.708
 4720WAT     H114402   5.014   7.806   3.776
 4720WAT     H214403   5.088   7.789   3.632
 4721WAT      O14404   8.043   0.863   9.482
 4721WAT     H114405   8.080   0.785   9.533
 4721WAT     H214406   7.944   0.865   9.491
 4722WAT      O14407   7.385   0.101   6.135
 4722WAT     H114408   7.429   0.084   6.223
 4722WAT     H214409   7.449   0.082   6.061
 4723WAT      O14410   5.768   1.261   3.922
 4723WAT     H114411   5.829   1.332   3.888
 4723WAT     H214412   5.822   1.185   3.958
 4724WAT      O14413   4.160   7.308   5.532
 4724WAT     H114414   4.088   7.284   5.597
 4724WAT     H214415   4.119   7.341   5.447
 4725WAT      O14416   6.856   2.128   7.176
 4725WAT     H114417   6.947   2.094   7.155
 4725WAT     H214418   6.806   2.145   7.091
 4726WAT      O14419   2.276   7.560   8.304
 4726WAT     H114420   2.277   7.644   8.359
 4726WAT     H214421   2.214   7.494   8.346
 4727WAT      O14422   3.696   8.941   9.613
 4727WAT     H114423   3.662   9.019   9.666
 4727WAT     H214424   3.657   8.856   9.650
 4728WAT      O14425   2.872   0.596   1.280
 4728WAT     H114426   2.900   0.682   1.322
 4728WAT     H214427   2.938   0.524   1.302
 4729WAT      O14428   0.593   7.953   6.507
 4729WAT     H114429   0.675   7.914   6.465
 4729WAT     H214430   0.562   7.893   6.581
 4730WAT      O14431   7.256   4.972   4.482
 4730WAT     H114432   7.162   4.977   4.517
 4730WAT     H214433   7.256   4.930   4.391
 4731WAT      O14434   1.611   4.308   5.543
 4731WAT     H114435   1.601   4.327   5.445
 4731WAT     H214436   1.588   4.212   5.561
 4732WAT      O14437   5.271   7.817   5.952
 4732WAT     H114438   5.200   7.762   5.997
 4732WAT     H214439   5.319   7.871   6.021
 4733WAT      O14440   8.313   5.086   4.645
 4733WAT     H114441   8.217   5.114   4.649
 4733WAT     H214442   8.369   5.154   4.693
 4734WAT      O14443   9.551   4.925   9.279
 4734WAT     H114444   9.629   4.863   9.282
 4734WAT     H214445   9.521   4.936   9.185
 4735WAT      O14446   0.617   7.435   5.671
 4735WAT     H114447   0.610   7.385   5.584
 4735WAT     H214448   0.615   7.533   5.653
 4736WAT      O14449   8.361   3.389   5.849
 4736WAT     H114450   8.266   3.415   5.832
 4736WAT     H214451   8.370   3.289   5.841
 4737WAT      O14452   1.210   4.396   5.053
 4737WAT     H114453   1.302   4.430   5.069
 4737WAT     H214454   1.202   4.363   4.959
 4738WAT      O14455   9.334   5.953   4.126
 4738WAT     H114456   9.344   5.966   4.225
 4738WAT     H214457   9.239   5.969   4.100
 4739WAT      O14458   4.962   6.393   5.407
 4739WAT     H114459   4.929   6.318   5.465
 4739WAT     H214460   5.037   6.440   5.453
 4740WAT      O14461   1.511   8.631   8.823
 4740WAT     H114462   1.468   8.543   8.802
 4740WAT     H214463   1.449   8.686   8.879
 4741WAT      O14464   4.223   9.320   4.177
 4741WAT     H114465   4.156   9.310   4.104
 4741WAT     H214466   4.277   9.402   4.162
 4742WAT      O14467   9.697   6.534   4.824
 4742WAT     H114468   9.599   6.535   4.844
 4742WAT     H214469   9.717   6.599   4.750
 4743WAT      O14470   2.219   4.590   8.743
 4743WAT     H114471   2.120   4.602   8.738
 4743WAT     H214472   2.246   4.569   8.837
 4744WAT      O14473   0.395   6.426   4.409
 4744WAT     H114474   0.375   6.426   4.507
 4744WAT     H214475   0.312   6.404   4.358
 4745WAT      O14476   6.284   5.063   8.186
 4745WAT     H114477   6.304   5.014   8.270
 4745WAT     H214478   6.229   5.143   8.206
 4746WAT      O14479   0.645   9.077   3.866
 4746WAT     H114480   0.692   9.087   3.954
 4746WAT     H214481   0.599   8.988   3.863
 4747WAT      O14482   1.633   5.786   6.673
 4747WAT     H114483   1.714   5.732   6.652
 4747WAT     H214484   1.625   5.862   6.608
 4748WAT      O14485   9.484   9.029   5.565
 4748WAT     H114486   9.483   9.121   5.526
 4748WAT     H214487   9.392   9.005   5.596
 4749WAT      O14488   3.558   1.875   9.339
 4749WAT     H114489   3.610   1.880   9.424
 4749WAT     H214490   3.536   1.967   9.308
 4750WAT      O14491   3.274   7.185   9.764
 4750WAT     H114492   3.323   7.117   9.818
 4750WAT     H214493   3.318   7.274   9.774
 4751WAT      O14494   7.804   5.595   3.254
 4751WAT     H114495   7.729   5.654   3.284
 4751WAT     H214496   7.883   5.607   3.314
 4752WAT      O14497   2.673   1.711   9.003
 4752WAT     H114498   2.646   1.616   9.020
 4752WAT     H214499   2.742   1.739   9.071
 4753WAT      O14500   6.350   7.997   5.593
 4753WAT     H114501   6.346   8.065   5.665
 4753WAT     H214502   6.289   8.024   5.518
 4754WAT      O14503   3.067   8.354   4.430
 4754WAT     H114504   3.037   8.290   4.359
 4754WAT     H214505   2.998   8.358   4.503
 4755WAT      O14506   8.290   1.420   6.827
 4755WAT     H114507   8.204   1.386   6.864
 4755WAT     H214508   8.364   1.358   6.852
 4756WAT      O14509   0.550   3.564   0.208
 4756WAT     H114510   0.480   3.583   0.277
 4756WAT     H214511   0.557   3.465   0.195
 4757WAT      O14512   6.865   2.944   8.860
 4757WAT     H114513   6.904   2.961   8.950
 4757WAT     H214514   6.848   2.847   8.848
 4758WAT      O14515   1.909   4.293   7.145
 4758WAT     H114516   1.920   4.340   7.233
 4758WAT     H214517   1.907   4.360   7.072
 4759WAT      O14518   6.240   1.645   4.237
 4759WAT     H114519   6.177   1.690   4.300
 4759WAT     H214520   6.190   1.581   4.179
 4760WAT      O14521   0.934   0.372   4.234
 4760WAT     H114522   0.891   0.313   4.165
 4760WAT     H214523   0.953   0.318   4.317
 4761WAT      O14524   4.012   0.967   1.758
 4761WAT     H114525   4.062   0.949   1.673
 4761WAT     H214526   3.916   0.988   1.735
 4762WAT      O14527   7.715   9.448   3.450
 4762WAT     H114528   7.788   9.502   3.407
 4762WAT     H214529   7.644   9.429   3.382
 4763WAT      O14530   0.445   3.124   9.328
 4763WAT     H114531   0.419   3.088   9.239
 4763WAT     H214532   0.370   3.180   9.365
 4764WAT      O14533   4.270   9.132   0.352
 4764WAT     H114534   4.356   9.174   0.324
 4764WAT     H214535   4.194   9.190   0.324
 4765WAT      O14536   0.790   7.549   9.159
 4765WAT     H114537   0.833   7.593   9.238
 4765WAT     H214538   0.856   7.488   9.115
 4766WAT      O14539   7.525   6.277   5.958
 4766WAT     H114540   7.498   6.319   6.044
 4766WAT     H214541   7.597   6.331   5.914
 4767WAT      O14542   8.206   8.562   6.024
 4767WAT     H114543   8.160   8.617   6.094
 4767WAT     H214544   8.254   8.623   5.960
 4768WAT      O14545   8.108   4.400   8.310
 4768WAT     H114546   8.142   4.307   8.321
 4768WAT     H214547   8.180   4.458   8.271
 4769WAT      O14548   1.593   1.154   2.080
 4769WAT     H114549   1.559   1.151   2.174
 4769WAT     H214550   1.532   1.101   2.021
 4770WAT      O14551   3.782   1.766   1.624
 4770WAT     H114552   3.817   1.859   1.633
 4770WAT     H214553   3.852   1.708   1.581
 4771WAT      O14554   1.151   7.571   1.966
 4771WAT     H114555   1.149   7.478   1.929
 4771WAT     H214556   1.202   7.572   2.052
 4772WAT      O14557   4.095   1.591   5.847
 4772WAT     H114558   4.155   1.664   5.879
 4772WAT     H214559   4.036   1.562   5.923
 4773WAT      O14560   3.203   2.076   6.125
 4773WAT     H114561   3.206   2.099   6.027
 4773WAT     H214562   3.256   2.143   6.177
 4774WAT      O14563   7.189   7.294   1.914
 4774WAT     H114564   7.232   7.371   1.865
 4774WAT     H214565   7.091   7.294   1.894
 4775WAT      O14566   5.983   9.270   6.235
 4775WAT     H114567   6.057   9.304   6.293
 4775WAT     H214568   5.958   9.339   6.168
 4776WAT      O14569   3.725   0.174   7.968
 4776WAT     H114570   3.705   0.119   8.049
 4776WAT     H214571   3.661   0.151   7.895
 4777WAT      O14572   9.789   9.721   7.700
 4777WAT     H114573   9.871   9.684   7.744
 4777WAT     H214574   9.762   9.662   7.624
 4778WAT      O14575   7.485   6.207   8.090
 4778WAT     H114576   7.578   6.174   8.075
 4778WAT     H214577   7.476   6.243   8.183
 4779WAT      O14578   0.311   7.797   1.480
 4779WAT     H114579   0.237   7.775   1.544
 4779WAT     H214580   0.336   7.715   1.429
 4780WAT      O14581   9.778   9.537   6.307
 4780WAT     H114582   9.696   9.595   6.306
 4780WAT     H214583   9.765   9.458   6.248
 4781WAT      O14584   0.732   0.007   9.752
 4781WAT     H114585   0.672   0.011   9.672
 4781WAT     H214586   0.804   0.076   9.744
 4782WAT      O14587   7.618   7.288   1.113
 4782WAT     H114588   7.635   7.358   1.044
 4782WAT     H214589   7.617   7.329   1.204
 4783WAT      O14590   9.613   5.457   4.559
 4783WAT     H114591   9.530   5.483   4.608
 4783WAT     H214592   9.680   5.419   4.623
 4784WAT      O14593   2.319   9.115   1.016
 4784WAT     H114594   2.232   9.089   1.058
 4784WAT     H214595   2.383   9.145   1.087
 4785WAT      O14596   2.133   1.908   6.583
 4785WAT     H114597   2.189   1.955   6.650
 4785WAT     H214598   2.040   1.897   6.619
 4786WAT      O14599   5.351   6.956   3.814
 4786WAT     H114600   5.345   6.967   3.715
 4786WAT     H214601   5.446   6.956   3.842
 4787WAT      O14602   5.363   2.713   7.412
 4787WAT     H114603   5.445   2.656   7.413
 4787WAT     H214604   5.285   2.659   7.382
 4788WAT      O14605   9.153   6.289   6.972
 4788WAT     H114606   9.157   6.355   7.048
 4788WAT     H214607   9.072   6.307   6.917
 4789WAT      O14608   7.782   5.671   6.062
 4789WAT     H114609   7.701   5.712   6.104
 4789WAT     H214610   7.863   5.693   6.116
 4790WAT      O14611   8.521   5.653   3.749
 4790WAT     H114612   8.476   5.739   3.772
 4790WAT     H214613   8.451   5.583   3.733
 4791WAT      O14614   6.841   8.144   8.929
 4791WAT     H114615   6.828   8.177   8.836
 4791WAT     H214616   6.927   8.180   8.966
 4792WAT      O14617   8.010   6.687   3.909
 4792WAT     H114618   8.052   6.723   3.825
 4792WAT     H214619   7.914   6.666   3.892
 4793WAT      O14620   3.421   1.481   2.894
 4793WAT     H114621   3.428   1.541   2.814
 4793WAT     H214622   3.471   1.396   2.877
 4794WAT      O14623   7.870   7.823   7.049
 4794WAT     H114624   7.902   7.871   7.131
 4794WAT     H214625   7.945   7.771   7.010
 4795WAT      O14626   4.908   0.089   2.040
 4795WAT     H114627   4.914   0.034   2.124
 4795WAT     H214628   4.924   0.185   2.062
 4796WAT      O14629   3.532   6.764   5.923
 4796WAT     H114630   3.603   6.835   5.925
 4796WAT     H214631   3.442   6.807   5.928
 4797WAT      O14632   7.607   4.895   2.805
 4797WAT     H114633   7.619   4.917   2.902
 4797WAT     H214634   7.537   4.825   2.795
 4798WAT      O14635   6.102   8.864   9.364
 4798WAT     H114636   6.052   8.852   9.278
 4798WAT     H214637   6.200   8.852   9.347
 4799WAT      O14638   6.948   7.762   5.292
 4799WAT     H114639   7.013   7.696   5.253
 4799WAT     H214640   6.868   7.769   5.233
 4800WAT      O14641   8.821   3.147   0.956
 4800WAT     H114642   8.846   3.082   0.884
 4800WAT     H214643   8.726   3.176   0.943
 4801WAT      O14644   8.559   0.565   2.191
 4801WAT     H114645   8.489   0.495   2.207
 4801WAT     H214646   8.558   0.630   2.267
 4802WAT      O14647   9.388   5.261   4.825
 4802WAT     H114648   9.345   5.194   4.765
 4802WAT     H214649   9.484   5.238   4.837
 4803WAT      O14650   9.309   5.916   2.811
 4803WAT     H114651   9.322   5.838   2.872
 4803WAT     H214652   9.398   5.948   2.778
 4804WAT      O14653   3.400   6.711   6.315
 4804WAT     H114654   3.329   6.733   6.382
 4804WAT     H214655   3.357   6.680   6.230
 4805WAT      O14656   3.620   4.351   8.590
 4805WAT     H114657   3.651   4.423   8.528
 4805WAT     H214658   3.526   4.326   8.568
 4806WAT      O14659   2.270   3.577   0.942
 4806WAT     H114660   2.250   3.483   0.970
 4806WAT     H214661   2.301   3.629   1.022
 4807WAT      O14662   7.327   1.232   4.716
 4807WAT     H114663   7.245   1.252   4.771
 4807WAT     H214664   7.303   1.167   4.644
 4808WAT      O14665   3.939   0.596   2.781
 4808WAT     H114666   3.897   0.525   2.724
 4808WAT     H214667   4.003   0.554   2.845
 4809WAT      O14668   7.511   0.201   7.359
 4809WAT     H114669   7.418   0.218   7.392
 4809WAT     H214670   7.514   0.110   7.317
 4810WAT      O14671   9.409   9.295   6.417
 4810WAT     H114672   9.436   9.200   6.432
 4810WAT     H214673   9.444   9.352   6.492
 4811WAT      O14674   5.269   2.245   5.829
 4811WAT     H114675   5.177   2.280   5.850
 4811WAT     H214676   5.283   2.158   5.876
 4812WAT      O14677   8.145   1.786   6.047
 4812WAT     H114678   8.238   1.815   6.028
 4812WAT     H214679   8.130   1.785   6.146
 4813WAT      O14680   5.001   1.786   2.087
 4813WAT     H114681   5.062   1.708   2.070
 4813WAT     H214682   5.021   1.859   2.022
 4814WAT      O14683   9.327   7.356   4.422
 4814WAT     H114684   9.425   7.346   4.439
 4814WAT     H214685   9.283   7.267   4.430
 4815WAT      O14686   8.862   6.045   0.984
 4815WAT     H114687   8.919   6.038   0.902
 4815WAT     H214688   8.779   5.991   0.973
 4816WAT      O14689   5.612   9.002   7.804
 4816WAT     H114690   5.594   9.097   7.775
 4816WAT     H214691   5.702   8.974   7.772
 4817WAT      O14692   5.441   3.642   9.254
 4817WAT     H114693   5.449   3.734   9.215
 4817WAT     H214694   5.447   3.648   9.354
 4818WAT      O14695   1.073   6.122   9.846
 4818WAT     H114696   1.130   6.197   9.878
 4818WAT     H214697   1.105   6.036   9.888
 4819WAT      O14698   7.947   0.894   2.886
 4819WAT     H114699   7.884   0.845   2.946
 4819WAT     H214700   7.897   0.931   2.808
 4820WAT      O14701   0.125   4.094   0.290
 4820WAT     H114702   0.036   4.088   0.336
 4820WAT     H214703   0.158   4.188   0.292
 4821WAT      O14704   3.090   2.069   5.036
 4821WAT     H114705   3.047   2.001   4.977
 4821WAT     H214706   3.053   2.062   5.129
 4822WAT      O14707   9.406   2.668   4.316
 4822WAT     H114708   9.460   2.706   4.391
 4822WAT     H214709   9.418   2.568   4.314
 4823WAT      O14710   1.449   2.688   2.959
 4823WAT     H114711   1.470   2.751   3.034
 4823WAT     H214712   1.525   2.625   2.945
 4824WAT      O14713   1.807   0.336   6.465
 4824WAT     H114714   1.729   0.289   6.424
 4824WAT     H214715   1.784   0.433   6.479
 4825WAT      O14716   7.348   1.540   8.103
 4825WAT     H114717   7.277   1.480   8.138
 4825WAT     H214718   7.396   1.584   8.180
 4826WAT      O14719   0.683   0.823   7.962
 4826WAT     H114720   0.699   0.767   8.044
 4826WAT     H214721   0.623   0.899   7.985
 4827WAT      O14722   0.738   7.391   4.296
 4827WAT     H114723   0.689   7.308   4.320
 4827WAT     H214724   0.703   7.427   4.209
 4828WAT      O14725   4.035   4.577   3.892
 4828WAT     H114726   4.069   4.580   3.986
 4828WAT     H214727   4.070   4.496   3.846
 4829WAT      O14728   6.776   4.550   6.226
 4829WAT     H114729   6.741   4.591   6.142
 4829WAT     H214730   6.860   4.596   6.253
 4830WAT      O14731   0.570   6.960   4.035
 4830WAT     H114732   0.502   7.025   4.069
 4830WAT     H214733   0.662   6.993   4.058
 4831WAT      O14734   0.103   4.460   2.478
 4831WAT     H114735   0.036   4.533   2.472
 4831WAT     H214736   0.149   4.463   2.567
 4832WAT      O14737   6.993   6.350   3.298
 4832WAT     H114738   6.909   6.302   3.275
 4832WAT     H214739   7.043   6.299   3.368
 4833WAT      O14740   8.395   5.956   8.624
 4833WAT     H114741   8.429   5.961   8.530
 4833WAT     H214742   8.467   5.920   8.683
 4834WAT      O14743   8.166   9.807   2.147
 4834WAT     H114744   8.263   9.831   2.139
 4834WAT     H214745   8.156   9.708   2.147
 4835WAT      O14746   4.138   0.462   0.356
 4835WAT     H114747   4.154   0.382   0.413
 4835WAT     H214748   4.172   0.544   0.403
 4836WAT      O14749   4.040   4.074   7.171
 4836WAT     H114750   4.109   4.127   7.221
 4836WAT     H214751   4.042   3.979   7.202
 4837WAT      O14752   4.188   9.844   7.787
 4837WAT     H114753   4.189   9.830   7.886
 4837WAT     H214754   4.262   9.793   7.745
 4838WAT      O14755   8.090   3.511   3.107
 4838WAT     H114756   8.098   3.542   3.201
 4838WAT     H214757   8.110   3.587   3.045
 4839WAT      O14758   9.240   3.582   6.831
 4839WAT     H114759   9.229   3.618   6.923
 4839WAT     H214760   9.334   3.594   6.801
 4840WAT      O14761   2.679   8.140   3.285
 4840WAT     H114762   2.747   8.206   3.255
 4840WAT     H214763   2.661   8.074   3.211
 4841WAT      O14764   9.426   8.104   1.306
 4841WAT     H114765   9.462   8.025   1.256
 4841WAT     H214766   9.362   8.154   1.248
 4842WAT      O14767   0.398   6.690   9.771
 4842WAT     H114768   0.350   6.758   9.827
 4842WAT     H214769   0.361   6.691   9.679
 4843WAT      O14770   3.017   9.763   4.343
 4843WAT     H114771   2.941   9.733   4.286
 4843WAT     H214772   3.001   9.734   4.438
 4844WAT      O14773   6.052   0.976   1.604
 4844WAT     H114774   6.070   1.044   1.674
 4844WAT     H214775   5.956   0.948   1.608
 4845WAT      O14776   3.967   3.006   4.194
 4845WAT     H114777   3.936   3.101   4.193
 4845WAT     H214778   4.048   2.997   4.137
 4846WAT      O14779   7.299   1.107   3.217
 4846WAT     H114780   7.393   1.130   3.242
 4846WAT     H214781   7.299   1.038   3.145
 4847WAT      O14782   3.722   6.110   9.522
 4847WAT     H114783   3.675   6.041   9.467
 4847WAT     H214784   3.654   6.164   9.572
 4848WAT      O14785   2.384   6.839   0.103
 4848WAT     H114786   2.460   6.819   0.042
 4848WAT     H214787   2.414   6.903   0.174
 4849WAT      O14788   4.509   3.182   2.043
 4849WAT     H114789   4.480   3.203   2.137
 4849WAT     H214790   4.464   3.244   1.980
 4850WAT      O14791   5.988   2.634   6.899
 4850WAT     H114792   5.894   2.661   6.879
 4850WAT     H214793   6.045   2.715   6.909
 4851WAT      O14794   7.122   0.390   4.493
 4851WAT     H114795   7.034   0.433   4.471
 4851WAT     H214796   7.156   0.340   4.414
 4852WAT      O14797   6.889   3.821   7.170
 4852WAT     H114798   6.880   3.787   7.077
 4852WAT     H214799   6.896   3.743   7.233
 4853WAT      O14800   8.149   6.140   9.772
 4853WAT     H114801   8.115   6.069   9.833
 4853WAT     H214802   8.169   6.100   9.682
 4854WAT      O14803   5.110   1.664   0.819
 4854WAT     H114804   5.030   1.626   0.772
 4854WAT     H214805   5.100   1.764   0.826
 4855WAT      O14806   1.572   2.921   9.341
 4855WAT     H114807   1.494   2.934   9.402
 4855WAT     H214808   1.551   2.851   9.273
 4856WAT      O14809   5.558   5.213   7.619
 4856WAT     H114810   5.559   5.143   7.691
 4856WAT     H214811   5.465   5.249   7.609
 4857WAT      O14812   4.823   4.508   3.896
 4857WAT     H114813   4.891   4.440   3.869
 4857WAT     H214814   4.839   4.592   3.844
 4858WAT      O14815   0.253   8.576   7.711
 4858WAT     H114816   0.187   8.622   7.650
 4858WAT     H214817   0.272   8.635   7.789
 4859WAT      O14818   5.401   0.239   0.231
 4859WAT     H114819   5.304   0.242   0.257
 4859WAT     H214820   5.456   0.274   0.307
 4860WAT      O14821   4.109   7.764   4.732
 4860WAT     H114822   4.093   7.841   4.669
 4860WAT     H214823   4.179   7.704   4.695
 4861WAT      O14824   3.303   0.228   8.959
 4861WAT     H114825   3.359   0.311   8.952
 4861WAT     H214826   3.209   0.254   8.983
 4862WAT      O14827   5.848   8.818   1.898
 4862WAT     H114828   5.832   8.738   1.956
 4862WAT     H214829   5.943   8.818   1.867
 4863WAT      O14830   5.051   5.199   6.517
 4863WAT     H114831   5.014   5.291   6.506
 4863WAT     H214832   5.150   5.201   6.507
 4864WAT      O14833   0.744   3.474   1.245
 4864WAT     H114834   0.718   3.384   1.208
 4864WAT     H214835   0.663   3.533   1.248
 4865WAT      O14836   8.383   5.373   7.871
 4865WAT     H114837   8.417   5.285   7.839
 4865WAT     H214838   8.461   5.433   7.892
 4866WAT      O14839   5.703   5.833   8.324
 4866WAT     H114840   5.778   5.775   8.355
 4866WAT     H214841   5.617   5.801   8.365
 4867WAT      O14842   2.592   9.784   2.062
 4867WAT     H114843   2.601   9.877   2.098
 4867WAT     H214844   2.625   9.719   2.131
 4868WAT      O14845   1.428   9.244   4.790
 4868WAT     H114846   1.342   9.271   4.746
 4868WAT     H214847   1.483   9.190   4.727
 4869WAT      O14848   4.330   4.146   2.669
 4869WAT     H114849   4.264   4.185   2.734
 4869WAT     H214850   4.421   4.183   2.688
 4870WAT      O14851   8.595   7.623   5.135
 4870WAT     H114852   8.690   7.603   5.109
 4870WAT     H214853   8.583   7.722   5.140
 4871WAT      O14854   2.186   2.224   2.385
 4871WAT     H114855   2.226   2.231   2.476
 4871WAT     H214856   2.093   2.187   2.391
 4872WAT      O14857   8.997   5.531   4.099
 4872WAT     H114858   9.097   5.539   4.091
 4872WAT     H214859   8.956   5.622   4.091
 4873WAT      O14860   2.355   4.373   3.481
 4873WAT     H114861   2.287   4.319   3.431
 4873WAT     H214862   2.378   4.455   3.429
 4874WAT      O14863   9.861   7.778   5.120
 4874WAT     H114864   9.846   7.698   5.062
 4874WAT     H214865   9.776   7.831   5.125
 4875WAT      O14866   5.184   5.471   7.503
 4875WAT     H114867   5.162   5.402   7.434
 4875WAT     H214868   5.138   5.557   7.479
 4876WAT      O14869   0.548   2.821   1.506
 4876WAT     H114870   0.577   2.814   1.601
 4876WAT     H214871   0.451   2.798   1.499
 4877WAT      O14872   8.240   7.378   9.008
 4877WAT     H114873   8.248   7.353   8.912
 4877WAT     H214874   8.330   7.375   9.051
 4878WAT      O14875   1.370   5.252   8.829
 4878WAT     H114876   1.319   5.167   8.818
 4878WAT     H214877   1.308   5.325   8.856
 4879WAT      O14878   2.775   8.278   8.424
 4879WAT     H114879   2.732   8.189   8.440
 4879WAT     H214880   2.707   8.341   8.386
 4880WAT      O14881   4.579   8.538   5.605
 4880WAT     H114882   4.621   8.609   5.661
 4880WAT     H214883   4.591   8.561   5.508
 4881WAT      O14884   7.401   0.232   7.086
 4881WAT     H114885   7.391   0.327   7.059
 4881WAT     H214886   7.425   0.226   7.183
 4882WAT      O14887   2.353   1.800   9.387
 4882WAT     H114888   2.316   1.781   9.478
 4882WAT     H214889   2.390   1.893   9.386
 4883WAT      O14890   4.569   0.767   1.499
 4883WAT     H114891   4.542   0.863   1.513
 4883WAT     H214892   4.500   0.722   1.443
 4884WAT      O14893   9.297   0.459   0.800
 4884WAT     H114894   9.276   0.407   0.883
 4884WAT     H214895   9.390   0.436   0.769
 4885WAT      O14896   0.855   2.457   7.051
 4885WAT     H114897   0.876   2.546   7.090
 4885WAT     H214898   0.798   2.469   6.970
 4886WAT      O14899   7.103   4.705   4.055
 4886WAT     H114900   7.096   4.805   4.061
 4886WAT     H214901   7.185   4.674   4.105
 4887WAT      O14902   1.061   1.102   3.912
 4887WAT     H114903   1.096   1.187   3.953
 4887WAT     H214904   1.028   1.042   3.984
 4888WAT      O14905   4.274   7.104   7.829
 4888WAT     H114906   4.363   7.143   7.804
 4888WAT     H214907   4.258   7.021   7.775
 4889WAT      O14908   2.638   3.686   7.471
 4889WAT     H114909   2.617   3.632   7.552
 4889WAT     H214910   2.577   3.765   7.467
 4890WAT      O14911   7.454   7.947   3.887
 4890WAT     H114912   7.489   7.923   3.796
 4890WAT     H214913   7.360   7.977   3.880
 4891WAT      O14914   2.401   1.902   4.272
 4891WAT     H114915   2.496   1.916   4.244
 4891WAT     H214916   2.388   1.936   4.365
 4892WAT      O14917   7.004   4.491   6.439
 4892WAT     H114918   7.092   4.538   6.428
 4892WAT     H214919   6.964   4.516   6.527
 4893WAT      O14920   0.312   1.464   8.535
 4893WAT     H114921   0.360   1.418   8.610
 4893WAT     H214922   0.305   1.402   8.457
 4894WAT      O14923   4.923   7.843   7.119
 4894WAT     H114924   4.994   7.773   7.117
 4894WAT     H214925   4.852   7.821   7.052
 4895WAT      O14926   3.651   9.188   8.999
 4895WAT     H114927   3.637   9.116   8.931
 4895WAT     H214928   3.578   9.184   9.067
 4896WAT      O14929   6.720   7.666   4.314
 4896WAT     H114930   6.697   7.747   4.368
 4896WAT     H214931   6.694   7.681   4.219
 4897WAT      O14932   7.995   3.823   5.188
 4897WAT     H114933   8.069   3.853   5.127
 4897WAT     H214934   8.019   3.734   5.227
 4898WAT      O14935   0.407   7.582   6.607
 4898WAT     H114936   0.471   7.513   6.572
 4898WAT     H214937   0.316   7.564   6.569
 4899WAT      O14938   3.175   8.200   5.241
 4899WAT     H114939   3.107   8.151   5.186
 4899WAT     H214940   3.133   8.284   5.278
 4900WAT      O14941   0.729   8.982   4.260
 4900WAT     H114942   0.662   9.039   4.308
 4900WAT     H214943   0.789   8.938   4.327
 4901WAT      O14944   5.699   9.607   1.804
 4901WAT     H114945   5.791   9.594   1.841
 4901WAT     H214946   5.635   9.620   1.880
 4902WAT      O14947   3.629   6.180   8.680
 4902WAT     H114948   3.639   6.124   8.762
 4902WAT     H214949   3.637   6.277   8.705
 4903WAT      O14950   3.669   7.060   3.944
 4903WAT     H114951   3.686   7.151   3.906
 4903WAT     H214952   3.616   7.069   4.029
 4904WAT      O14953   6.848   8.893   8.403
 4904WAT     H114954   6.829   8.817   8.341
 4904WAT     H214955   6.946   8.901   8.417
 4905WAT      O14956   1.395   1.820   6.078
 4905WAT     H114957   1.356   1.847   5.990
 4905WAT     H214958   1.342   1.861   6.152
 4906WAT      O14959   4.801   9.155   8.169
 4906WAT     H114960   4.774   9.071   8.122
 4906WAT     H214961   4.730   9.180   8.236
 4907WAT      O14962   2.121   2.889   0.547
 4907WAT     H114963   2.051   2.954   0.575
 4907WAT     H214964   2.089   2.838   0.467
 4908WAT      O14965   0.906   6.586   1.291
 4908WAT     H114966   0.817   6.626   1.313
 4908WAT     H214967   0.898   6.486   1.292
 4909WAT      O14968   5.254   1.666   3.626
 4909WAT     H114969   5.342   1.713   3.625
 4909WAT     H214970   5.250   1.601   3.550
 4910WAT      O14971   5.596   8.081   4.574
 4910WAT     H114972   5.564   8.167   4.614
 4910WAT     H214973   5.630   8.099   4.481
 4911WAT      O14974   5.982   0.627   0.855
 4911WAT     H114975   5.895   0.667   0.827
 4911WAT     H214976   5.973   0.587   0.947
 4912WAT      O14977   1.468   6.403   0.620
 4912WAT     H114978   1.430   6.325   0.570
 4912WAT     H214979   1.567   6.409   0.602
 4913WAT      O14980   3.544   9.486   7.623
 4913WAT     H114981   3.608   9.562   7.633
 4913WAT     H214982   3.593   9.404   7.596
 4914WAT      O14983   5.672   9.130   1.238
 4914WAT     H114984   5.758   9.172   1.266
 4914WAT     H214985   5.601   9.200   1.233
 4915WAT      O14986   4.806   5.726   1.287
 4915WAT     H114987   4.774   5.632   1.279
 4915WAT     H214988   4.777   5.764   1.375
 4916WAT      O14989   9.415   7.489   5.026
 4916WAT     H114990   9.346   7.422   4.999
 4916WAT     H214991   9.428   7.555   4.952
 4917WAT      O14992   7.511   7.113   3.460
 4917WAT     H114993   7.428   7.166   3.442
 4917WAT     H214994   7.548   7.080   3.373
 4918WAT      O14995   7.175   5.240   1.130
 4918WAT     H114996   7.221   5.155   1.107
 4918WAT     H214997   7.129   5.231   1.218
 4919WAT      O14998   5.990   1.521   0.906
 4919WAT     H114999   5.947   1.452   0.963
 4919WAT     H215000   5.920   1.573   0.857
 4920WAT      O15001   2.193   4.429   9.574
 4920WAT     H115002   2.183   4.473   9.663
 4920WAT     H215003   2.240   4.341   9.586
 4921WAT      O15004   4.078   6.478   4.776
 4921WAT     H115005   4.077   6.412   4.701
 4921WAT     H215006   3.995   6.534   4.772
 4922WAT      O15007   1.565   1.301   0.757
 4922WAT     H115008   1.577   1.248   0.840
 4922WAT     H215009   1.543   1.396   0.780
 4923WAT      O15010   3.682   6.798   3.448
 4923WAT     H115011   3.707   6.709   3.410
 4923WAT     H215012   3.624   6.785   3.528
 4924WAT      O15013   0.855   4.926   8.934
 4924WAT     H115014   0.899   4.864   8.998
 4924WAT     H215015   0.892   5.018   8.945
 4925WAT      O15016   5.794   1.787   3.038
 4925WAT     H115017   5.696   1.798   3.022
 4925WAT     H215018   5.810   1.758   3.132
 4926WAT      O15019   3.577   7.117   0.222
 4926WAT     H115020   3.493   7.065   0.212
 4926WAT     H215021   3.621   7.092   0.309
 4927WAT      O15022   3.053   8.520   2.002
 4927WAT     H115023   3.143   8.540   2.041
 4927WAT     H215024   2.985   8.582   2.042
 4928WAT      O15025   0.551   1.188   2.299
 4928WAT     H115026   0.574   1.104   2.349
 4928WAT     H215027   0.635   1.240   2.283
 4929WAT      O15028   5.645   6.412   7.782
 4929WAT     H115029   5.574   6.454   7.840
 4929WAT     H215030   5.644   6.313   7.794
 4930WAT      O15031   7.854   6.545   1.092
 4930WAT     H115032   7.865   6.555   0.993
 4930WAT     H215033   7.761   6.569   1.118
 4931WAT      O15034   0.480   1.064   0.221
 4931WAT     H115035   0.454   1.036   0.313
 4931WAT     H215036   0.400   1.059   0.161
 4932WAT      O15037   1.377   0.376   5.193
 4932WAT     H115038   1.403   0.368   5.289
 4932WAT     H215039   1.355   0.471   5.173
 4933WAT      O15040   0.102   2.975   1.546
 4933WAT     H115041   0.108   3.039   1.470
 4933WAT     H215042   0.074   3.024   1.629
 4934WAT      O15043   1.163   5.728   3.272
 4934WAT     H115044   1.081   5.719   3.217
 4934WAT     H215045   1.229   5.657   3.247
 4935WAT      O15046   4.339   7.775   6.448
 4935WAT     H115047   4.270   7.820   6.392
 4935WAT     H215048   4.381   7.701   6.395
 4936WAT      O15049   0.772   0.947   0.594
 4936WAT     H115050   0.745   1.036   0.633
 4936WAT     H215051   0.803   0.887   0.667
 4937WAT      O15052   9.740   1.880   7.809
 4937WAT     H115053   9.644   1.853   7.812
 4937WAT     H215054   9.767   1.899   7.714
 4938WAT      O15055   4.283   5.993   2.167
 4938WAT     H115056   4.325   5.905   2.189
 4938WAT     H215057   4.323   6.064   2.225
 4939WAT      O15058   9.618   4.949   8.383
 4939WAT     H115059   9.621   4.953   8.283
 4939WAT     H215060   9.561   4.871   8.411
 4940WAT      O15061   9.247   5.012   3.593
 4940WAT     H115062   9.160   4.986   3.635
 4940WAT     H215063   9.315   5.027   3.665
 4941WAT      O15064   0.281   3.295   7.138
 4941WAT     H115065   0.266   3.311   7.235
 4941WAT     H215066   0.204   3.333   7.086
 4942WAT      O15067   4.371   7.727   1.272
 4942WAT     H115068   4.450   7.701   1.217
 4942WAT     H215069   4.332   7.812   1.236
 4943WAT      O15070   7.932   4.312   3.876
 4943WAT     H115071   7.905   4.221   3.845
 4943WAT     H215072   8.011   4.344   3.823
 4944WAT      O15073   1.382   3.981   3.979
 4944WAT     H115074   1.359   3.927   4.061
 4944WAT     H215075   1.298   4.015   3.937
 4945WAT      O15076   3.861   6.551   2.659
 4945WAT     H115077   3.848   6.460   2.696
 4945WAT     H215078   3.785   6.610   2.686
 4946WAT      O15079   7.166   3.460   1.762
 4946WAT     H115080   7.151   3.454   1.860
 4946WAT     H215081   7.122   3.383   1.717
 4947WAT      O15082   0.966   5.955   5.068
 4947WAT     H115083   1.040   5.895   5.100
 4947WAT     H215084   1.003   6.045   5.047
 4948WAT      O15085   3.956   7.844   3.164
 4948WAT     H115086   3.958   7.746   3.183
 4948WAT     H215087   3.929   7.894   3.247
 4949WAT      O15088   0.716   0.182   2.501
 4949WAT     H115089   0.714   0.168   2.600
 4949WAT     H215090   0.627   0.217   2.471
 4950WAT      O15091   9.858   6.090   9.595
 4950WAT     H115092   9.851   6.154   9.519
 4950WAT     H215093   9.766   6.058   9.620
 4951WAT      O15094   7.580   2.191   9.114
 4951WAT     H115095   7.613   2.105   9.075
 4951WAT     H215096   7.542   2.174   9.205
 4952WAT      O15097   7.970   4.716   4.004
 4952WAT     H115098   8.047   4.659   3.975
 4952WAT     H215099   7.910   4.733   3.926
 4953WAT      O15100   3.641   1.553   8.748
 4953WAT     H115101   3.581   1.473   8.738
 4953WAT     H215102   3.594   1.635   8.716
 4954WAT      O15103   0.145   1.356   4.913
 4954WAT     H115104   0.080   1.432   4.913
 4954WAT     H215105   0.150   1.317   4.822
 4955WAT      O15106   2.651   3.589   8.097
 4955WAT     H115107   2.588   3.514   8.077
 4955WAT     H215108   2.745   3.557   8.085
 4956WAT      O15109   5.888   3.517   1.976
 4956WAT     H115110   5.862   3.432   2.020
 4956WAT     H215111   5.985   3.535   1.994
 4957WAT      O15112   1.799   3.123   5.701
 4957WAT     H115113   1.741   3.202   5.684
 4957WAT     H215114   1.810   3.071   5.616
 4958WAT      O15115   3.788   3.749   1.004
 4958WAT     H115116   3.803   3.699   1.089
 4958WAT     H215117   3.691   3.768   0.993
 4959WAT      O15118   2.454   8.607   9.349
 4959WAT     H115119   2.497   8.543   9.286
 4959WAT     H215120   2.375   8.564   9.392
 4960WAT      O15121   9.346   8.955   3.597
 4960WAT     H115122   9.257   8.996   3.617
 4960WAT     H215123   9.338   8.856   3.599
 4961WAT      O15124   3.527   1.357   5.952
 4961WAT     H115125   3.613   1.383   5.909
 4961WAT     H215126   3.544   1.324   6.045
 4962WAT      O15127   3.774   2.318   8.373
 4962WAT     H115128   3.861   2.278   8.344
 4962WAT     H215129   3.776   2.334   8.472
 4963WAT      O15130   4.963   1.660   5.809
 4963WAT     H115131   5.002   1.744   5.772
 4963WAT     H215132   4.869   1.678   5.840
 4964WAT      O15133   2.963   0.001   5.652
 4964WAT     H115134   2.950   0.067   5.578
 4964WAT     H215135   2.881  -0.002   5.709
 4965WAT      O15136   4.154   2.483   2.263
 4965WAT     H115137   4.212   2.424   2.206
 4965WAT     H215138   4.143   2.571   2.217
 4966WAT      O15139   4.523   7.439   5.892
 4966WAT     H115140   4.472   7.353   5.893
 4966WAT     H215141   4.539   7.468   5.798
 4967WAT      O15142   0.783   5.464   5.580
 4967WAT     H115143   0.716   5.529   5.616
 4967WAT     H215144   0.863   5.513   5.546
 4968WAT      O15145   8.538   1.143   0.539
 4968WAT     H115146   8.526   1.221   0.601
 4968WAT     H215147   8.595   1.074   0.583
 4969WAT      O15148   2.084   0.389   3.190
 4969WAT     H115149   2.114   0.298   3.161
 4969WAT     H215150   2.122   0.409   3.280
 4970WAT      O15151   7.938   6.771   6.878
 4970WAT     H115152   7.944   6.719   6.964
 4970WAT     H215153   8.013   6.743   6.818
 4971WAT      O15154   7.549   6.507   4.002
 4971WAT     H115155   7.602   6.516   4.087
 4971WAT     H215156   7.506   6.417   4.000
 4972WAT      O15157   2.537   7.251   2.626
 4972WAT     H115158   2.594   7.171   2.641
 4972WAT     H215159   2.590   7.334   2.643
 4973WAT      O15160   1.341   5.209   7.833
 4973WAT     H115161   1.368   5.231   7.739
 4973WAT     H215162   1.299   5.118   7.835
 4974WAT      O15163   8.440   7.559   7.134
 4974WAT     H115164   8.471   7.558   7.229
 4974WAT     H215165   8.341   7.573   7.132
 4975WAT      O15166   8.930   7.368   8.686
 4975WAT     H115167   8.998   7.299   8.663
 4975WAT     H215168   8.871   7.384   8.607
 4976WAT      O15169   2.679   9.150   2.234
 4976WAT     H115170   2.580   9.162   2.233
 4976WAT     H215171   2.715   9.174   2.324
 4977WAT      O15172   4.040   7.313   2.565
 4977WAT     H115173   4.078   7.274   2.649
 4977WAT     H215174   3.987   7.395   2.588
 4978WAT      O15175   1.527   0.396   2.830
 4978WAT     H115176   1.583   0.344   2.766
 4978WAT     H215177   1.584   0.466   2.874
 4979WAT      O15178   5.091   5.527   6.322
 4979WAT     H115179   5.146   5.518   6.405
 4979WAT     H215180   5.108   5.449   6.262
 4980WAT      O15181   3.299   7.908   1.875
 4980WAT     H115182   3.361   7.948   1.808
 4980WAT     H215183   3.333   7.927   1.967
 4981WAT      O15184   8.155   1.436   7.386
 4981WAT     H115185   8.237   1.380   7.382
 4981WAT     H215186   8.111   1.437   7.296
 4982WAT      O15187   8.341   5.345   2.441
 4982WAT     H115188   8.344   5.272   2.373
 4982WAT     H215189   8.372   5.309   2.529
 4983WAT      O15190   2.530   2.763   2.560
 4983WAT     H115191   2.557   2.822   2.637
 4983WAT     H215192   2.433   2.739   2.569
 4984WAT      O15193   4.408   4.346   9.586
 4984WAT     H115194   4.379   4.351   9.682
 4984WAT     H215195   4.500   4.386   9.577
 4985WAT      O15196   5.546   1.912   9.024
 4985WAT     H115197   5.589   1.823   9.044
 4985WAT     H215198   5.525   1.958   9.110
 4986WAT      O15199   9.050   6.409   5.989
 4986WAT     H115200   8.963   6.451   5.959
 4986WAT     H215201   9.034   6.354   6.071
 4987WAT      O15202   7.721   5.886   8.025
 4987WAT     H115203   7.696   5.855   8.116
 4987WAT     H215204   7.638   5.906   7.972
 4988WAT      O15205   8.715   3.147   5.689
 4988WAT     H115206   8.633   3.119   5.639
 4988WAT     H215207   8.690   3.172   5.782
 4989WAT      O15208   5.579   4.224   6.737
 4989WAT     H115209   5.661   4.233   6.794
 4989WAT     H215210   5.584   4.138   6.686
 4990WAT      O15211   5.243   6.618   9.392
 4990WAT     H115212   5.342   6.607   9.385
 4990WAT     H215213   5.210   6.580   9.478
 4991WAT      O15214   4.254   0.948   6.583
 4991WAT     H115215   4.332   0.980   6.529
 4991WAT     H215216   4.284   0.874   6.642
 4992WAT      O15217   4.918   6.552   2.784
 4992WAT     H115218   4.986   6.619   2.755
 4992WAT     H215219   4.940   6.519   2.875
 4993WAT      O15220   2.087   9.659   6.818
 4993WAT     H115221   2.013   9.670   6.885
 4993WAT     H215222   2.107   9.562   6.806
 4994WAT      O15223   1.672   8.875   1.302
 4994WAT     H115224   1.613   8.937   1.353
 4994WAT     H215225   1.624   8.788   1.286
 4995WAT      O15226   0.655   3.579   3.508
 4995WAT     H115227   0.651   3.545   3.602
 4995WAT     H215228   0.571   3.629   3.487
 4996WAT      O15229   4.262   5.106   8.935
 4996WAT     H115230   4.191   5.080   8.869
 4996WAT     H215231   4.351   5.104   8.889
 4997WAT      O15232   6.678   2.877   2.992
 4997WAT     H115233   6.628   2.942   3.048
 4997WAT     H215234   6.726   2.926   2.919
 4998WAT      O15235   4.442   0.036   1.283
 4998WAT     H115236   4.498   0.025   1.201
 4998WAT     H215237   4.368  -0.032   1.283
 4999WAT      O15238   9.425   4.519   1.062
 4999WAT     H115239   9.352   4.482   1.004
 4999WAT     H215240   9.421   4.619   1.061
 5000WAT      O15241   4.543   4.343   4.937
 5000WAT     H115242   4.587   4.327   5.026
 5000WAT     H215243   4.611   4.333   4.864
 5001WAT      O15244   3.969   3.852   0.710
 5001WAT     H115245   3.935   3.819   0.798
 5001WAT     H215246   3.947   3.786   0.638
 5002WAT      O15247   2.787   2.823   0.062
 5002WAT     H115248   2.812   2.840   0.158
 5002WAT     H215249   2.773   2.910   0.015
 5003WAT      O15250   3.321   9.419   0.150
 5003WAT     H115251   3.411   9.442   0.187
 5003WAT     H215252   3.330   9.347   0.082
 5004WAT      O15253   1.408   5.594   4.317
 5004WAT     H115254   1.386   5.497   4.314
 5004WAT     H215255   1.501   5.608   4.281
 5005WAT      O15256   1.678   9.472   4.210
 5005WAT     H115257   1.663   9.489   4.308
 5005WAT     H215258   1.750   9.403   4.199
 5006WAT      O15259   0.904   8.599   3.681
 5006WAT     H115260   0.972   8.668   3.704
 5006WAT     H215261   0.878   8.608   3.584
 5007WAT      O15262   7.638   5.040   4.547
 5007WAT     H115263   7.624   4.945   4.517
 5007WAT     H215264   7.551   5.077   4.579
 5008WAT      O15265   9.090   6.949   4.669
 5008WAT     H115266   9.180   6.905   4.665
 5008WAT     H215267   9.020   6.882   4.646
 5009WAT      O15268   5.218   0.382   1.235
 5009WAT     H115269   5.313   0.352   1.239
 5009WAT     H215270   5.215   0.482   1.229
 5010WAT      O15271   1.576   2.610   8.919
 5010WAT     H115272   1.627   2.665   8.853
 5010WAT     H215273   1.620   2.522   8.930
 5011WAT      O15274   0.213   7.793   4.407
 5011WAT     H115275   0.245   7.702   4.378
 5011WAT     H215276   0.231   7.859   4.334
 5012WAT      O15277   1.801   6.069   4.663
 5012WAT     H115278   1.842   5.981   4.638
 5012WAT     H215279   1.787   6.123   4.580
 5013WAT      O15280   4.472   2.750   1.659
 5013WAT     H115281   4.529   2.668   1.655
 5013WAT     H215282   4.453   2.773   1.754
 5014WAT      O15283   8.366   4.621   0.344
 5014WAT     H115284   8.456   4.607   0.303
 5014WAT     H215285   8.311   4.680   0.285
 5015WAT      O15286   5.748   5.402   2.349
 5015WAT     H115287   5.824   5.361   2.299
 5015WAT     H215288   5.686   5.329   2.380
 5016WAT      O15289   0.213   5.321   1.090
 5016WAT     H115290   0.119   5.354   1.092
 5016WAT     H215291   0.227   5.262   1.011
 5017WAT      O15292   4.212   4.138   8.959
 5017WAT     H115293   4.311   4.131   8.970
 5017WAT     H215294   4.167   4.072   9.019
 5018WAT      O15295   6.254   8.649   2.434
 5018WAT     H115296   6.185   8.690   2.493
 5018WAT     H215297   6.216   8.569   2.388
 5019WAT      O15298   1.900   5.750   5.654
 5019WAT     H115299   1.877   5.847   5.653
 5019WAT     H215300   2.000   5.741   5.655
 5020WAT      O15301   0.205   2.171   7.270
 5020WAT     H115302   0.290   2.131   7.303
 5020WAT     H215303   0.179   2.127   7.184
 5021WAT      O15304   0.753   3.026   5.153
 5021WAT     H115305   0.792   2.958   5.216
 5021WAT     H215306   0.675   3.071   5.196
 5022WAT      O15307   8.336   3.876   5.142
 5022WAT     H115308   8.429   3.904   5.167
 5022WAT     H215309   8.313   3.911   5.052
 5023WAT      O15310   9.764   5.667   4.447
 5023WAT     H115311   9.679   5.680   4.395
 5023WAT     H215312   9.751   5.598   4.517
 5024WAT      O15313   1.091   8.000   7.199
 5024WAT     H115314   1.097   8.079   7.138
 5024WAT     H215315   1.007   7.949   7.178
 5025WAT      O15316   4.823   7.774   9.736
 5025WAT     H115317   4.776   7.845   9.788
 5025WAT     H215318   4.882   7.817   9.668
 5026WAT      O15319   1.334   8.819   6.613
 5026WAT     H115320   1.312   8.734   6.566
 5026WAT     H215321   1.368   8.799   6.705
 5027WAT      O15322   6.144   6.989   3.360
 5027WAT     H115323   6.239   6.966   3.337
 5027WAT     H215324   6.140   7.084   3.390
 5028WAT      O15325   3.071   9.530   3.734
 5028WAT     H115326   2.993   9.578   3.694
 5028WAT     H215327   3.119   9.481   3.661
 5029WAT      O15328   8.343   6.497   8.224
 5029WAT     H115329   8.274   6.505   8.152
 5029WAT     H215330   8.379   6.404   8.226
 5030WAT      O15331   1.676   7.462   4.231
 5030WAT     H115332   1.705   7.526   4.159
 5030WAT     H215333   1.717   7.372   4.214
 5031WAT      O15334   5.404   5.482   2.475
 5031WAT     H115335   5.462   5.516   2.549
 5031WAT     H215336   5.379   5.386   2.494
 5032WAT      O15337   6.958   1.813   7.968
 5032WAT     H115338   6.933   1.905   7.940
 5032WAT     H215339   6.920   1.747   7.902
 5033WAT      O15340   0.592   0.381   2.883
 5033WAT     H115341   0.500   0.421   2.888
 5033WAT     H215342   0.658   0.443   2.925
 5034WAT      O15343   0.430   5.688   0.685
 5034WAT     H115344   0.478   5.728   0.606
 5034WAT     H215345   0.461   5.594   0.698
 5035WAT      O15346   1.265   1.865   6.568
 5035WAT     H115347   1.246   1.906   6.657
 5035WAT     H215348   1.196   1.795   6.548
 5036WAT      O15349   6.775   2.814   1.155
 5036WAT     H115350   6.725   2.882   1.102
 5036WAT     H215351   6.791   2.733   1.099
 5037WAT      O15352   3.306   1.122   9.742
 5037WAT     H115353   3.216   1.164   9.740
 5037WAT     H215354   3.365   1.171   9.806
 5038WAT      O15355   8.233   4.416   6.266
 5038WAT     H115356   8.326   4.422   6.230
 5038WAT     H215357   8.232   4.354   6.345
 5039WAT      O15358   0.970   0.274   8.278
 5039WAT     H115359   1.028   0.342   8.322
 5039WAT     H215360   1.017   0.185   8.278
 5040WAT      O15361   4.209   7.439   5.844
 5040WAT     H115362   4.299   7.395   5.851
 5040WAT     H215363   4.148   7.381   5.790
 5041WAT      O15364   9.629   3.213   1.432
 5041WAT     H115365   9.622   3.242   1.528
 5041WAT     H215366   9.539   3.217   1.389
 5042WAT      O15367   9.422   9.124   3.376
 5042WAT     H115368   9.436   9.077   3.463
 5042WAT     H215369   9.466   9.071   3.303
 5043WAT      O15370   8.818   7.625   6.530
 5043WAT     H115371   8.826   7.562   6.608
 5043WAT     H215372   8.732   7.677   6.538
 5044WAT      O15373   3.113   5.219   7.133
 5044WAT     H115374   3.136   5.307   7.092
 5044WAT     H215375   3.108   5.149   7.061
 5045WAT      O15376   5.497   7.805   2.524
 5045WAT     H115377   5.504   7.880   2.591
 5045WAT     H215378   5.495   7.843   2.432
 5046WAT      O15379   9.853   8.325   9.402
 5046WAT     H115380   9.764   8.320   9.447
 5046WAT     H215381   9.914   8.257   9.442
 5047WAT      O15382   7.913   6.590   2.351
 5047WAT     H115383   7.914   6.539   2.265
 5047WAT     H215384   7.981   6.663   2.348
 5048WAT      O15385   0.287   2.922   6.056
 5048WAT     H115386   0.218   2.875   6.000
 5048WAT     H215387   0.254   2.931   6.150
 5049WAT      O15388   7.147   2.067   0.481
 5049WAT     H115389   7.078   1.994   0.485
 5049WAT     H215390   7.220   2.047   0.547
 5050WAT      O15391   1.620   5.301   1.945
 5050WAT     H115392   1.692   5.359   1.907
 5050WAT     H215393   1.657   5.209   1.963
 5051WAT      O15394   9.804   5.908   2.739
 5051WAT     H115395   9.864   5.907   2.659
 5051WAT     H215396   9.858   5.898   2.822
 5052WAT      O15397   6.236   9.069   3.650
 5052WAT     H115398   6.165   9.133   3.622
 5052WAT     H215399   6.283   9.106   3.731
 5053WAT      O15400   7.058   3.413   8.537
 5053WAT     H115401   7.110   3.365   8.607
 5053WAT     H215402   6.961   3.415   8.562
 5054WAT      O15403   6.985   0.555   5.621
 5054WAT     H115404   6.888   0.552   5.645
 5054WAT     H215405   7.041   0.537   5.702
 5055WAT      O15406   3.127   4.086   9.673
 5055WAT     H115407   3.188   4.037   9.735
 5055WAT     H215408   3.162   4.077   9.579
 5056WAT      O15409   3.527   2.572   8.076
 5056WAT     H115410   3.535   2.672   8.083
 5056WAT     H215411   3.579   2.540   7.996
 5057WAT      O15412   6.922   9.295   7.216
 5057WAT     H115413   6.943   9.317   7.311
 5057WAT     H215414   6.979   9.219   7.186
 5058WAT      O15415   1.685   2.094   4.022
 5058WAT     H115416   1.717   2.006   4.059
 5058WAT     H215417   1.721   2.168   4.078
 5059WAT      O15418   2.840   3.513   4.270
 5059WAT     H115419   2.875   3.456   4.196
 5059WAT     H215420   2.765   3.570   4.236
 5060WAT      O15421   0.521   7.748   0.064
 5060WAT     H115422   0.533   7.650   0.081
 5060WAT     H215423   0.448   7.783   0.122
 5061WAT      O15424   6.124   6.667   7.174
 5061WAT     H115425   6.134   6.697   7.269
 5061WAT     H215426   6.069   6.583   7.172
 5062WAT      O15427   9.287   0.783   3.959
 5062WAT     H115428   9.298   0.712   3.889
 5062WAT     H215429   9.286   0.873   3.915
 5063WAT      O15430   6.873   4.642   8.528
 5063WAT     H115431   6.786   4.597   8.508
 5063WAT     H215432   6.930   4.642   8.445
 5064WAT      O15433   4.186   3.210   0.237
 5064WAT     H115434   4.206   3.123   0.190
 5064WAT     H215435   4.096   3.204   0.281
 5065WAT      O15436   0.232   4.868   1.296
 5065WAT     H115437   0.259   4.963   1.312
 5065WAT     H215438   0.215   4.855   1.198
 5066WAT      O15439   8.662   3.862   6.375
 5066WAT     H115440   8.637   3.882   6.470
 5066WAT     H215441   8.662   3.947   6.322
 5067WAT      O15442   8.457   1.978   8.113
 5067WAT     H115443   8.502   2.021   8.191
 5067WAT     H215444   8.472   2.033   8.031
 5068WAT      O15445   6.717   7.075   9.341
 5068WAT     H115446   6.688   6.984   9.313
 5068WAT     H215447   6.677   7.097   9.430
 5069WAT      O15448   5.845   7.294   8.281
 5069WAT     H115449   5.808   7.317   8.371
 5069WAT     H215450   5.800   7.350   8.211
 5070WAT      O15451   1.943   4.293   7.446
 5070WAT     H115452   2.000   4.235   7.504
 5070WAT     H215453   1.990   4.379   7.428
 5071WAT      O15454   8.232   1.137   2.381
 5071WAT     H115455   8.159   1.161   2.446
 5071WAT     H215456   8.191   1.102   2.297
 5072WAT      O15457   0.705   2.269   3.343
 5072WAT     H115458   0.725   2.221   3.429
 5072WAT     H215459   0.709   2.204   3.267
 5073WAT      O15460   9.280   1.234   0.054
 5073WAT     H115461   9.276   1.261   0.151
 5073WAT     H215462   9.374   1.214   0.029
 5074WAT      O15463   1.163   0.072   9.693
 5074WAT     H115464   1.257   0.104   9.686
 5074WAT     H215465   1.146   0.001   9.625
 5075WAT      O15466   5.746   5.696   5.800
 5075WAT     H115467   5.666   5.638   5.816
 5075WAT     H215468   5.755   5.761   5.875
 5076WAT      O15469   9.485   0.842   4.175
 5076WAT     H115470   9.567   0.786   4.187
 5076WAT     H215471   9.419   0.793   4.118
 5077WAT      O15472   8.274   5.001   0.273
 5077WAT     H115473   8.219   5.053   0.338
 5077WAT     H215474   8.367   5.038   0.271
 5078WAT      O15475   5.514   8.399   7.845
 5078WAT     H115476   5.494   8.302   7.855
 5078WAT     H215477   5.433   8.452   7.870
 5079WAT      O15478   3.532   3.075   2.401
 5079WAT     H115479   3.529   3.162   2.352
 5079WAT     H215480   3.444   3.029   2.393
 5080WAT      O15481   5.660   1.161   1.514
 5080WAT     H115482   5.655   1.256   1.544
 5080WAT     H215483   5.601   1.148   1.435
 5081WAT      O15484   1.353   2.983   3.497
 5081WAT     H115485   1.287   3.010   3.427
 5081WAT     H215486   1.327   3.023   3.585
 5082WAT      O15487   4.446   1.744   4.066
 5082WAT     H115488   4.380   1.819   4.061
 5082WAT     H215489   4.414   1.669   4.008
 5083WAT      O15490   0.655   3.676   8.430
 5083WAT     H115491   0.585   3.748   8.424
 5083WAT     H215492   0.669   3.637   8.339
 5084WAT      O15493   8.550   1.475   5.793
 5084WAT     H115494   8.647   1.496   5.786
 5084WAT     H215495   8.510   1.525   5.870
 5085WAT      O15496   0.798   4.139   7.215
 5085WAT     H115497   0.890   4.135   7.254
 5085WAT     H215498   0.783   4.060   7.156
 5086WAT      O15499   1.113   6.526   6.535
 5086WAT     H115500   1.103   6.511   6.633
 5086WAT     H215501   1.110   6.625   6.517
 5087WAT      O15502   5.738   8.626   6.284
 5087WAT     H115503   5.648   8.623   6.328
 5087WAT     H215504   5.749   8.712   6.235
 5088WAT      O15505   6.697   6.033   6.794
 5088WAT     H115506   6.765   6.072   6.855
 5088WAT     H215507   6.642   5.967   6.845
 5089WAT      O15508   5.923   3.105   2.079
 5089WAT     H115509   5.850   3.160   2.120
 5089WAT     H215510   5.955   3.038   2.146
 5090WAT      O15511   8.843   5.479   1.052
 5090WAT     H115512   8.831   5.401   0.991
 5090WAT     H215513   8.914   5.540   1.016
 5091WAT      O15514   8.981   2.176   9.031
 5091WAT     H115515   9.077   2.162   9.053
 5091WAT     H215516   8.930   2.198   9.114
 5092WAT      O15517   5.428   3.731   8.852
 5092WAT     H115518   5.525   3.755   8.844
 5092WAT     H215519   5.419   3.633   8.868
 5093WAT      O15520   4.951   2.583   4.474
 5093WAT     H115521   4.952   2.599   4.375
 5093WAT     H215522   4.953   2.671   4.522
 5094WAT      O15523   6.839   7.424   8.166
 5094WAT     H115524   6.865   7.448   8.073
 5094WAT     H215525   6.868   7.496   8.229
 5095WAT      O15526   5.651   6.600   7.455
 5095WAT     H115527   5.716   6.675   7.464
 5095WAT     H215528   5.695   6.524   7.406
 5096WAT      O15529   2.408   3.037   6.800
 5096WAT     H115530   2.423   3.132   6.774
 5096WAT     H215531   2.428   2.978   6.722
 5097WAT      O15532   2.494   0.918   9.434
 5097WAT     H115533   2.453   0.827   9.440
 5097WAT     H215534   2.588   0.914   9.467
 5098WAT      O15535   6.373   1.101   6.013
 5098WAT     H115536   6.459   1.059   6.042
 5098WAT     H215537   6.384   1.200   6.006
 5099WAT      O15538   8.659   6.804   7.173
 5099WAT     H115539   8.690   6.718   7.134
 5099WAT     H215540   8.695   6.813   7.266
 5100WAT      O15541   5.936   1.740   9.093
 5100WAT     H115542   5.919   1.744   9.192
 5100WAT     H215543   5.997   1.815   9.067
 5101WAT      O15544   0.452   7.338   1.790
 5101WAT     H115545   0.386   7.408   1.817
 5101WAT     H215546   0.418   7.248   1.819
 5102WAT      O15547   2.787   2.497   8.885
 5102WAT     H115548   2.841   2.422   8.846
 5102WAT     H215549   2.750   2.552   8.811
 5103WAT      O15550   5.776   1.956   1.523
 5103WAT     H115551   5.849   2.000   1.470
 5103WAT     H215552   5.704   2.023   1.542
 5104WAT      O15553   1.127   8.415   8.288
 5104WAT     H115554   1.029   8.418   8.310
 5104WAT     H215555   1.179   8.452   8.365
 5105WAT      O15556   3.438   6.243   9.441
 5105WAT     H115557   3.407   6.229   9.347
 5105WAT     H215558   3.361   6.234   9.504
 5106WAT      O15559   1.183   2.583   3.727
 5106WAT     H115560   1.203   2.494   3.769
 5106WAT     H215561   1.167   2.571   3.629
 5107WAT      O15562   2.942   4.950   0.667
 5107WAT     H115563   2.979   5.037   0.698
 5107WAT     H215564   3.014   4.880   0.670
 5108WAT      O15565   6.748   6.121   5.927
 5108WAT     H115566   6.727   6.093   5.833
 5108WAT     H215567   6.679   6.185   5.959
 5109WAT      O15568   0.962   9.793   4.066
 5109WAT     H115569   0.947   9.698   4.095
 5109WAT     H215570   0.979   9.795   3.968
 5110WAT      O15571   4.812   7.542   2.223
 5110WAT     H115572   4.783   7.634   2.196
 5110WAT     H215573   4.737   7.478   2.209
 5111WAT      O15574   6.615   1.566   3.537
 5111WAT     H115575   6.715   1.573   3.539
 5111WAT     H215576   6.575   1.656   3.551
 5112WAT      O15577   4.017   1.628   0.218
 5112WAT     H115578   3.931   1.618   0.268
 5112WAT     H215579   4.089   1.657   0.280
 5113WAT      O15580   5.758   2.483   3.500
 5113WAT     H115581   5.856   2.478   3.479
 5113WAT     H215582   5.735   2.575   3.530
 5114WAT      O15583   1.803   8.865   0.580
 5114WAT     H115584   1.785   8.882   0.677
 5114WAT     H215585   1.853   8.943   0.541
 5115WAT      O15586   7.711   6.400   8.616
 5115WAT     H115587   7.677   6.358   8.531
 5115WAT     H215588   7.654   6.479   8.638
 5116WAT      O15589   8.651   6.992   6.660
 5116WAT     H115590   8.628   6.973   6.755
 5116WAT     H215591   8.648   7.091   6.644
 5117WAT      O15592   2.873   0.439   0.242
 5117WAT     H115593   2.834   0.532   0.245
 5117WAT     H215594   2.972   0.445   0.253
 5118WAT      O15595   1.831   4.318   2.156
 5118WAT     H115596   1.850   4.396   2.216
 5118WAT     H215597   1.779   4.249   2.206
 5119WAT      O15598   5.548   4.948   3.756
 5119WAT     H115599   5.577   4.864   3.802
 5119WAT     H215600   5.454   4.937   3.723
 5120WAT      O15601   9.583   9.229   0.082
 5120WAT     H115602   9.664   9.280   0.053
 5120WAT     H215603   9.597   9.191   0.173
 5121WAT      O15604   0.541   4.191   9.428
 5121WAT     H115605   0.476   4.195   9.504
 5121WAT     H215606   0.491   4.172   9.343
 5122WAT      O15607   8.676   2.316   7.698
 5122WAT     H115608   8.646   2.350   7.609
 5122WAT     H215609   8.694   2.393   7.759
 5123WAT      O15610   8.341   2.599   2.893
 5123WAT     H115611   8.318   2.618   2.988
 5123WAT     H215612   8.391   2.512   2.887
 5124WAT      O15613   6.060   3.510   3.980
 5124WAT     H115614   5.975   3.479   4.022
 5124WAT     H215615   6.070   3.608   3.996
 5125WAT      O15616   7.948   0.032   9.257
 5125WAT     H115617   7.916  -0.043   9.199
 5125WAT     H215618   8.047   0.025   9.270
 5126WAT      O15619   5.158   8.251   4.643
 5126WAT     H115620   5.140   8.240   4.546
 5126WAT     H215621   5.073   8.238   4.694
 5127WAT      O15622   9.484   7.315   5.837
 5127WAT     H115623   9.529   7.317   5.748
 5127WAT     H215624   9.491   7.405   5.880
 5128WAT      O15625   8.918   6.745   0.572
 5128WAT     H115626   8.845   6.716   0.633
 5128WAT     H215627   8.955   6.832   0.604
 5129WAT      O15628   7.606   8.952   7.594
 5129WAT     H115629   7.544   9.030   7.602
 5129WAT     H215630   7.558   8.875   7.552
 5130WAT      O15631   9.474   2.932   4.159
 5130WAT     H115632   9.482   2.845   4.208
 5130WAT     H215633   9.421   2.996   4.214
 5131WAT      O15634   0.625   2.768   9.006
 5131WAT     H115635   0.710   2.717   9.012
 5131WAT     H215636   0.547   2.705   9.008
 5132WAT      O15637   5.614   7.406   4.188
 5132WAT     H115638   5.575   7.445   4.104
 5132WAT     H215639   5.709   7.436   4.197
 5133WAT      O15640   1.218   2.722   2.147
 5133WAT     H115641   1.233   2.647   2.083
 5133WAT     H215642   1.275   2.709   2.228
 5134WAT      O15643   5.961   8.343   6.090
 5134WAT     H115644   5.941   8.425   6.038
 5134WAT     H215645   5.926   8.353   6.183
 5135WAT      O15646   5.393   7.068   3.230
 5135WAT     H115647   5.375   6.994   3.296
 5135WAT     H215648   5.449   7.139   3.274
 5136WAT      O15649   4.277   4.988   2.980
 5136WAT     H115650   4.286   4.983   3.080
 5136WAT     H215651   4.340   4.923   2.938
 5137WAT      O15652   7.350   6.450   4.363
 5137WAT     H115653   7.384   6.511   4.291
 5137WAT     H215654   7.267   6.489   4.402
 5138WAT      O15655   2.577   1.850   6.865
 5138WAT     H115656   2.675   1.866   6.878
 5138WAT     H215657   2.526   1.928   6.901
 5139WAT      O15658   9.494   8.353   1.625
 5139WAT     H115659   9.399   8.357   1.595
 5139WAT     H215660   9.537   8.269   1.590
 5140WAT      O15661   6.638   7.117   8.534
 5140WAT     H115662   6.592   7.058   8.600
 5140WAT     H215663   6.697   7.182   8.583
 5141WAT      O15664   0.229   4.607   1.538
 5141WAT     H115665   0.226   4.618   1.439
 5141WAT     H215666   0.311   4.555   1.563
 5142WAT      O15667   3.305   1.265   3.270
 5142WAT     H115668   3.394   1.227   3.244
 5142WAT     H215669   3.279   1.335   3.203
 5143WAT      O15670   1.099   0.663   8.953
 5143WAT     H115671   1.158   0.718   8.894
 5143WAT     H215672   1.037   0.723   9.003
 5144WAT      O15673   5.393   5.617   6.420
 5144WAT     H115674   5.325   5.592   6.489
 5144WAT     H215675   5.483   5.583   6.448
 5145WAT      O15676   6.318   2.315   0.580
 5145WAT     H115677   6.348   2.243   0.643
 5145WAT     H215678   6.385   2.388   0.578
 5146WAT      O15679   8.855   1.477   4.190
 5146WAT     H115680   8.844   1.486   4.091
 5146WAT     H215681   8.824   1.387   4.220
 5147WAT      O15682   8.394   3.791   0.151
 5147WAT     H115683   8.379   3.889   0.146
 5147WAT     H215684   8.408   3.764   0.247
 5148WAT      O15685   3.159   5.974   1.043
 5148WAT     H115686   3.222   6.051   1.034
 5148WAT     H215687   3.200   5.892   1.004
 5149WAT      O15688   0.284   1.274   3.648
 5149WAT     H115689   0.207   1.333   3.623
 5149WAT     H215690   0.291   1.268   3.748
 5150WAT      O15691   2.344   9.302   1.230
 5150WAT     H115692   2.414   9.373   1.228
 5150WAT     H215693   2.317   9.284   1.325
 5151WAT      O15694   2.746   0.299   7.110
 5151WAT     H115695   2.673   0.319   7.175
 5151WAT     H215696   2.825   0.262   7.159
 5152WAT      O15697   1.082   4.140   8.389
 5152WAT     H115698   1.002   4.198   8.397
 5152WAT     H215699   1.082   4.095   8.299
 5153WAT      O15700   6.526   2.164   7.205
 5153WAT     H115701   6.503   2.214   7.289
 5153WAT     H215702   6.587   2.220   7.149
 5154WAT      O15703   9.386   2.266   5.889
 5154WAT     H115704   9.331   2.325   5.948
 5154WAT     H215705   9.472   2.244   5.935
 5155WAT      O15706   2.772   2.297   1.615
 5155WAT     H115707   2.784   2.332   1.522
 5155WAT     H215708   2.682   2.254   1.623
 5156WAT      O15709   0.639   3.206   8.128
 5156WAT     H115710   0.675   3.131   8.183
 5156WAT     H215711   0.714   3.265   8.099
 5157WAT      O15712   4.412   8.970   8.333
 5157WAT     H115713   4.398   8.890   8.275
 5157WAT     H215714   4.397   9.053   8.279
 5158WAT      O15715   6.227   0.608   9.621
 5158WAT     H115716   6.191   0.668   9.549
 5158WAT     H215717   6.170   0.526   9.627
 5159WAT      O15718   2.985   8.174   8.777
 5159WAT     H115719   3.056   8.108   8.801
 5159WAT     H215720   3.026   8.255   8.737
 5160WAT      O15721   4.666   5.151   6.774
 5160WAT     H115722   4.722   5.092   6.716
 5160WAT     H215723   4.667   5.116   6.868
 5161WAT      O15724   1.632   6.240   0.388
 5161WAT     H115725   1.644   6.200   0.297
 5161WAT     H215726   1.618   6.168   0.455
 5162WAT      O15727   7.542   2.571   8.672
 5162WAT     H115728   7.522   2.511   8.749
 5162WAT     H215729   7.477   2.647   8.671
 5163WAT      O15730   7.684   0.082   2.476
 5163WAT     H115731   7.752   0.134   2.528
 5163WAT     H215732   7.692   0.106   2.379
 5164WAT      O15733   8.049   7.844   3.716
 5164WAT     H115734   8.054   7.755   3.671
 5164WAT     H215735   8.139   7.869   3.750
 5165WAT      O15736   8.712   4.239   5.426
 5165WAT     H115737   8.715   4.319   5.365
 5165WAT     H215738   8.692   4.157   5.373
 5166WAT      O15739   6.312   1.312   4.193
 5166WAT     H115740   6.386   1.350   4.138
 5166WAT     H215741   6.273   1.233   4.145
 5167WAT      O15742   7.710   1.137   1.207
 5167WAT     H115743   7.739   1.055   1.157
 5167WAT     H215744   7.666   1.110   1.293
 5168WAT      O15745   8.091   6.612   8.451
 5168WAT     H115746   8.164   6.548   8.430
 5168WAT     H215747   8.054   6.649   8.366
 5169WAT      O15748   4.851   2.908   5.691
 5169WAT     H115749   4.914   2.953   5.755
 5169WAT     H215750   4.787   2.975   5.654
 5170WAT      O15751   6.615   9.091   9.396
 5170WAT     H115752   6.670   9.009   9.383
 5170WAT     H215753   6.550   9.077   9.471
 5171WAT      O15754   6.370   5.619   3.417
 5171WAT     H115755   6.319   5.607   3.332
 5171WAT     H215756   6.312   5.594   3.495
 5172WAT      O15757   8.208   7.875   5.294
 5172WAT     H115758   8.186   7.780   5.314
 5172WAT     H215759   8.297   7.898   5.334
 5173WAT      O15760   7.218   9.613   6.106
 5173WAT     H115761   7.191   9.535   6.162
 5173WAT     H215762   7.226   9.694   6.163
 5174WAT      O15763   9.704   0.413   1.248
 5174WAT     H115764   9.615   0.367   1.236
 5174WAT     H215765   9.751   0.372   1.326
 5175WAT      O15766   3.480   8.630   4.712
 5175WAT     H115767   3.419   8.635   4.633
 5175WAT     H215768   3.571   8.659   4.685
 5176WAT      O15769   3.314   3.642   1.284
 5176WAT     H115770   3.263   3.725   1.261
 5176WAT     H215771   3.380   3.663   1.356
 5177WAT      O15772   6.297   2.041   2.454
 5177WAT     H115773   6.227   2.081   2.513
 5177WAT     H215774   6.352   2.114   2.414
 5178WAT      O15775   0.255   1.512   2.419
 5178WAT     H115776   0.158   1.510   2.444
 5178WAT     H215777   0.268   1.471   2.329
 5179WAT      O15778   2.781   3.876   3.940
 5179WAT     H115779   2.735   3.788   3.953
 5179WAT     H215780   2.773   3.904   3.844
 5180WAT      O15781   9.346   2.236   6.285
 5180WAT     H115782   9.291   2.272   6.210
 5180WAT     H215783   9.433   2.201   6.248
 5181WAT      O15784   0.169   2.172   0.186
 5181WAT     H115785   0.217   2.189   0.272
 5181WAT     H215786   0.153   2.073   0.177
 5182WAT      O15787   6.850   5.319   6.025
 5182WAT     H115788   6.878   5.229   6.058
 5182WAT     H215789   6.788   5.361   6.091
 5183WAT      O15790   0.852   4.214   1.973
 5183WAT     H115791   0.932   4.266   2.004
 5183WAT     H215792   0.779   4.223   2.041
 5184WAT      O15793   2.985   1.193   6.341
 5184WAT     H115794   2.927   1.216   6.419
 5184WAT     H215795   2.932   1.145   6.271
 5185WAT      O15796   9.272   8.401   0.336
 5185WAT     H115797   9.220   8.373   0.256
 5185WAT     H215798   9.345   8.335   0.353
 5186WAT      O15799   0.013   6.777   3.842
 5186WAT     H115800   0.084   6.820   3.899
 5186WAT     H215801   0.054   6.746   3.756
 5187WAT      O15802   5.032   8.381   9.029
 5187WAT     H115803   5.025   8.419   9.121
 5187WAT     H215804   4.970   8.303   9.021
 5188WAT      O15805   6.082   3.060   8.277
 5188WAT     H115806   6.111   3.018   8.191
 5188WAT     H215807   5.998   3.017   8.309
 5189WAT      O15808   5.272   2.067   0.550
 5189WAT     H115809   5.315   2.137   0.608
 5189WAT     H215810   5.298   1.976   0.583
 5190WAT      O15811   6.202   1.164   6.231
 5190WAT     H115812   6.263   1.123   6.163
 5190WAT     H215813   6.218   1.121   6.320
 5191WAT      O15814   7.774   3.806   7.296
 5191WAT     H115815   7.701   3.742   7.274
 5191WAT     H215816   7.790   3.806   7.394
 5192WAT      O15817   1.572   7.450   5.832
 5192WAT     H115818   1.617   7.530   5.794
 5192WAT     H215819   1.603   7.435   5.925
 5193WAT      O15820   2.953   1.593   2.056
 5193WAT     H115821   3.011   1.638   1.988
 5193WAT     H215822   2.942   1.496   2.032
 5194WAT      O15823   5.607   9.435   5.424
 5194WAT     H115824   5.657   9.369   5.480
 5194WAT     H215825   5.524   9.393   5.389
 5195WAT      O15826   1.678   6.503   4.022
 5195WAT     H115827   1.630   6.434   3.968
 5195WAT     H215828   1.777   6.490   4.013
 5196WAT      O15829   5.805   2.891   7.776
 5196WAT     H115830   5.706   2.881   7.785
 5196WAT     H215831   5.848   2.886   7.866
 5197WAT      O15832   9.862   1.345   1.449
 5197WAT     H115833   9.952   1.374   1.416
 5197WAT     H215834   9.792   1.409   1.417
 5198WAT      O15835   5.721   1.449   7.136
 5198WAT     H115836   5.814   1.417   7.116
 5198WAT     H215837   5.725   1.525   7.201
 5199WAT      O15838   4.043   3.117   1.102
 5199WAT     H115839   3.978   3.193   1.092
 5199WAT     H215840   4.001   3.033   1.070
 5200WAT      O15841   6.362   3.335   6.068
 5200WAT     H115842   6.448   3.333   6.118
 5200WAT     H215843   6.368   3.401   5.993
 5201WAT      O15844   3.857   1.248   5.384
 5201WAT     H115845   3.855   1.201   5.296
 5201WAT     H215846   3.789   1.321   5.384
 5202WAT      O15847   1.945   2.555   2.947
 5202WAT     H115848   1.939   2.607   3.032
 5202WAT     H215849   1.930   2.458   2.966
 5203WAT      O15850   1.341   8.662   6.218
 5203WAT     H115851   1.426   8.615   6.193
 5203WAT     H215852   1.323   8.647   6.316
 5204WAT      O15853   9.001   5.065   4.629
 5204WAT     H115854   9.018   5.077   4.531
 5204WAT     H215855   8.902   5.064   4.646
 5205WAT      O15856   1.169   4.649   8.926
 5205WAT     H115857   1.175   4.660   9.025
 5205WAT     H215858   1.126   4.561   8.904
 5206WAT      O15859   5.917   6.395   5.637
 5206WAT     H115860   5.877   6.487   5.645
 5206WAT     H215861   5.851   6.328   5.670
 5207WAT      O15862   5.875   9.452   8.690
 5207WAT     H115863   5.850   9.448   8.787
 5207WAT     H215864   5.805   9.503   8.640
 5208WAT      O15865   6.100   7.946   3.405
 5208WAT     H115866   6.014   7.967   3.358
 5208WAT     H215867   6.084   7.945   3.504
 5209WAT      O15868   7.199   2.483   6.410
 5209WAT     H115869   7.290   2.457   6.441
 5209WAT     H215870   7.177   2.435   6.325
 5210WAT      O15871   9.570   3.203   3.667
 5210WAT     H115872   9.533   3.266   3.598
 5210WAT     H215873   9.583   3.252   3.753
 5211WAT      O15874   5.861   2.459   6.040
 5211WAT     H115875   5.935   2.394   6.024
 5211WAT     H215876   5.838   2.460   6.137
 5212WAT      O15877   1.676   7.415   1.295
 5212WAT     H115878   1.576   7.417   1.302
 5212WAT     H215879   1.714   7.386   1.382
 5213WAT      O15880   6.399   9.055   9.552
 5213WAT     H115881   6.327   9.096   9.496
 5213WAT     H215882   6.411   9.109   9.635
 5214WAT      O15883   2.589   1.933   4.843
 5214WAT     H115884   2.532   1.868   4.894
 5214WAT     H215885   2.630   1.886   4.765
 5215WAT      O15886   0.205   3.613   5.557
 5215WAT     H115887   0.261   3.567   5.488
 5215WAT     H215888   0.259   3.627   5.640
 5216WAT      O15889   2.930   8.340   1.587
 5216WAT     H115890   2.945   8.260   1.645
 5216WAT     H215891   2.957   8.319   1.493
 5217WAT      O15892   4.656   0.107   2.996
 5217WAT     H115893   4.661   0.078   3.092
 5217WAT     H215894   4.597   0.188   2.989
 5218WAT      O15895   1.328   8.928   0.407
 5218WAT     H115896   1.361   8.861   0.341
 5218WAT     H215897   1.364   8.906   0.497
 5219WAT      O15898   3.141   1.690   1.089
 5219WAT     H115899   3.191   1.698   1.003
 5219WAT     H215900   3.127   1.594   1.112
 5220WAT      O15901   3.520   5.841   3.333
 5220WAT     H115902   3.548   5.872   3.424
 5220WAT     H215903   3.434   5.790   3.340
 5221WAT      O15904   1.675   4.733   6.978
 5221WAT     H115905   1.756   4.739   7.037
 5221WAT     H215906   1.699   4.689   6.892
 5222WAT      O15907   8.634   4.247   7.138
 5222WAT     H115908   8.672   4.188   7.067
 5222WAT     H215909   8.670   4.340   7.126
 5223WAT      O15910   3.776   5.464   7.393
 5223WAT     H115911   3.741   5.530   7.459
 5223WAT     H215912   3.790   5.509   7.305
 5224WAT      O15913   3.491   7.509   5.852
 5224WAT     H115914   3.517   7.428   5.799
 5224WAT     H215915   3.528   7.502   5.945
 5225WAT      O15916   8.887   4.559   1.495
 5225WAT     H115917   8.840   4.505   1.425
 5225WAT     H215918   8.833   4.639   1.518
 5226WAT      O15919   6.005   3.812   9.413
 5226WAT     H115920   5.926   3.759   9.446
 5226WAT     H215921   6.067   3.751   9.364
 5227WAT      O15922   7.251   8.306   1.508
 5227WAT     H115923   7.190   8.320   1.429
 5227WAT     H215924   7.336   8.264   1.477
 5228WAT      O15925   2.530   6.109   3.949
 5228WAT     H115926   2.628   6.099   3.932
 5228WAT     H215927   2.494   6.184   3.894
 5229WAT      O15928   6.651   3.536   2.164
 5229WAT     H115929   6.628   3.556   2.259
 5229WAT     H215930   6.654   3.620   2.112
 5230WAT      O15931   3.506   6.404   2.558
 5230WAT     H115932   3.523   6.473   2.488
 5230WAT     H215933   3.553   6.319   2.534
 5231WAT      O15934   7.150   9.179   0.032
 5231WAT     H115935   7.219   9.145   0.096
 5231WAT     H215936   7.186   9.259  -0.016
 5232WAT      O15937   5.285   9.357   2.859
 5232WAT     H115938   5.242   9.445   2.877
 5232WAT     H215939   5.274   9.297   2.938
 5233WAT      O15940   8.310   4.930   8.700
 5233WAT     H115941   8.299   5.025   8.671
 5233WAT     H215942   8.368   4.926   8.781
 5234WAT      O15943   2.703   3.001   1.912
 5234WAT     H115944   2.754   2.924   1.874
 5234WAT     H215945   2.612   3.003   1.872
 5235WAT      O15946   8.470   6.619   8.456
 5235WAT     H115947   8.417   6.562   8.393
 5235WAT     H215948   8.442   6.601   8.550
 5236WAT      O15949   2.718   8.569   0.431
 5236WAT     H115950   2.755   8.583   0.523
 5236WAT     H215951   2.790   8.589   0.363
 5237WAT      O15952   9.494   3.179   3.277
 5237WAT     H115953   9.399   3.168   3.250
 5237WAT     H215954   9.530   3.090   3.306
 5238WAT      O15955   7.728   8.303   1.432
 5238WAT     H115956   7.806   8.240   1.442
 5238WAT     H215957   7.710   8.347   1.520
 5239WAT      O15958   1.774   7.501   5.334
 5239WAT     H115959   1.849   7.509   5.269
 5239WAT     H215960   1.769   7.407   5.368
 5240WAT      O15961   7.681   8.489   1.236
 5240WAT     H115962   7.706   8.466   1.141
 5240WAT     H215963   7.697   8.409   1.294
 5241WAT      O15964   1.918   8.998   9.680
 5241WAT     H115965   1.844   8.934   9.661
 5241WAT     H215966   2.005   8.957   9.655
 5242WAT      O15967   2.065   2.804   4.717
 5242WAT     H115968   2.021   2.893   4.732
 5242WAT     H215969   2.162   2.812   4.737
 5243WAT      O15970   3.432   0.737   0.479
 5243WAT     H115971   3.382   0.710   0.397
 5243WAT     H215972   3.450   0.656   0.535
 5244WAT      O15973   8.389   1.600   5.311
 5244WAT     H115974   8.485   1.622   5.299
 5244WAT     H215975   8.378   1.537   5.388
 5245WAT      O15976   8.471   9.555   8.327
 5245WAT     H115977   8.421   9.482   8.373
 5245WAT     H215978   8.474   9.537   8.229
 5246WAT      O15979   7.221   2.433   9.844
 5246WAT     H115980   7.266   2.519   9.823
 5246WAT     H215981   7.123   2.442   9.830
 5247WAT      O15982   8.245   1.974   7.684
 5247WAT     H115983   8.319   1.909   7.667
 5247WAT     H215984   8.281   2.067   7.679
 5248WAT      O15985   7.464   0.144   9.504
 5248WAT     H115986   7.551   0.095   9.517
 5248WAT     H215987   7.423   0.164   9.593
 5249WAT      O15988   9.029   9.063   0.277
 5249WAT     H115989   9.004   8.981   0.328
 5249WAT     H215990   9.067   9.131   0.341
 5250WAT      O15991   3.750   9.056   7.926
 5250WAT     H115992   3.680   9.045   7.997
 5250WAT     H215993   3.756   9.153   7.900
 5251WAT      O15994   0.415   1.602   3.369
 5251WAT     H115995   0.371   1.656   3.440
 5251WAT     H215996   0.430   1.509   3.402
 5252WAT      O15997   1.615   9.029   3.045
 5252WAT     H115998   1.628   9.128   3.050
 5252WAT     H215999   1.658   8.993   2.962
 5253WAT      O16000   9.854   8.259   5.185
 5253WAT     H116001   9.951   8.252   5.208
 5253WAT     H216002   9.800   8.217   5.258
 5254WAT      O16003   9.523   8.956   8.373
 5254WAT     H116004   9.557   8.865   8.350
 5254WAT     H216005   9.534   9.017   8.294
 5255WAT      O16006   7.598   2.869   0.074
 5255WAT     H116007   7.500   2.855   0.086
 5255WAT     H216008   7.618   2.967   0.072
 5256WAT      O16009   0.230   6.769   5.697
 5256WAT     H116010   0.209   6.772   5.795
 5256WAT     H216011   0.329   6.770   5.684
 5257WAT      O16012   2.128   3.037   7.496
 5257WAT     H116013   2.083   3.083   7.420
 5257WAT     H216014   2.060   2.989   7.551
 5258WAT      O16015   4.129   1.227   4.135
 5258WAT     H116016   4.157   1.147   4.082
 5258WAT     H216017   4.057   1.201   4.199
 5259WAT      O16018   6.128   3.364   2.663
 5259WAT     H116019   6.171   3.275   2.682
 5259WAT     H216020   6.029   3.356   2.674
 5260WAT      O16021   4.743   9.746   6.774
 5260WAT     H116022   4.784   9.835   6.756
 5260WAT     H216023   4.685   9.720   6.696
 5261WAT      O16024   5.418   7.687   4.768
 5261WAT     H116025   5.483   7.652   4.835
 5261WAT     H216026   5.408   7.622   4.693
 5262WAT      O16027   5.784   1.754   3.818
 5262WAT     H116028   5.735   1.834   3.782
 5262WAT     H216029   5.755   1.737   3.912
 5263WAT      O16030   7.974   0.019   1.380
 5263WAT     H116031   8.050  -0.043   1.365
 5263WAT     H216032   8.002   0.093   1.441
 5264WAT      O16033   3.964   9.122   6.811
 5264WAT     H116034   3.882   9.178   6.807
 5264WAT     H216035   3.956   9.046   6.746
 5265WAT      O16036   0.175   4.856   7.860
 5265WAT     H116037   0.232   4.833   7.782
 5265WAT     H216038   0.087   4.891   7.828
 5266WAT      O16039   0.228   9.798   8.492
 5266WAT     H116040   0.257   9.877   8.545
 5266WAT     H216041   0.308   9.746   8.462
 5267WAT      O16042   5.990   1.428   3.845
 5267WAT     H116043   6.079   1.411   3.804
 5267WAT     H216044   6.001   1.478   3.931
 5268WAT      O16045   4.014   6.657   5.075
 5268WAT     H116046   4.091   6.683   5.016
 5268WAT     H216047   4.040   6.579   5.131
 5269WAT      O16048   9.879   6.292   1.805
 5269WAT     H116049   9.803   6.334   1.855
 5269WAT     H216050   9.963   6.302   1.858
 5270WAT      O16051   0.568   6.514   6.021
 5270WAT     H116052   0.580   6.416   6.005
 5270WAT     H216053   0.506   6.528   6.099
 5271WAT      O16054   5.886   5.763   5.565
 5271WAT     H116055   5.829   5.736   5.642
 5271WAT     H216056   5.858   5.713   5.483
 5272WAT      O16057   8.420   3.939   6.631
 5272WAT     H116058   8.358   3.943   6.710
 5272WAT     H216059   8.370   3.912   6.550
 5273WAT      O16060   5.717   5.195   7.369
 5273WAT     H116061   5.679   5.155   7.453
 5273WAT     H216062   5.659   5.171   7.292
 5274WAT      O16063   5.754   2.647   2.614
 5274WAT     H116064   5.734   2.661   2.517
 5274WAT     H216065   5.735   2.732   2.664
 5275WAT      O16066   3.563   5.771   5.584
 5275WAT     H116067   3.473   5.727   5.590
 5275WAT     H216068   3.555   5.866   5.616
 5276WAT      O16069   8.921   9.312   3.946
 5276WAT     H116070   8.878   9.326   3.856
 5276WAT     H216071   8.940   9.401   3.988
 5277WAT      O16072   2.594   3.358   6.121
 5277WAT     H116073   2.502   3.322   6.106
 5277WAT     H216074   2.662   3.291   6.092
 5278WAT      O16075   1.804   9.529   9.367
 5278WAT     H116076   1.870   9.578   9.310
 5278WAT     H216077   1.783   9.584   9.448
 5279WAT      O16078   8.614   5.536   9.546
 5279WAT     H116079   8.637   5.605   9.615
 5279WAT     H216080   8.554   5.577   9.477
 5280WAT      O16081   6.566   3.094   3.112
 5280WAT     H116082   6.499   3.150   3.160
 5280WAT     H216083   6.655   3.141   3.111
 5281WAT      O16084   6.828   5.551   7.707
 5281WAT     H116085   6.860   5.542   7.802
 5281WAT     H216086   6.752   5.616   7.705
 5282WAT      O16087   6.710   4.073   1.408
 5282WAT     H116088   6.794   4.039   1.450
 5282WAT     H216089   6.654   4.118   1.477
 5283WAT      O16090   1.652   9.001   0.313
 5283WAT     H116091   1.582   9.054   0.360
 5283WAT     H216092   1.680   8.924   0.370
 5284WAT      O16093   4.285   4.529   4.585
 5284WAT     H116094   4.307   4.615   4.631
 5284WAT     H216095   4.189   4.529   4.558
 5285WAT      O16096   0.253   2.600   3.690
 5285WAT     H116097   0.192   2.523   3.671
 5285WAT     H216098   0.346   2.566   3.704
 5286WAT      O16099   7.410   5.292   7.675
 5286WAT     H116100   7.347   5.250   7.610
 5286WAT     H216101   7.449   5.375   7.634
 5287WAT      O16102   3.892   2.627   4.667
 5287WAT     H116103   3.851   2.667   4.585
 5287WAT     H216104   3.834   2.646   4.746
 5288WAT      O16105   9.075   1.121   8.648
 5288WAT     H116106   9.048   1.174   8.729
 5288WAT     H216107   9.049   1.171   8.565
 5289WAT      O16108   3.233   3.760   9.458
 5289WAT     H116109   3.318   3.771   9.509
 5289WAT     H216110   3.203   3.850   9.426
 5290WAT      O16111   7.730   4.266   6.665
 5290WAT     H116112   7.735   4.288   6.567
 5290WAT     H216113   7.778   4.180   6.682
 5291WAT      O16114   0.777   4.995   1.622
 5291WAT     H116115   0.780   5.085   1.578
 5291WAT     H216116   0.691   4.949   1.598
 5292WAT      O16117   2.985   0.689   6.421
 5292WAT     H116118   2.896   0.646   6.435
 5292WAT     H216119   2.985   0.736   6.333
 5293WAT      O16120   6.707   6.551   2.977
 5293WAT     H116121   6.740   6.458   2.993
 5293WAT     H216122   6.667   6.557   2.886
 5294WAT      O16123   6.945   7.260   1.618
 5294WAT     H116124   7.039   7.228   1.608
 5294WAT     H216125   6.925   7.275   1.715
 5295WAT      O16126   6.249   9.765   4.059
 5295WAT     H116127   6.240   9.783   4.157
 5295WAT     H216128   6.327   9.705   4.043
 5296WAT      O16129   5.517   9.291   6.929
 5296WAT     H116130   5.510   9.375   6.981
 5296WAT     H216131   5.473   9.302   6.840
 5297WAT      O16132   7.872   6.618   1.745
 5297WAT     H116133   7.936   6.669   1.687
 5297WAT     H216134   7.794   6.677   1.768
 5298WAT      O16135   5.394   9.762   6.525
 5298WAT     H116136   5.309   9.710   6.519
 5298WAT     H216137   5.461   9.712   6.580
 5299WAT      O16138   0.244   7.925   3.456
 5299WAT     H116139   0.256   8.007   3.400
 5299WAT     H216140   0.286   7.847   3.411
 5300WAT      O16141   6.543   9.626   3.807
 5300WAT     H116142   6.600   9.702   3.839
 5300WAT     H216143   6.483   9.596   3.881
 5301WAT      O16144   7.719   7.545   0.503
 5301WAT     H116145   7.673   7.633   0.492
 5301WAT     H216146   7.694   7.485   0.427
 5302WAT      O16147   8.005   3.719   2.680
 5302WAT     H116148   8.078   3.701   2.746
 5302WAT     H216149   8.045   3.736   2.590
 5303WAT      O16150   8.492   3.026   1.321
 5303WAT     H116151   8.450   3.085   1.253
 5303WAT     H216152   8.531   3.082   1.394
 5304WAT      O16153   1.257   1.151   0.990
 5304WAT     H116154   1.343   1.202   0.998
 5304WAT     H216155   1.191   1.187   1.057
 5305WAT      O16156   6.922   6.893   3.621
 5305WAT     H116157   6.937   6.977   3.673
 5305WAT     H216158   6.895   6.915   3.528
 5306WAT      O16159   2.764   1.647   4.871
 5306WAT     H116160   2.754   1.680   4.777
 5306WAT     H216161   2.683   1.673   4.923
 5307WAT      O16162   3.127   4.746   9.871
 5307WAT     H116163   3.046   4.800   9.849
 5307WAT     H216164   3.126   4.724   9.969
 5308WAT      O16165   7.769   5.209   7.878
 5308WAT     H116166   7.845   5.236   7.819
 5308WAT     H216167   7.739   5.288   7.932
 5309WAT      O16168   0.856   3.119   9.067
 5309WAT     H116169   0.782   3.183   9.044
 5309WAT     H216170   0.885   3.135   9.161
 5310WAT      O16171   0.669   3.054   3.364
 5310WAT     H116172   0.728   3.057   3.283
 5310WAT     H216173   0.664   3.145   3.404
 5311WAT      O16174   9.241   0.315   5.208
 5311WAT     H116175   9.231   0.403   5.163
 5311WAT     H216176   9.338   0.288   5.206
 5312WAT      O16177   4.759   9.639   4.637
 5312WAT     H116178   4.728   9.734   4.639
 5312WAT     H216179   4.712   9.586   4.707
 5313WAT      O16180   6.905   9.497   0.920
 5313WAT     H116181   6.950   9.572   0.968
 5313WAT     H216182   6.940   9.492   0.826
 5314WAT      O16183   7.375   1.045   9.044
 5314WAT     H116184   7.331   1.067   8.957
 5314WAT     H216185   7.394   1.130   9.094
 5315WAT      O16186   6.311   0.297   6.695
 5315WAT     H116187   6.383   0.334   6.637
 5315WAT     H216188   6.271   0.216   6.652
 5316WAT      O16189   4.414   6.148   2.353
 5316WAT     H116190   4.473   6.229   2.356
 5316WAT     H216191   4.382   6.127   2.445
 5317WAT      O16192   3.705   3.894   8.745
 5317WAT     H116193   3.785   3.857   8.793
 5317WAT     H216194   3.722   3.990   8.722
 5318WAT      O16195   7.778   5.161   8.788
 5318WAT     H116196   7.870   5.152   8.750
 5318WAT     H216197   7.715   5.188   8.716
 5319WAT      O16198   2.635   2.487   3.407
 5319WAT     H116199   2.673   2.397   3.387
 5319WAT     H216200   2.541   2.492   3.374
 5320WAT      O16201   1.026   1.838   2.271
 5320WAT     H116202   1.022   1.739   2.271
 5320WAT     H216203   1.115   1.868   2.236
 5321WAT      O16204   2.070   4.481   8.347
 5321WAT     H116205   2.013   4.494   8.428
 5321WAT     H216206   2.166   4.472   8.373
 5322WAT      O16207   6.451   7.141   3.548
 5322WAT     H116208   6.493   7.099   3.628
 5322WAT     H216209   6.450   7.075   3.472
 5323WAT      O16210   1.747   8.356   8.213
 5323WAT     H116211   1.688   8.436   8.226
 5323WAT     H216212   1.816   8.375   8.144
 5324WAT      O16213   8.034   9.303   7.940
 5324WAT     H116214   7.950   9.300   7.993
 5324WAT     H216215   8.100   9.238   7.977
 5325WAT      O16216   2.886   6.812   5.784
 5325WAT     H116217   2.851   6.789   5.875
 5325WAT     H216218   2.846   6.750   5.717
 5326WAT      O16219   0.948   3.378   5.466
 5326WAT     H116220   1.020   3.343   5.406
 5326WAT     H216221   0.926   3.310   5.535
 5327WAT      O16222   2.977   7.207   0.727
 5327WAT     H116223   3.008   7.289   0.775
 5327WAT     H216224   2.961   7.133   0.793
 5328WAT      O16225   8.850   1.075   3.197
 5328WAT     H116226   8.788   1.130   3.253
 5328WAT     H216227   8.923   1.133   3.161
 5329WAT      O16228   8.760   4.047   7.641
 5329WAT     H116229   8.741   4.145   7.644
 5329WAT     H216230   8.675   3.996   7.655
 5330WAT      O16231   6.765   3.797   4.179
 5330WAT     H116232   6.801   3.888   4.158
 5330WAT     H216233   6.768   3.740   4.097
 5331WAT      O16234   8.734   0.726   2.000
 5331WAT     H116235   8.751   0.654   1.932
 5331WAT     H216236   8.762   0.694   2.090
 5332WAT      O16237   9.806   9.738   5.116
 5332WAT     H116238   9.891   9.695   5.148
 5332WAT     H216239   9.746   9.667   5.080
 5333WAT      O16240   1.190   4.073   5.769
 5333WAT     H116241   1.284   4.062   5.736
 5333WAT     H216242   1.183   4.039   5.862
 5334WAT      O16243   1.358   8.105   9.783
 5334WAT     H116244   1.367   8.173   9.856
 5334WAT     H216245   1.283   8.131   9.722
 5335WAT      O16246   2.262   4.002   9.387
 5335WAT     H116247   2.348   4.052   9.394
 5335WAT     H216248   2.228   4.006   9.293
 5336WAT      O16249   7.581   0.248   2.972
 5336WAT     H116250   7.598   0.198   3.057
 5336WAT     H216251   7.492   0.295   2.979
 5337WAT      O16252   8.364   8.636   4.113
 5337WAT     H116253   8.399   8.680   4.030
 5337WAT     H216254   8.401   8.683   4.193
 5338WAT      O16255   9.506   6.912   6.214
 5338WAT     H116256   9.424   6.897   6.159
 5338WAT     H216257   9.483   6.966   6.295
 5339WAT      O16258   7.395   6.602   3.261
 5339WAT     H116259   7.433   6.652   3.340
 5339WAT     H216260   7.325   6.659   3.217
 5340WAT      O16261   4.074   0.720   6.432
 5340WAT     H116262   4.067   0.711   6.333
 5340WAT     H216263   4.167   0.698   6.461
 5341WAT      O16264   2.766   7.959   0.864
 5341WAT     H116265   2.684   7.956   0.920
 5341WAT     H216266   2.817   7.873   0.874
 5342WAT      O16267   7.096   5.016   3.780
 5342WAT     H116268   7.161   4.941   3.795
 5342WAT     H216269   7.130   5.098   3.826
 5343WAT      O16270   9.248   9.350   3.361
 5343WAT     H116271   9.306   9.272   3.384
 5343WAT     H216272   9.304   9.424   3.325
 5344WAT      O16273   0.440   2.944   3.083
 5344WAT     H116274   0.392   2.887   3.016
 5344WAT     H216275   0.376   2.976   3.153
 5345WAT      O16276   9.741   3.573   5.043
 5345WAT     H116277   9.803   3.524   4.982
 5345WAT     H216278   9.711   3.658   5.000
 5346WAT      O16279   9.840   5.319   1.403
 5346WAT     H116280   9.901   5.249   1.439
 5346WAT     H216281   9.758   5.276   1.365
 5347WAT      O16282   9.261   2.900   9.288
 5347WAT     H116283   9.162   2.905   9.276
 5347WAT     H216284   9.303   2.986   9.258
 5348WAT      O16285   2.870   1.691   7.976
 5348WAT     H116286   2.924   1.641   8.044
 5348WAT     H216287   2.798   1.632   7.940
 5349WAT      O16288   9.388   5.496   8.683
 5349WAT     H116289   9.463   5.543   8.729
 5349WAT     H216290   9.381   5.528   8.588
 5350WAT      O16291   3.823   5.882   9.686
 5350WAT     H116292   3.845   5.955   9.622
 5350WAT     H216293   3.732   5.897   9.724
 5351WAT      O16294   5.197   7.518   9.205
 5351WAT     H116295   5.100   7.499   9.217
 5351WAT     H216296   5.214   7.616   9.215
 5352WAT      O16297   7.923   3.624   8.878
 5352WAT     H116298   7.892   3.587   8.790
 5352WAT     H216299   8.016   3.659   8.868
 5353WAT      O16300   4.377   1.580   8.279
 5353WAT     H116301   4.399   1.490   8.316
 5353WAT     H216302   4.419   1.591   8.189
 5354WAT      O16303   7.987   6.267   4.620
 5354WAT     H116304   8.029   6.247   4.532
 5354WAT     H216305   7.997   6.188   4.681
 5355WAT      O16306   6.480   0.646   9.685
 5355WAT     H116307   6.528   0.732   9.670
 5355WAT     H216308   6.383   0.658   9.664
 5356WAT      O16309   0.019   9.485   1.564
 5356WAT     H116310   0.085   9.441   1.503
 5356WAT     H216311  -0.008   9.573   1.526
 5357WAT      O16312   8.654   2.671   6.243
 5357WAT     H116313   8.578   2.627   6.194
 5357WAT     H216314   8.687   2.749   6.190
 5358WAT      O16315   1.222   7.164   6.486
 5358WAT     H116316   1.149   7.101   6.510
 5358WAT     H216317   1.207   7.198   6.393
 5359WAT      O16318   8.956   7.325   1.016
 5359WAT     H116319   9.013   7.252   1.052
 5359WAT     H216320   8.992   7.355   0.928
 5360WAT      O16321   9.365   3.801   8.670
 5360WAT     H116322   9.286   3.813   8.731
 5360WAT     H216323   9.420   3.885   8.671
 5361WAT      O16324   7.039   2.005   6.884
 5361WAT     H116325   7.093   2.084   6.856
 5361WAT     H216326   7.066   1.978   6.977
 5362WAT      O16327   8.216   4.979   9.591
 5362WAT     H116328   8.272   5.046   9.541
 5362WAT     H216329   8.122   5.013   9.598
 5363WAT      O16330   5.053   3.721   4.916
 5363WAT     H116331   5.080   3.797   4.976
 5363WAT     H216332   5.088   3.635   4.953
 5364WAT      O16333   4.778   3.365   6.493
 5364WAT     H116334   4.852   3.433   6.492
 5364WAT     H216335   4.812   3.280   6.532
 5365WAT      O16336   5.835   6.809   7.456
 5365WAT     H116337   5.796   6.837   7.544
 5365WAT     H216338   5.809   6.875   7.385
 5366WAT      O16339   3.551   4.296   4.219
 5366WAT     H116340   3.607   4.237   4.162
 5366WAT     H216341   3.544   4.257   4.311
 5367WAT      O16342   3.388   6.473   0.134
 5367WAT     H116343   3.426   6.476   0.041
 5367WAT     H216344   3.314   6.540   0.142
 5368WAT      O16345   2.554   0.814   2.430
 5368WAT     H116346   2.616   0.763   2.370
 5368WAT     H216347   2.548   0.909   2.398
 5369WAT      O16348   2.169   3.660   5.932
 5369WAT     H116349   2.122   3.738   5.972
 5369WAT     H216350   2.112   3.620   5.860
 5370WAT      O16351   8.998   2.295   6.126
 5370WAT     H116352   9.090   2.332   6.110
 5370WAT     H216353   8.974   2.233   6.051
 5371WAT      O16354   6.086   2.656   1.753
 5371WAT     H116355   6.014   2.725   1.741
 5371WAT     H216356   6.176   2.700   1.745
 5372WAT      O16357   1.967   4.860   1.200
 5372WAT     H116358   1.976   4.959   1.215
 5372WAT     H216359   1.891   4.843   1.137
 5373WAT      O16360   8.552   6.576   3.123
 5373WAT     H116361   8.596   6.584   3.034
 5373WAT     H216362   8.502   6.660   3.143
 5374WAT      O16363   3.267   8.667   2.961
 5374WAT     H116364   3.312   8.708   3.040
 5374WAT     H216365   3.188   8.722   2.935
 5375WAT      O16366   5.316   1.563   0.946
 5375WAT     H116367   5.238   1.594   0.891
 5375WAT     H216368   5.372   1.501   0.892
 5376WAT      O16369   0.421   6.924   4.630
 5376WAT     H116370   0.461   6.927   4.722
 5376WAT     H216371   0.494   6.934   4.562
 5377WAT      O16372   5.637   6.251   3.649
 5377WAT     H116373   5.609   6.331   3.597
 5377WAT     H216374   5.586   6.248   3.735
 5378WAT      O16375   2.950   6.357   8.997
 5378WAT     H116376   2.853   6.381   9.005
 5378WAT     H216377   2.998   6.387   9.079
 5379WAT      O16378   5.897   9.066   9.836
 5379WAT     H116379   5.911   8.972   9.804
 5379WAT     H216380   5.814   9.103   9.795
 5380WAT      O16381   6.320   8.439   2.839
 5380WAT     H116382   6.221   8.450   2.854
 5380WAT     H216383   6.370   8.472   2.919
 5381WAT      O16384   8.921   7.904   9.832
 5381WAT     H116385   8.960   7.888   9.741
 5381WAT     H216386   8.852   7.835   9.851
 5382WAT      O16387   4.556   6.516   0.250
 5382WAT     H116388   4.597   6.560   0.330
 5382WAT     H216389   4.615   6.441   0.220
 5383WAT      O16390   8.356   6.744   4.687
 5383WAT     H116391   8.282   6.789   4.738
 5383WAT     H216392   8.378   6.799   4.606
 5384WAT      O16393   2.265   6.773   1.443
 5384WAT     H116394   2.306   6.789   1.533
 5384WAT     H216395   2.174   6.815   1.440
 5385WAT      O16396   3.044   1.418   6.228
 5385WAT     H116397   3.058   1.496   6.290
 5385WAT     H216398   3.028   1.335   6.282
 5386WAT      O16399   2.147   8.595   4.231
 5386WAT     H116400   2.141   8.691   4.259
 5386WAT     H216401   2.242   8.573   4.208
 5387WAT      O16402   5.769   3.298   1.656
 5387WAT     H116403   5.869   3.288   1.656
 5387WAT     H216404   5.745   3.387   1.616
 5388WAT      O16405   3.517   3.225   7.623
 5388WAT     H116406   3.566   3.311   7.637
 5388WAT     H216407   3.445   3.216   7.692
 5389WAT      O16408   6.551   2.460   9.556
 5389WAT     H116409   6.526   2.504   9.641
 5389WAT     H216410   6.488   2.385   9.536
 5390WAT      O16411   2.352   1.985   4.537
 5390WAT     H116412   2.391   2.059   4.591
 5390WAT     H216413   2.253   1.983   4.550
 5391WAT      O16414   6.723   8.644   0.569
 5391WAT     H116415   6.651   8.620   0.635
 5391WAT     H216416   6.685   8.638   0.477
 5392WAT      O16417   4.342   9.140   0.038
 5392WAT     H116418   4.337   9.167  -0.059
 5392WAT     H216419   4.300   9.050   0.048
 5393WAT      O16420   9.718   3.007   0.462
 5393WAT     H116421   9.795   3.022   0.523
 5393WAT     H216422   9.646   2.956   0.510
 5394WAT      O16423   6.063   3.521   0.127
 5394WAT     H116424   6.037   3.459   0.053
 5394WAT     H216425   6.152   3.561   0.107
 5395WAT      O16426   2.465   6.624   3.454
 5395WAT     H116427   2.512   6.633   3.367
 5395WAT     H216428   2.366   6.632   3.440
 5396WAT      O16429   7.867   8.298   5.331
 5396WAT     H116430   7.912   8.218   5.292
 5396WAT     H216431   7.845   8.363   5.259
 5397WAT      O16432   7.246   4.751   3.791
 5397WAT     H116433   7.224   4.692   3.713
 5397WAT     H216434   7.204   4.714   3.874
 5398WAT      O16435   0.928   8.456   9.535
 5398WAT     H116436   0.884   8.367   9.549
 5398WAT     H216437   0.937   8.503   9.623
 5399WAT      O16438   9.116   4.925   9.391
 5399WAT     H116439   9.089   4.840   9.346
 5399WAT     H216440   9.159   4.986   9.325
 5400WAT      O16441   4.522   1.044   6.781
 5400WAT     H116442   4.593   1.062   6.848
 5400WAT     H216443   4.460   1.122   6.776
 5401WAT      O16444   8.191   6.206   2.671
 5401WAT     H116445   8.261   6.277   2.671
 5401WAT     H216446   8.199   6.152   2.586
 5402WAT      O16447   4.272   1.977   0.341
 5402WAT     H116448   4.258   2.011   0.248
 5402WAT     H216449   4.369   1.959   0.355
 5403WAT      O16450   1.600   2.447   2.844
 5403WAT     H116451   1.669   2.424   2.774
 5403WAT     H216452   1.511   2.458   2.800
 5404WAT      O16453   6.708   3.455   6.673
 5404WAT     H116454   6.670   3.452   6.765
 5404WAT     H216455   6.664   3.529   6.621
 5405WAT      O16456   2.266   4.898   5.490
 5405WAT     H116457   2.261   4.967   5.417
 5405WAT     H216458   2.354   4.850   5.484
 5406WAT      O16459   1.998   1.995   2.027
 5406WAT     H116460   2.083   2.046   2.037
 5406WAT     H216461   1.996   1.920   2.094
 5407WAT      O16462   7.214   8.120   5.899
 5407WAT     H116463   7.254   8.107   5.808
 5407WAT     H216464   7.115   8.119   5.892
 5408WAT      O16465   8.274   5.954   5.393
 5408WAT     H116466   8.215   5.988   5.320
 5408WAT     H216467   8.340   5.889   5.355
 5409WAT      O16468   7.332   3.271   0.758
 5409WAT     H116469   7.366   3.327   0.834
 5409WAT     H216470   7.397   3.197   0.739
 5410WAT      O16471   6.578   8.240   8.976
 5410WAT     H116472   6.500   8.205   8.924
 5410WAT     H216473   6.645   8.167   8.988
 5411WAT      O16474   4.723   2.155   8.308
 5411WAT     H116475   4.811   2.184   8.346
 5411WAT     H216476   4.724   2.056   8.293
 5412WAT      O16477   4.837   0.421   3.828
 5412WAT     H116478   4.750   0.380   3.802
 5412WAT     H216479   4.896   0.350   3.868
 5413WAT      O16480   3.484   8.479   3.369
 5413WAT     H116481   3.530   8.479   3.281
 5413WAT     H216482   3.406   8.541   3.366
 5414WAT      O16483   5.970   8.400   1.333
 5414WAT     H116484   6.024   8.479   1.363
 5414WAT     H216485   5.953   8.341   1.412
 5415WAT      O16486   2.741   8.479   9.854
 5415WAT     H116487   2.699   8.557   9.901
 5415WAT     H216488   2.673   8.407   9.841
 5416WAT      O16489   9.626   7.785   6.091
 5416WAT     H116490   9.689   7.791   6.169
 5416WAT     H216491   9.678   7.779   6.006
 5417WAT      O16492   1.019   8.416   0.968
 5417WAT     H116493   0.965   8.353   1.024
 5417WAT     H216494   1.116   8.409   0.993
 5418WAT      O16495   1.428   7.212   4.595
 5418WAT     H116496   1.438   7.280   4.668
 5418WAT     H216497   1.377   7.252   4.519
 5419WAT      O16498   6.244   1.586   0.899
 5419WAT     H116499   6.155   1.541   0.910
 5419WAT     H216500   6.284   1.603   0.989
 5420WAT      O16501   1.160   7.345   1.827
 5420WAT     H116502   1.162   7.391   1.738
 5420WAT     H216503   1.097   7.267   1.823
 5421WAT      O16504   9.418   6.962   8.808
 5421WAT     H116505   9.475   7.011   8.873
 5421WAT     H216506   9.424   6.864   8.826
 5422WAT      O16507   7.401   3.545   4.894
 5422WAT     H116508   7.316   3.598   4.884
 5422WAT     H216509   7.402   3.471   4.826
 5423WAT      O16510   7.228   5.952   3.759
 5423WAT     H116511   7.304   6.017   3.761
 5423WAT     H216512   7.142   6.003   3.768
 5424WAT      O16513   1.276   8.365   5.705
 5424WAT     H116514   1.188   8.356   5.750
 5424WAT     H216515   1.307   8.460   5.710
 5425WAT      O16516   5.954   7.204   8.651
 5425WAT     H116517   6.044   7.174   8.617
 5425WAT     H216518   5.944   7.178   8.747
 5426WAT      O16519   2.187   3.269   2.920
 5426WAT     H116520   2.214   3.179   2.884
 5426WAT     H216521   2.134   3.318   2.851
 5427WAT      O16522   5.062   3.911   1.645
 5427WAT     H116523   5.127   3.855   1.696
 5427WAT     H216524   4.977   3.921   1.697
 5428WAT      O16525   6.744   1.184   7.343
 5428WAT     H116526   6.755   1.243   7.423
 5428WAT     H216527   6.713   1.093   7.372
 5429WAT      O16528   9.712   1.027   6.436
 5429WAT     H116529   9.739   1.011   6.531
 5429WAT     H216530   9.620   0.992   6.421
 5430WAT      O16531   9.677   7.076   1.970
 5430WAT     H116532   9.613   7.152   1.982
 5430WAT     H216533   9.710   7.075   1.876
 5431WAT      O16534   1.585   2.183   6.559
 5431WAT     H116535   1.577   2.178   6.659
 5431WAT     H216536   1.682   2.190   6.534
 5432WAT      O16537   7.931   1.736   4.894
 5432WAT     H116538   8.028   1.756   4.880
 5432WAT     H216539   7.891   1.805   4.953
 5433WAT      O16540   2.925   9.542   3.468
 5433WAT     H116541   3.011   9.491   3.467
 5433WAT     H216542   2.944   9.638   3.489
 5434WAT      O16543   8.824   8.241   1.270
 5434WAT     H116544   8.811   8.270   1.364
 5434WAT     H216545   8.814   8.319   1.209
 5435WAT      O16546   7.931   0.685   3.249
 5435WAT     H116547   7.853   0.747   3.244
 5435WAT     H216548   8.000   0.712   3.181
 5436WAT      O16549   5.053   5.606   1.974
 5436WAT     H116550   5.056   5.508   1.995
 5436WAT     H216551   5.077   5.621   1.878
 5437WAT      O16552   5.090   2.964   8.920
 5437WAT     H116553   5.054   2.937   8.831
 5437WAT     H216554   5.182   2.926   8.931
 5438WAT      O16555   0.862   6.759   4.566
 5438WAT     H116556   0.920   6.804   4.634
 5438WAT     H216557   0.775   6.735   4.607
 5439WAT      O16558   9.270   7.427   8.472
 5439WAT     H116559   9.340   7.496   8.450
 5439WAT     H216560   9.198   7.429   8.403
 5440WAT      O16561   8.697   1.428   3.649
 5440WAT     H116562   8.729   1.442   3.555
 5440WAT     H216563   8.748   1.353   3.691
 5441WAT      O16564   7.505   4.060   8.967
 5441WAT     H116565   7.409   4.061   8.998
 5441WAT     H216566   7.509   4.034   8.871
 5442WAT      O16567   2.012   5.795   4.156
 5442WAT     H116568   1.943   5.865   4.176
 5442WAT     H216569   2.024   5.737   4.236
 5443WAT      O16570   1.371   2.716   9.860
 5443WAT     H116571   1.454   2.663   9.845
 5443WAT     H216572   1.311   2.667   9.923
 5444WAT      O16573   1.134   1.647   8.556
 5444WAT     H116574   1.168   1.562   8.597
 5444WAT     H216575   1.152   1.723   8.618
 5445WAT      O16576   8.660   5.966   3.499
 5445WAT     H116577   8.610   5.881   3.480
 5445WAT     H216578   8.757   5.946   3.510
 5446WAT      O16579   2.197   6.685   0.457
 5446WAT     H116580   2.135   6.608   0.472
 5446WAT     H216581   2.143   6.767   0.437
 5447WAT      O16582   5.332   4.006   8.876
 5447WAT     H116583   5.354   3.909   8.872
 5447WAT     H216584   5.334   4.037   8.971
 5448WAT      O16585   5.490   4.152   1.273
 5448WAT     H116586   5.422   4.096   1.226
 5448WAT     H216587   5.461   4.167   1.368
 5449WAT      O16588   9.473   4.564   9.374
 5449WAT     H116589   9.488   4.471   9.342
 5449WAT     H216590   9.416   4.562   9.456
 5450WAT      O16591   4.885   3.573   0.634
 5450WAT     H116592   4.959   3.605   0.575
 5450WAT     H216593   4.913   3.488   0.679
 5451WAT      O16594   6.571   9.357   9.334
 5451WAT     H116595   6.490   9.385   9.386
 5451WAT     H216596   6.602   9.268   9.367
 5452WAT      O16597   2.485   7.484   1.885
 5452WAT     H116598   2.542   7.439   1.953
 5452WAT     H216599   2.509   7.581   1.880
 5453WAT      O16600   3.462   3.223   0.539
 5453WAT     H116601   3.411   3.151   0.492
 5453WAT     H216602   3.407   3.257   0.616
 5454WAT      O16603   4.558   9.391   9.001
 5454WAT     H116604   4.613   9.448   8.940
 5454WAT     H216605   4.572   9.418   9.096
 5455WAT      O16606   3.847   0.124   0.479
 5455WAT     H116607   3.849   0.223   0.492
 5455WAT     H216608   3.823   0.079   0.565
 5456WAT      O16609   1.538   2.265   7.913
 5456WAT     H116610   1.497   2.338   7.967
 5456WAT     H216611   1.555   2.186   7.972
 5457WAT      O16612   4.542   1.694   0.637
 5457WAT     H116613   4.563   1.785   0.674
 5457WAT     H216614   4.620   1.662   0.583
 5458WAT      O16615   7.937   1.371   1.498
 5458WAT     H116616   7.841   1.352   1.477
 5458WAT     H216617   7.961   1.330   1.586
 5459WAT      O16618   4.726   7.542   2.943
 5459WAT     H116619   4.769   7.513   3.028
 5459WAT     H216620   4.790   7.530   2.867
 5460WAT      O16621   0.347   2.136   0.864
 5460WAT     H116622   0.422   2.184   0.818
 5460WAT     H216623   0.306   2.195   0.933
 5461WAT      O16624   2.274   0.381   0.146
 5461WAT     H116625   2.264   0.480   0.147
 5461WAT     H216626   2.188   0.338   0.175
 5462WAT      O16627   1.510   6.588   0.394
 5462WAT     H116628   1.456   6.548   0.467
 5462WAT     H216629   1.453   6.649   0.339
 5463WAT      O16630   6.897   9.567   8.692
 5463WAT     H116631   6.842   9.491   8.727
 5463WAT     H216632   6.895   9.566   8.592
 5464WAT      O16633   5.426   9.708   8.497
 5464WAT     H116634   5.477   9.683   8.414
 5464WAT     H216635   5.398   9.804   8.491
 5465WAT      O16636   5.915   1.284   5.531
 5465WAT     H116637   5.897   1.340   5.449
 5465WAT     H216638   5.848   1.210   5.535
 5466WAT      O16639   1.843   1.339   3.649
 5466WAT     H116640   1.864   1.320   3.554
 5466WAT     H216641   1.886   1.426   3.676
 5467WAT      O16642   6.855   0.699   9.868
 5467WAT     H116643   6.804   0.784   9.882
 5467WAT     H216644   6.912   0.707   9.786
 5468WAT      O16645   5.563   8.147   8.612
 5468WAT     H116646   5.636   8.157   8.544
 5468WAT     H216647   5.512   8.232   8.620
 5469WAT      O16648   1.089   4.893   7.839
 5469WAT     H116649   1.186   4.897   7.814
 5469WAT     H216650   1.043   4.825   7.783
 5470WAT      O16651   1.672   7.464   9.210
 5470WAT     H116652   1.746   7.416   9.257
 5470WAT     H216653   1.656   7.552   9.253
 5471WAT      O16654   2.461   7.999   6.210
 5471WAT     H116655   2.491   8.085   6.250
 5471WAT     H216656   2.491   7.923   6.269
 5472WAT      O16657   2.355   0.606   3.696
 5472WAT     H116658   2.433   0.563   3.650
 5472WAT     H216659   2.274   0.601   3.637
 5473WAT      O16660   8.732   8.431   3.735
 5473WAT     H116661   8.691   8.350   3.776
 5473WAT     H216662   8.789   8.404   3.657
 5474WAT      O16663   5.793   2.361   8.236
 5474WAT     H116664   5.710   2.409   8.210
 5474WAT     H216665   5.830   2.401   8.320
 5475WAT      O16666   6.725   9.456   7.386
 5475WAT     H116667   6.659   9.383   7.402
 5475WAT     H216668   6.812   9.432   7.428
 5476WAT      O16669   9.380   6.268   9.558
 5476WAT     H116670   9.390   6.344   9.623
 5476WAT     H216671   9.324   6.196   9.600
 5477WAT      O16672   4.826   3.389   5.223
 5477WAT     H116673   4.775   3.324   5.166
 5477WAT     H216674   4.765   3.429   5.291
 5478WAT      O16675   2.373   9.094   5.883
 5478WAT     H116676   2.325   9.181   5.897
 5478WAT     H216677   2.469   9.105   5.908
 5479WAT      O16678   4.961   3.256   4.880
 5479WAT     H116679   4.930   3.181   4.938
 5479WAT     H216680   4.906   3.258   4.796
 5480WAT      O16681   4.109   1.505   4.744
 5480WAT     H116682   4.151   1.594   4.728
 5480WAT     H216683   4.049   1.510   4.823
 5481WAT      O16684   4.314   6.134   3.531
 5481WAT     H116685   4.382   6.207   3.537
 5481WAT     H216686   4.223   6.172   3.542
 5482WAT      O16687   0.031   3.344   3.487
 5482WAT     H116688  -0.003   3.255   3.515
 5482WAT     H216689  -0.025   3.378   3.411
 5483WAT      O16690   6.526   4.421   0.224
 5483WAT     H116691   6.595   4.360   0.186
 5483WAT     H216692   6.495   4.485   0.154
 5484WAT      O16693   7.408   9.124   4.817
 5484WAT     H116694   7.392   9.025   4.817
 5484WAT     H216695   7.480   9.146   4.751
 5485WAT      O16696   4.447   5.604   5.307
 5485WAT     H116697   4.412   5.698   5.310
 5485WAT     H216698   4.476   5.576   5.398
 5486WAT      O16699   9.031   5.663   3.820
 5486WAT     H116700   8.977   5.667   3.904
 5486WAT     H216701   9.114   5.718   3.831
 5487WAT      O16702   6.616   2.882   1.721
 5487WAT     H116703   6.602   2.794   1.767
 5487WAT     H216704   6.635   2.866   1.624
 5488WAT      O16705   1.159   3.261   9.337
 5488WAT     H116706   1.158   3.355   9.371
 5488WAT     H216707   1.221   3.254   9.259
 5489WAT      O16708   6.209   6.068   0.975
 5489WAT     H116709   6.112   6.060   0.998
 5489WAT     H216710   6.230   6.164   0.954
 5490WAT      O16711   2.453   0.429   5.206
 5490WAT     H116712   2.551   0.424   5.185
 5490WAT     H216713   2.405   0.355   5.158
 5491WAT      O16714   5.707   7.293   5.850
 5491WAT     H116715   5.755   7.257   5.930
 5491WAT     H216716   5.738   7.386   5.832
 5492WAT      O16717   6.709   2.129   3.818
 5492WAT     H116718   6.798   2.175   3.809
 5492WAT     H216719   6.711   2.070   3.898
 5493WAT      O16720   1.593   9.451   3.315
 5493WAT     H116721   1.674   9.467   3.372
 5493WAT     H216722   1.537   9.379   3.357
 5494WAT      O16723   9.751   0.037   7.367
 5494WAT     H116724   9.696   0.012   7.447
 5494WAT     H216725   9.808  -0.040   7.339
 5495WAT      O16726   1.558   8.701   5.376
 5495WAT     H116727   1.479   8.663   5.329
 5495WAT     H216728   1.559   8.671   5.471
 5496WAT      O16729   9.162   0.174   6.918
 5496WAT     H116730   9.175   0.183   7.017
 5496WAT     H216731   9.077   0.219   6.892
 5497WAT      O16732   9.507   4.213   0.867
 5497WAT     H116733   9.425   4.267   0.885
 5497WAT     H216734   9.580   4.273   0.833
 5498WAT      O16735   8.962   6.723   6.848
 5498WAT     H116736   8.936   6.626   6.841
 5498WAT     H216737   9.018   6.736   6.929
 5499WAT      O16738   5.241   6.365   9.746
 5499WAT     H116739   5.338   6.389   9.757
 5499WAT     H216740   5.229   6.267   9.763
 5500WAT      O16741   5.726   7.990   3.717
 5500WAT     H116742   5.708   7.968   3.813
 5500WAT     H216743   5.685   8.079   3.695
 5501WAT      O16744   4.145   6.816   0.727
 5501WAT     H116745   4.073   6.751   0.752
 5501WAT     H216746   4.232   6.768   0.720
 5502WAT      O16747   1.249   1.334   6.672
 5502WAT     H116748   1.307   1.378   6.603
 5502WAT     H216749   1.171   1.394   6.693
 5503WAT      O16750   7.258   6.721   4.778
 5503WAT     H116751   7.288   6.731   4.684
 5503WAT     H216752   7.337   6.714   4.838
 5504WAT      O16753   0.075   7.323   9.495
 5504WAT     H116754   0.135   7.281   9.563
 5504WAT     H216755   0.001   7.372   9.541
 5505WAT      O16756   2.287   7.419   7.615
 5505WAT     H116757   2.370   7.475   7.623
 5505WAT     H216758   2.209   7.478   7.595
 5506WAT      O16759   7.285   8.648   7.011
 5506WAT     H116760   7.199   8.687   6.976
 5506WAT     H216761   7.328   8.713   7.074
 5507WAT      O16762   4.251   5.292   2.022
 5507WAT     H116763   4.250   5.223   2.094
 5507WAT     H216764   4.322   5.270   1.956
 5508WAT      O16765   4.653   8.048   1.556
 5508WAT     H116766   4.749   8.048   1.529
 5508WAT     H216767   4.617   8.141   1.552
 5509WAT      O16768   8.672   4.823   5.301
 5509WAT     H116769   8.745   4.886   5.274
 5509WAT     H216770   8.627   4.789   5.219
 5510WAT      O16771   0.213   5.533   8.729
 5510WAT     H116772   0.294   5.589   8.708
 5510WAT     H216773   0.193   5.540   8.827
 5511WAT      O16774   3.720   4.846   2.506
 5511WAT     H116775   3.634   4.814   2.545
 5511WAT     H216776   3.709   4.859   2.408
 5512WAT      O16777   1.920   7.331   3.782
 5512WAT     H116778   1.938   7.378   3.869
 5512WAT     H216779   1.844   7.267   3.793
 5513WAT      O16780   2.494   1.993   2.280
 5513WAT     H116781   2.461   1.926   2.213
 5513WAT     H216782   2.462   2.084   2.255
 5514WAT      O16783   8.070   4.975   6.636
 5514WAT     H116784   8.023   4.887   6.627
 5514WAT     H216785   8.024   5.044   6.580
 5515WAT      O16786   8.344   5.436   1.223
 5515WAT     H116787   8.247   5.410   1.224
 5515WAT     H216788   8.356   5.517   1.165
 5516WAT      O16789   6.104   4.764   3.994
 5516WAT     H116790   6.075   4.731   3.905
 5516WAT     H216791   6.050   4.844   4.020
 5517WAT      O16792   9.662   3.846   5.704
 5517WAT     H116793   9.709   3.873   5.620
 5517WAT     H216794   9.702   3.761   5.739
 5518WAT      O16795   7.688   8.984   7.317
 5518WAT     H116796   7.727   9.075   7.301
 5518WAT     H216797   7.686   8.966   7.416
 5519WAT      O16798   0.603   6.159   9.717
 5519WAT     H116799   0.591   6.127   9.623
 5519WAT     H216800   0.670   6.101   9.764
 5520WAT      O16801   9.295   4.385   3.592
 5520WAT     H116802   9.394   4.380   3.606
 5520WAT     H216803   9.265   4.301   3.547
 5521WAT      O16804   6.253   3.197   7.559
 5521WAT     H116805   6.193   3.119   7.576
 5521WAT     H216806   6.345   3.165   7.536
 5522WAT      O16807   2.434   0.372   1.487
 5522WAT     H116808   2.490   0.392   1.567
 5522WAT     H216809   2.492   0.334   1.414
 5523WAT      O16810   4.949   1.961   5.503
 5523WAT     H116811   4.856   1.926   5.507
 5523WAT     H216812   4.987   1.945   5.412
 5524WAT      O16813   0.612   4.464   3.327
 5524WAT     H116814   0.697   4.499   3.366
 5524WAT     H216815   0.618   4.365   3.315
 5525WAT      O16816   1.310   6.886   5.240
 5525WAT     H116817   1.269   6.795   5.250
 5525WAT     H216818   1.292   6.921   5.148
 5526WAT      O16819   7.659   1.103   9.829
 5526WAT     H116820   7.663   1.196   9.864
 5526WAT     H216821   7.751   1.063   9.829
 5527WAT      O16822   7.259   0.629   4.620
 5527WAT     H116823   7.331   0.672   4.566
 5527WAT     H216824   7.206   0.568   4.561
 5528WAT      O16825   1.621   7.932   5.856
 5528WAT     H116826   1.558   7.869   5.901
 5528WAT     H216827   1.575   7.979   5.781
 5529WAT      O16828   0.560   3.381   0.890
 5529WAT     H116829   0.612   3.307   0.934
 5529WAT     H216830   0.586   3.469   0.931
 5530WAT      O16831   2.880   4.321   9.069
 5530WAT     H116832   2.878   4.312   9.169
 5530WAT     H216833   2.949   4.260   9.032
 5531WAT      O16834   8.627   8.324   2.028
 5531WAT     H116835   8.563   8.259   2.067
 5531WAT     H216836   8.598   8.348   1.935
 5532WAT      O16837   1.256   5.294   2.489
 5532WAT     H116838   1.261   5.308   2.390
 5532WAT     H216839   1.249   5.196   2.508
 5533WAT      O16840   6.161   8.508   5.293
 5533WAT     H116841   6.214   8.533   5.212
 5533WAT     H216842   6.200   8.426   5.335
 5534WAT      O16843   5.044   2.457   9.014
 5534WAT     H116844   5.019   2.361   8.998
 5534WAT     H216845   4.994   2.515   8.951
 5535WAT      O16846   7.151   6.409   1.945
 5535WAT     H116847   7.057   6.420   1.913
 5535WAT     H216848   7.180   6.492   1.992
 5536WAT      O16849   4.265   9.440   9.153
 5536WAT     H116850   4.298   9.481   9.238
 5536WAT     H216851   4.312   9.481   9.076
 5537WAT      O16852   7.219   8.232   4.355
 5537WAT     H116853   7.240   8.137   4.380
 5537WAT     H216854   7.298   8.273   4.311
 5538WAT      O16855   4.613   4.381   2.221
 5538WAT     H116856   4.698   4.431   2.237
 5538WAT     H216857   4.538   4.427   2.270
 5539WAT      O16858   2.828   7.944   4.217
 5539WAT     H116859   2.808   7.984   4.127
 5539WAT     H216860   2.829   7.845   4.209
 5540WAT      O16861   0.978   0.825   0.973
 5540WAT     H116862   1.043   0.750   0.974
 5540WAT     H216863   0.903   0.804   0.910
 5541WAT      O16864   4.774   9.814   7.300
 5541WAT     H116865   4.710   9.772   7.235
 5541WAT     H216866   4.856   9.757   7.308
 5542WAT      O16867   4.663   1.916   4.082
 5542WAT     H116868   4.613   1.837   4.046
 5542WAT     H216869   4.621   2.000   4.047
 5543WAT      O16870   7.919   4.016   0.698
 5543WAT     H116871   7.954   4.038   0.790
 5543WAT     H216872   7.954   4.084   0.633
 5544WAT      O16873   5.480   9.817   0.434
 5544WAT     H116874   5.564   9.862   0.405
 5544WAT     H216875   5.475   9.816   0.534
 5545WAT      O16876   2.006   1.303   8.801
 5545WAT     H116877   2.076   1.369   8.773
 5545WAT     H216878   1.963   1.334   8.886
 5546WAT      O16879   9.866   2.884   2.057
 5546WAT     H116880   9.828   2.812   2.115
 5546WAT     H216881   9.882   2.966   2.112
 5547WAT      O16882   2.338   9.037   6.922
 5547WAT     H116883   2.253   8.991   6.948
 5547WAT     H216884   2.320   9.100   6.846
 5548WAT      O16885   2.867   3.385   9.820
 5548WAT     H116886   2.915   3.340   9.745
 5548WAT     H216887   2.892   3.482   9.821
 5549WAT      O16888   7.706   8.478   8.917
 5549WAT     H116889   7.689   8.459   8.820
 5549WAT     H216890   7.620   8.493   8.964
 5550WAT      O16891   6.585   9.500   4.504
 5550WAT     H116892   6.678   9.517   4.537
 5550WAT     H216893   6.519   9.533   4.571
 5551WAT      O16894   4.107   4.230   0.553
 5551WAT     H116895   4.039   4.204   0.484
 5551WAT     H216896   4.060   4.273   0.631
 5552WAT      O16897   0.144   9.815   5.443
 5552WAT     H116898   0.206   9.786   5.516
 5552WAT     H216899   0.145   9.915   5.435
 5553WAT      O16900   5.067   1.571   3.097
 5553WAT     H116901   5.001   1.592   3.169
 5553WAT     H216902   5.031   1.499   3.037
 5554WAT      O16903   5.168   7.180   5.931
 5554WAT     H116904   5.234   7.245   5.967
 5554WAT     H216905   5.107   7.227   5.867
 5555WAT      O16906   6.952   2.418   6.541
 5555WAT     H116907   6.920   2.335   6.495
 5555WAT     H216908   7.040   2.445   6.504
 5556WAT      O16909   5.589   9.534   0.596
 5556WAT     H116910   5.527   9.537   0.674
 5556WAT     H216911   5.643   9.618   0.593
 5557WAT      O16912   1.965   7.477   4.038
 5557WAT     H116913   1.987   7.569   4.071
 5557WAT     H216914   1.985   7.410   4.108
 5558WAT      O16915   2.613   8.605   4.042
 5558WAT     H116916   2.669   8.522   4.047
 5558WAT     H216917   2.615   8.641   3.948
 5559WAT      O16918   8.969   9.062   7.351
 5559WAT     H116919   8.886   9.015   7.322
 5559WAT     H216920   9.037   8.995   7.379
 5560WAT      O16921   6.460   5.216   7.978
 5560WAT     H116922   6.420   5.145   8.035
 5560WAT     H216923   6.390   5.254   7.917
 5561WAT      O16924   5.081   9.734   3.277
 5561WAT     H116925   5.149   9.684   3.223
 5561WAT     H216926   5.068   9.688   3.364
 5562WAT      O16927   7.809   8.962   4.061
 5562WAT     H116928   7.818   9.027   4.136
 5562WAT     H216929   7.786   8.871   4.098
 5563WAT      O16930   0.823   1.583   6.242
 5563WAT     H116931   0.852   1.665   6.291
 5563WAT     H216932   0.829   1.599   6.144
 5564WAT      O16933   6.452   3.684   0.276
 5564WAT     H116934   6.462   3.777   0.240
 5564WAT     H216935   6.496   3.679   0.366
 5565WAT      O16936   5.975   2.076   1.434
 5565WAT     H116937   5.984   2.168   1.395
 5565WAT     H216938   6.005   2.009   1.366
 5566WAT      O16939   7.493   8.179   2.524
 5566WAT     H116940   7.414   8.122   2.547
 5566WAT     H216941   7.464   8.274   2.516
 5567WAT      O16942   5.898   2.211   1.701
 5567WAT     H116943   5.909   2.181   1.795
 5567WAT     H216944   5.912   2.133   1.639
 5568WAT      O16945   3.410   1.636   7.500
 5568WAT     H116946   3.500   1.655   7.460
 5568WAT     H216947   3.416   1.647   7.599
 5569WAT      O16948   1.599   7.908   0.240
 5569WAT     H116949   1.630   7.992   0.285
 5569WAT     H216950   1.602   7.921   0.140
 5570WAT      O16951   7.713   3.315   8.811
 5570WAT     H116952   7.706   3.394   8.750
 5570WAT     H216953   7.699   3.345   8.905
 5571WAT      O16954   3.723   3.553   8.155
 5571WAT     H116955   3.636   3.514   8.184
 5571WAT     H216956   3.735   3.539   8.056
 5572WAT      O16957   7.027   6.222   5.125
 5572WAT     H116958   7.003   6.190   5.216
 5572WAT     H216959   7.033   6.144   5.062
 5573WAT      O16960   1.984   1.411   4.762
 5573WAT     H116961   2.067   1.356   4.772
 5573WAT     H216962   1.969   1.464   4.846
 5574WAT      O16963   7.336   1.005   6.981
 5574WAT     H116964   7.296   0.972   7.067
 5574WAT     H216965   7.264   1.047   6.925
 5575WAT      O16966   2.208   4.699   9.571
 5575WAT     H116967   2.302   4.691   9.604
 5575WAT     H216968   2.170   4.608   9.555
 5576WAT      O16969   0.779   6.032   4.339
 5576WAT     H116970   0.744   6.125   4.327
 5576WAT     H216971   0.740   5.992   4.422
 5577WAT      O16972   7.567   5.212   5.931
 5577WAT     H116973   7.540   5.124   5.891
 5577WAT     H216974   7.535   5.216   6.026
 5578WAT      O16975   7.474   2.777   5.300
 5578WAT     H116976   7.539   2.719   5.250
 5578WAT     H216977   7.521   2.825   5.374
 5579WAT      O16978   2.627   4.745   1.170
 5579WAT     H116979   2.709   4.718   1.220
 5579WAT     H216980   2.614   4.844   1.178
 5580WAT      O16981   5.426   6.691   6.623
 5580WAT     H116982   5.360   6.671   6.551
 5580WAT     H216983   5.390   6.763   6.682
 5581WAT      O16984   4.604   3.169   3.263
 5581WAT     H116985   4.696   3.195   3.292
 5581WAT     H216986   4.538   3.193   3.333
 5582WAT      O16987   4.568   8.947   8.945
 5582WAT     H116988   4.469   8.962   8.946
 5582WAT     H216989   4.593   8.886   9.020
 5583WAT      O16990   4.334   1.553   1.079
 5583WAT     H116991   4.326   1.481   1.010
 5583WAT     H216992   4.257   1.617   1.069
 5584WAT      O16993   5.172   8.416   8.515
 5584WAT     H116994   5.125   8.341   8.470
 5584WAT     H216995   5.127   8.437   8.602
 5585WAT      O16996   5.404   2.040   4.223
 5585WAT     H116997   5.445   1.986   4.149
 5585WAT     H216998   5.309   2.061   4.200
 5586WAT      O16999   1.353   7.004   7.870
 5586WAT     H117000   1.389   6.915   7.898
 5586WAT     H217001   1.256   6.996   7.848
 5587WAT      O17002   0.030   2.594   0.683
 5587WAT     H117003   0.033   2.541   0.598
 5587WAT     H217004   0.101   2.561   0.745
 5588WAT      O17005   7.785   6.881   2.217
 5588WAT     H117006   7.861   6.855   2.157
 5588WAT     H217007   7.742   6.964   2.181
 5589WAT      O17008   9.694   4.803   7.997
 5589WAT     H117009   9.711   4.705   7.988
 5589WAT     H217010   9.598   4.817   8.021
 5590WAT      O17011   1.341   7.416   6.473
 5590WAT     H117012   1.437   7.389   6.475
 5590WAT     H217013   1.285   7.339   6.503
 5591WAT      O17014   0.523   0.034   9.541
 5591WAT     H117015   0.505   0.113   9.482
 5591WAT     H217016   0.516  -0.050   9.487
 5592WAT      O17017   1.569   3.752   1.521
 5592WAT     H117018   1.509   3.832   1.516
 5592WAT     H217019   1.656   3.774   1.476
 5593WAT      O17020   5.643   6.107   7.303
 5593WAT     H117021   5.609   6.141   7.391
 5593WAT     H217022   5.567   6.067   7.252
 5594WAT      O17023   1.432   3.859   0.288
 5594WAT     H117024   1.444   3.791   0.361
 5594WAT     H217025   1.355   3.918   0.310
 5595WAT      O17026   7.931   1.014   0.339
 5595WAT     H117027   8.027   1.007   0.365
 5595WAT     H217028   7.910   1.107   0.312
 5596WAT      O17029   7.703   7.053   6.496
 5596WAT     H117030   7.707   7.125   6.427
 5596WAT     H217031   7.698   7.094   6.587
 5597WAT      O17032   6.183   1.816   9.838
 5597WAT     H117033   6.228   1.731   9.810
 5597WAT     H217034   6.230   1.894   9.797
 5598WAT      O17035   1.559   6.039   1.434
 5598WAT     H117036   1.608   6.098   1.498
 5598WAT     H217037   1.460   6.052   1.446
 5599WAT      O17038   4.926   2.949   2.159
 5599WAT     H117039   4.904   2.999   2.075
 5599WAT     H217040   4.922   3.011   2.237
 5600WAT      O17041   0.597   8.500   0.924
 5600WAT     H117042   0.620   8.471   0.831
 5600WAT     H217043   0.669   8.469   0.986
 5601WAT      O17044   8.567   7.417   2.935
 5601WAT     H117045   8.585   7.515   2.921
 5601WAT     H217046   8.532   7.378   2.850
 5602WAT      O17047   8.993   6.750   3.047
 5602WAT     H117048   9.003   6.676   2.980
 5602WAT     H217049   8.912   6.734   3.103
 5603WAT      O17050   7.133   8.017   1.523
 5603WAT     H117051   7.196   8.031   1.599
 5603WAT     H217052   7.184   8.015   1.437
 5604WAT      O17053   6.389   7.038   6.396
 5604WAT     H117054   6.410   6.999   6.306
 5604WAT     H217055   6.289   7.042   6.408
 5605WAT      O17056   9.332   2.347   8.214
 5605WAT     H117057   9.328   2.260   8.165
 5605WAT     H217058   9.374   2.417   8.156
 5606WAT      O17059   0.423   1.489   4.937
 5606WAT     H117060   0.342   1.448   4.896
 5606WAT     H217061   0.416   1.589   4.931
 5607WAT      O17062   7.456   1.358   5.836
 5607WAT     H117063   7.545   1.327   5.805
 5607WAT     H217064   7.446   1.456   5.817
 5608WAT      O17065   3.298   8.403   9.522
 5608WAT     H117066   3.258   8.355   9.600
 5608WAT     H217067   3.366   8.343   9.477
 5609WAT      O17068   7.655   0.018   2.823
 5609WAT     H117069   7.655   0.110   2.861
 5609WAT     H217070   7.564  -0.023   2.832
 5610WAT      O17071   4.400   8.416   0.633
 5610WAT     H117072   4.436   8.446   0.721
 5610WAT     H217073   4.334   8.342   0.648
 5611WAT      O17074   4.345   6.761   4.487
 5611WAT     H117075   4.304   6.757   4.396
 5611WAT     H217076   4.426   6.703   4.489
 5612WAT      O17077   8.702   4.464   5.303
 5612WAT     H117078   8.728   4.450   5.207
 5612WAT     H217079   8.615   4.513   5.307
 5613WAT      O17080   6.477   7.982   9.505
 5613WAT     H117081   6.390   8.030   9.504
 5613WAT     H217082   6.539   8.021   9.437
 5614WAT      O17083   6.669   2.519   7.007
 5614WAT     H117084   6.637   2.598   6.954
 5614WAT     H217085   6.746   2.547   7.065
 5615WAT      O17086   6.220   8.736   0.836
 5615WAT     H117087   6.124   8.755   0.856
 5615WAT     H217088   6.243   8.644   0.868
 5616WAT      O17089   5.151   4.828   3.169
 5616WAT     H117090   5.245   4.794   3.180
 5616WAT     H217091   5.122   4.814   3.074
 5617WAT      O17092   6.777   3.299   2.799
 5617WAT     H117093   6.764   3.383   2.746
 5617WAT     H217094   6.851   3.245   2.758
 5618WAT      O17095   3.141   7.500   7.362
 5618WAT     H117096   3.232   7.536   7.346
 5618WAT     H217097   3.077   7.575   7.380
 5619WAT      O17098   2.931   5.306   6.430
 5619WAT     H117099   3.017   5.256   6.417
 5619WAT     H217100   2.867   5.281   6.358
 5620WAT      O17101   2.960   3.643   7.879
 5620WAT     H117102   2.986   3.736   7.855
 5620WAT     H217103   2.990   3.581   7.807
 5621WAT      O17104   2.834   0.119   2.758
 5621WAT     H117105   2.768   0.045   2.745
 5621WAT     H217106   2.802   0.200   2.710
 5622WAT      O17107   6.446   6.662   1.824
 5622WAT     H117108   6.544   6.682   1.827
 5622WAT     H217109   6.396   6.729   1.879
 5623WAT      O17110   2.166   7.019   2.331
 5623WAT     H117111   2.155   7.071   2.247
 5623WAT     H217112   2.205   7.078   2.402
 5624WAT      O17113   2.015   3.019   9.702
 5624WAT     H117114   2.024   3.110   9.661
 5624WAT     H217115   1.947   2.966   9.651
 5625WAT      O17116   7.494   4.661   3.353
 5625WAT     H117117   7.553   4.731   3.394
 5625WAT     H217118   7.530   4.634   3.264
 5626WAT      O17119   2.523   7.317   1.071
 5626WAT     H117120   2.457   7.244   1.050
 5626WAT     H217121   2.476   7.391   1.120
 5627WAT      O17122   9.273   0.722   9.014
 5627WAT     H117123   9.316   0.768   8.936
 5627WAT     H217124   9.190   0.675   8.983
 5628WAT      O17125   5.834   7.553   3.870
 5628WAT     H117126   5.847   7.459   3.901
 5628WAT     H217127   5.822   7.554   3.771
 5629WAT      O17128   5.903   4.363   1.759
 5629WAT     H117129   5.935   4.353   1.854
 5629WAT     H217130   5.955   4.436   1.715
 5630WAT      O17131   6.345   3.001   8.320
 5630WAT     H117132   6.363   2.979   8.415
 5630WAT     H217133   6.250   3.031   8.310
 5631WAT      O17134   5.755   0.631   7.455
 5631WAT     H117135   5.729   0.562   7.523
 5631WAT     H217136   5.754   0.590   7.364
 5632WAT      O17137   2.886   3.404   3.446
 5632WAT     H117138   2.881   3.306   3.429
 5632WAT     H217139   2.981   3.435   3.437
 5633WAT      O17140   5.147   0.366   6.748
 5633WAT     H117141   5.200   0.282   6.757
 5633WAT     H217142   5.209   0.444   6.737
 5634WAT      O17143   3.722   9.799   7.008
 5634WAT     H117144   3.787   9.842   6.945
 5634WAT     H217145   3.760   9.801   7.101
 5635WAT      O17146   7.864   2.822   8.918
 5635WAT     H117147   7.951   2.826   8.966
 5635WAT     H217148   7.834   2.915   8.895
 5636WAT      O17149   3.345   0.290   4.083
 5636WAT     H117150   3.277   0.226   4.119
 5636WAT     H217151   3.299   0.374   4.053
 5637WAT      O17152   1.498   7.408   7.376
 5637WAT     H117153   1.498   7.345   7.298
 5637WAT     H217154   1.421   7.388   7.436
 5638WAT      O17155   2.621   7.285   9.434
 5638WAT     H117156   2.548   7.310   9.498
 5638WAT     H217157   2.651   7.367   9.384
 5639WAT      O17158   6.503   3.862   6.645
 5639WAT     H117159   6.495   3.932   6.574
 5639WAT     H217160   6.516   3.772   6.602
 5640WAT      O17161   1.662   1.159   0.500
 5640WAT     H117162   1.665   1.197   0.593
 5640WAT     H217163   1.720   1.078   0.495
 5641WAT      O17164   1.051   2.245   3.056
 5641WAT     H117165   1.126   2.280   3.112
 5641WAT     H217166   1.009   2.320   3.006
 5642WAT      O17167   5.504   5.019   9.663
 5642WAT     H117168   5.565   4.970   9.724
 5642WAT     H217169   5.411   5.019   9.701
 5643WAT      O17170   3.095   2.887   4.101
 5643WAT     H117171   3.171   2.898   4.037
 5643WAT     H217172   3.076   2.790   4.115
 5644WAT      O17173   7.928   1.186   8.125
 5644WAT     H117174   7.867   1.107   8.126
 5644WAT     H217175   7.875   1.270   8.117
 5645WAT      O17176   5.653   4.609   2.165
 5645WAT     H117177   5.679   4.640   2.074
 5645WAT     H217178   5.721   4.638   2.231
 5646WAT      O17179   1.234   4.934   3.672
 5646WAT     H117180   1.325   4.969   3.693
 5646WAT     H217181   1.243   4.851   3.616
 5647WAT      O17182   2.517   6.643   1.121
 5647WAT     H117183   2.503   6.545   1.137
 5647WAT     H217184   2.432   6.684   1.087
 5648WAT      O17185   0.119   3.105   6.555
 5648WAT     H117186   0.183   3.182   6.556
 5648WAT     H217187   0.037   3.129   6.606
 5649WAT      O17188   4.224   4.028   7.884
 5649WAT     H117189   4.233   4.110   7.827
 5649WAT     H217190   4.306   4.017   7.940
 5650WAT      O17191   2.353   7.858   5.421
 5650WAT     H117192   2.303   7.808   5.351
 5650WAT     H217193   2.311   7.843   5.510
 5651WAT      O17194   7.800   2.318   0.773
 5651WAT     H117195   7.754   2.229   0.767
 5651WAT     H217196   7.828   2.347   0.681
 5652WAT      O17197   3.624   0.975   2.036
 5652WAT     H117198   3.539   1.024   2.055
 5652WAT     H217199   3.688   1.036   1.988
 5653WAT      O17200   6.923   1.055   7.571
 5653WAT     H117201   6.823   1.050   7.566
 5653WAT     H217202   6.949   1.131   7.631
 5654WAT      O17203   7.112   6.767   7.379
 5654WAT     H117204   7.119   6.668   7.387
 5654WAT     H217205   7.016   6.794   7.388
 5655WAT      O17206   7.694   7.327   1.407
 5655WAT     H117207   7.595   7.337   1.397
 5655WAT     H217208   7.724   7.366   1.494
 5656WAT      O17209   9.680   5.726   6.026
 5656WAT     H117210   9.646   5.643   5.983
 5656WAT     H217211   9.767   5.752   5.984
 5657WAT      O17212   7.875   3.497   4.306
 5657WAT     H117213   7.944   3.475   4.375
 5657WAT     H217214   7.811   3.420   4.298
 5658WAT      O17215   1.136   2.090   3.413
 5658WAT     H117216   1.146   2.070   3.315
 5658WAT     H217217   1.102   2.008   3.460
 5659WAT      O17218   6.841   3.943   8.024
 5659WAT     H117219   6.898   3.870   8.060
 5659WAT     H217220   6.821   3.926   7.928
 5660WAT      O17221   1.381   0.732   7.955
 5660WAT     H117222   1.381   0.762   8.050
 5660WAT     H217223   1.407   0.808   7.895
 5661WAT      O17224   8.803   7.076   1.888
 5661WAT     H117225   8.782   7.169   1.859
 5661WAT     H217226   8.722   7.034   1.928
 5662WAT      O17227   9.465   0.926   6.435
 5662WAT     H117228   9.435   0.870   6.358
 5662WAT     H217229   9.475   0.869   6.516
 5663WAT      O17230   0.621   5.081   6.944
 5663WAT     H117231   0.638   5.094   6.846
 5663WAT     H217232   0.591   4.987   6.961
 5664WAT      O17233   3.656   2.671   5.365
 5664WAT     H117234   3.741   2.620   5.349
 5664WAT     H217235   3.626   2.656   5.460
 5665WAT      O17236   1.638   0.510   2.442
 5665WAT     H117237   1.721   0.543   2.396
 5665WAT     H217238   1.563   0.505   2.376
 5666WAT      O17239   4.639   1.928   6.573
 5666WAT     H117240   4.601   1.985   6.500
 5666WAT     H217241   4.728   1.964   6.600
 5667WAT      O17242   5.125   3.248   7.292
 5667WAT     H117243   5.126   3.207   7.383
 5667WAT     H217244   5.166   3.184   7.226
 5668WAT      O17245   2.493   8.547   1.298
 5668WAT     H117246   2.580   8.502   1.316
 5668WAT     H217247   2.418   8.481   1.309
 5669WAT      O17248   7.833   5.504   4.503
 5669WAT     H117249   7.794   5.465   4.419
 5669WAT     H217250   7.770   5.571   4.541
 5670WAT      O17251   1.981   4.685   8.873
 5670WAT     H117252   1.892   4.725   8.854
 5670WAT     H217253   2.050   4.757   8.877
 5671WAT      O17254   2.812   0.628   7.160
 5671WAT     H117255   2.798   0.726   7.175
 5671WAT     H217256   2.729   0.587   7.123
 5672WAT      O17257   7.630   1.554   1.666
 5672WAT     H117258   7.534   1.561   1.640
 5672WAT     H217259   7.639   1.575   1.764
 5673WAT      O17260   4.419   4.573   3.797
 5673WAT     H117261   4.476   4.570   3.879
 5673WAT     H217262   4.378   4.483   3.782
 5674WAT      O17263   6.962   8.152   8.528
 5674WAT     H117264   6.995   8.154   8.434
 5674WAT     H217265   6.925   8.062   8.549
 5675WAT      O17266   6.663   4.546   1.204
 5675WAT     H117267   6.621   4.626   1.162
 5675WAT     H217268   6.720   4.499   1.136
 5676WAT      O17269   1.448   7.728   3.224
 5676WAT     H117270   1.420   7.660   3.157
 5676WAT     H217271   1.381   7.730   3.299
 5677WAT      O17272   2.217   0.205   5.893
 5677WAT     H117273   2.137   0.262   5.872
 5677WAT     H217274   2.246   0.156   5.811
 5678WAT      O17275   3.025   3.862   9.136
 5678WAT     H117276   3.121   3.850   9.162
 5678WAT     H217277   2.982   3.928   9.196
 5679WAT      O17278   2.627   0.788   7.811
 5679WAT     H117279   2.620   0.763   7.714
 5679WAT     H217280   2.642   0.887   7.819
 5680WAT      O17281   9.404   8.521   0.713
 5680WAT     H117282   9.363   8.434   0.683
 5680WAT     H217283   9.340   8.570   0.771
 5681WAT      O17284   6.810   3.557   9.818
 5681WAT     H117285   6.756   3.556   9.902
 5681WAT     H217286   6.885   3.491   9.825
 5682WAT      O17287   2.963   0.128   1.860
 5682WAT     H117288   3.006   0.076   1.786
 5682WAT     H217289   2.870   0.094   1.874
 5683WAT      O17290   1.275   9.607   0.437
 5683WAT     H117291   1.336   9.662   0.381
 5683WAT     H217292   1.250   9.524   0.387
 5684WAT      O17293   9.798   0.940   8.739
 5684WAT     H117294   9.834   1.002   8.669
 5684WAT     H217295   9.840   0.850   8.728
 5685WAT      O17296   8.260   2.954   2.612
 5685WAT     H117297   8.333   3.022   2.615
 5685WAT     H217298   8.175   2.997   2.582
 5686WAT      O17299   3.677   9.123   3.332
 5686WAT     H117300   3.612   9.159   3.266
 5686WAT     H217301   3.659   9.162   3.422
 5687WAT      O17302   6.514   0.558   2.108
 5687WAT     H117303   6.585   0.532   2.174
 5687WAT     H217304   6.516   0.657   2.094
 5688WAT      O17305  -0.003   1.359   0.212
 5688WAT     H117306   0.066   1.391   0.147
 5688WAT     H217307   0.032   1.370   0.305
 5689WAT      O17308   3.544   2.642   6.480
 5689WAT     H117309   3.475   2.688   6.424
 5689WAT     H217310   3.624   2.622   6.423
 5690WAT      O17311   3.981   1.492   5.048
 5690WAT     H117312   3.920   1.515   4.972
 5690WAT     H217313   4.005   1.395   5.044
 5691WAT      O17314   4.220   3.901   2.678
 5691WAT     H117315   4.241   3.998   2.694
 5691WAT     H217316   4.303   3.847   2.693
 5692WAT      O17317   3.063   8.764   3.306
 5692WAT     H117318   2.988   8.730   3.362
 5692WAT     H217319   3.089   8.856   3.337
 5693WAT      O17320   0.666   1.004   3.204
 5693WAT     H117321   0.613   1.041   3.127
 5693WAT     H217322   0.652   1.062   3.284
 5694WAT      O17323   3.973   2.607   3.120
 5694WAT     H117324   3.956   2.607   3.022
 5694WAT     H217325   3.893   2.645   3.168
 5695WAT      O17326   2.234   4.389   6.508
 5695WAT     H117327   2.236   4.410   6.410
 5695WAT     H217328   2.142   4.357   6.533
 5696WAT      O17329   8.685   7.574   1.269
 5696WAT     H117330   8.731   7.511   1.332
 5696WAT     H217331   8.645   7.523   1.193
 5697WAT      O17332   2.058   8.280   0.510
 5697WAT     H117333   2.085   8.346   0.580
 5697WAT     H217334   2.014   8.328   0.434
 5698WAT      O17335   6.870   8.705   8.797
 5698WAT     H117336   6.834   8.612   8.807
 5698WAT     H217337   6.802   8.763   8.752
 5699WAT      O17338   6.783   5.723   6.207
 5699WAT     H117339   6.806   5.717   6.304
 5699WAT     H217340   6.773   5.819   6.180
 5700WAT      O17341   6.412   6.041   6.115
 5700WAT     H117342   6.467   6.104   6.169
 5700WAT     H217343   6.320   6.033   6.155
 5701WAT      O17344   6.810   4.585   1.870
 5701WAT     H117345   6.816   4.497   1.916
 5701WAT     H217346   6.725   4.589   1.816
 5702WAT      O17347   2.346   6.884   7.486
 5702WAT     H117348   2.253   6.900   7.455
 5702WAT     H217349   2.379   6.964   7.536
 5703WAT      O17350   6.302   1.968   2.792
 5703WAT     H117351   6.327   1.877   2.760
 5703WAT     H217352   6.384   2.019   2.816
 5704WAT      O17353   9.547   5.485   5.980
 5704WAT     H117354   9.492   5.567   5.995
 5704WAT     H217355   9.516   5.413   6.043
 5705WAT      O17356   4.441   9.206   8.774
 5705WAT     H117357   4.482   9.222   8.864
 5705WAT     H217358   4.362   9.267   8.762
 5706WAT      O17359   5.944   5.607   2.051
 5706WAT     H117360   5.916   5.678   2.116
 5706WAT     H217361   5.872   5.594   1.983
 5707WAT      O17362   2.597   5.444   8.654
 5707WAT     H117363   2.543   5.406   8.579
 5707WAT     H217364   2.609   5.542   8.640
 5708WAT      O17365   1.619   6.427   4.292
 5708WAT     H117366   1.612   6.471   4.203
 5708WAT     H217367   1.694   6.467   4.344
 5709WAT      O17368   8.197   9.260   6.324
 5709WAT     H117369   8.112   9.222   6.288
 5709WAT     H217370   8.200   9.358   6.304
 5710WAT      O17371   3.886   8.155   0.495
 5710WAT     H117372   3.929   8.065   0.506
 5710WAT     H217373   3.956   8.226   0.509
 5711WAT      O17374   7.792   7.066   9.292
 5711WAT     H117375   7.859   7.044   9.221
 5711WAT     H217376   7.704   7.026   9.268
 5712WAT      O17377   8.929   3.625   7.634
 5712WAT     H117378   8.842   3.663   7.602
 5712WAT     H217379   9.004   3.685   7.606
 5713WAT      O17380   5.391   4.060   6.369
 5713WAT     H117381   5.318   4.127   6.352
 5713WAT     H217382   5.479   4.103   6.351
 5714WAT      O17383   4.559   1.098   8.339
 5714WAT     H117384   4.497   1.109   8.261
 5714WAT     H217385   4.562   1.002   8.366
 5715WAT      O17386   9.689   2.656   9.022
 5715WAT     H117387   9.629   2.591   9.069
 5715WAT     H217388   9.634   2.725   8.976
 5716WAT      O17389   8.523   8.651   7.629
 5716WAT     H117390   8.575   8.736   7.637
 5716WAT     H217391   8.585   8.573   7.641
 5717WAT      O17392   6.690   8.161   9.660
 5717WAT     H117393   6.606   8.112   9.639
 5717WAT     H217394   6.766   8.117   9.611
 5718WAT      O17395   3.673   7.179   2.834
 5718WAT     H117396   3.639   7.271   2.852
 5718WAT     H217397   3.706   7.173   2.740
 5719WAT      O17398   8.588   5.580   7.957
 5719WAT     H117399   8.669   5.526   7.980
 5719WAT     H217400   8.602   5.625   7.869
 5720WAT      O17401   2.863   0.611   5.659
 5720WAT     H117402   2.786   0.662   5.620
 5720WAT     H217403   2.856   0.612   5.759
 5721WAT      O17404   5.113   8.063   2.293
 5721WAT     H117405   5.103   8.133   2.364
 5721WAT     H217406   5.126   8.108   2.204
 5722WAT      O17407   0.847   9.459   0.198
 5722WAT     H117408   0.889   9.482   0.111
 5722WAT     H217409   0.806   9.540   0.238
 5723WAT      O17410   2.709   1.760   5.551
 5723WAT     H117411   2.674   1.813   5.628
 5723WAT     H217412   2.801   1.791   5.528
 5724WAT      O17413   9.049   0.205   9.419
 5724WAT     H117414   8.974   0.159   9.466
 5724WAT     H217415   9.122   0.226   9.484
 5725WAT      O17416   1.068   7.967   2.105
 5725WAT     H117417   1.028   7.909   2.034
 5725WAT     H217418   1.154   7.927   2.136
 5726WAT      O17419   6.331   3.818   7.133
 5726WAT     H117420   6.236   3.846   7.116
 5726WAT     H217421   6.393   3.892   7.107
 5727WAT      O17422   6.190   7.669   1.300
 5727WAT     H117423   6.257   7.739   1.323
 5727WAT     H217424   6.101   7.712   1.283
 5728WAT      O17425   2.175   7.458   4.756
 5728WAT     H117426   2.182   7.428   4.661
 5728WAT     H217427   2.116   7.395   4.806
 5729WAT      O17428   0.312   9.198   7.340
 5729WAT     H117429   0.390   9.221   7.399
 5729WAT     H217430   0.279   9.282   7.296
 5730WAT      O17431   7.958   3.298   8.538
 5730WAT     H117432   7.969   3.387   8.493
 5730WAT     H217433   7.884   3.303   8.604
 5731WAT      O17434   0.949   4.023   9.227
 5731WAT     H117435   0.913   4.108   9.267
 5731WAT     H217436   0.904   4.005   9.140
 5732WAT      O17437   2.905   9.639   6.265
 5732WAT     H117438   2.930   9.734   6.246
 5732WAT     H217439   2.822   9.638   6.321
 5733WAT      O17440   0.881   9.178   6.238
 5733WAT     H117441   0.895   9.181   6.139
 5733WAT     H217442   0.822   9.253   6.266
 5734WAT      O17443   8.982   2.340   5.775
 5734WAT     H117444   8.987   2.311   5.679
 5734WAT     H217445   8.973   2.260   5.834
 5735WAT      O17446   6.843   9.339   3.189
 5735WAT     H117447   6.924   9.282   3.199
 5735WAT     H217448   6.867   9.435   3.204
 5736WAT      O17449   3.595   7.461   7.581
 5736WAT     H117450   3.636   7.419   7.661
 5736WAT     H217451   3.509   7.505   7.606
 5737WAT      O17452   0.350   1.279   2.116
 5737WAT     H117453   0.398   1.265   2.030
 5737WAT     H217454   0.412   1.261   2.192
 5738WAT      O17455   5.457   1.312   1.676
 5738WAT     H117456   5.490   1.255   1.751
 5738WAT     H217457   5.404   1.255   1.613
 5739WAT      O17458   3.025   4.304   4.317
 5739WAT     H117459   3.097   4.338   4.378
 5739WAT     H217460   3.065   4.244   4.248
 5740WAT      O17461   1.205   5.029   5.497
 5740WAT     H117462   1.257   5.068   5.573
 5740WAT     H217463   1.107   5.036   5.517
 5741WAT      O17464   9.392   5.885   0.850
 5741WAT     H117465   9.316   5.879   0.786
 5741WAT     H217466   9.421   5.980   0.859
 5742WAT      O17467   7.336   1.381   2.260
 5742WAT     H117468   7.310   1.395   2.355
 5742WAT     H217469   7.262   1.335   2.211
 5743WAT      O17470   8.663   9.183   3.998
 5743WAT     H117471   8.606   9.161   3.919
 5743WAT     H217472   8.748   9.226   3.968
 5744WAT      O17473   2.037   9.001   2.453
 5744WAT     H117474   2.116   9.050   2.417
 5744WAT     H217475   2.061   8.906   2.471
 5745WAT      O17476   1.229   6.305   6.892
 5745WAT     H117477   1.207   6.272   6.800
 5745WAT     H217478   1.325   6.287   6.911
 5746WAT      O17479   9.812   4.934   7.761
 5746WAT     H117480   9.822   5.012   7.699
 5746WAT     H217481   9.760   4.963   7.842
 5747WAT      O17482   2.292   5.301   0.301
 5747WAT     H117483   2.365   5.326   0.365
 5747WAT     H217484   2.224   5.245   0.348
 5748WAT      O17485   4.336   6.564   5.620
 5748WAT     H117486   4.361   6.614   5.537
 5748WAT     H217487   4.373   6.612   5.700
 5749WAT      O17488   5.498   2.811   1.434
 5749WAT     H117489   5.516   2.748   1.510
 5749WAT     H217490   5.425   2.874   1.459
 5750WAT      O17491   8.516   8.449   0.085
 5750WAT     H117492   8.530   8.432   0.182
 5750WAT     H217493   8.603   8.476   0.043
 5751WAT      O17494   4.327   7.563   2.065
 5751WAT     H117495   4.285   7.640   2.018
 5751WAT     H217496   4.277   7.479   2.043
 5752WAT      O17497   8.310   4.491   8.122
 5752WAT     H117498   8.364   4.425   8.070
 5752WAT     H217499   8.231   4.520   8.069
 5753WAT      O17500   9.685   5.990   7.743
 5753WAT     H117501   9.594   5.949   7.749
 5753WAT     H217502   9.702   6.046   7.824
 5754WAT      O17503   8.678   6.924   5.924
 5754WAT     H117504   8.613   6.965   5.988
 5754WAT     H217505   8.667   6.825   5.924
 5755WAT      O17506   2.165   2.280   1.741
 5755WAT     H117507   2.237   2.312   1.680
 5755WAT     H217508   2.193   2.195   1.785
 5756WAT      O17509   7.655   2.590   5.197
 5756WAT     H117510   7.668   2.611   5.100
 5756WAT     H217511   7.685   2.496   5.215
 5757WAT      O17512   9.090   0.452   8.399
 5757WAT     H117513   9.171   0.482   8.449
 5757WAT     H217514   9.108   0.361   8.359
 5758WAT      O17515   6.642   2.108   2.307
 5758WAT     H117516   6.605   2.181   2.364
 5758WAT     H217517   6.587   2.099   2.224
 5759WAT      O17518   9.504   0.847   8.125
 5759WAT     H117519   9.582   0.792   8.155
 5759WAT     H217520   9.420   0.792   8.131
 5760WAT      O17521   4.514   2.455   5.162
 5760WAT     H117522   4.488   2.360   5.174
 5760WAT     H217523   4.476   2.510   5.236
 5761WAT      O17524   9.596   6.992   8.605
 5761WAT     H117525   9.513   6.967   8.655
 5761WAT     H217526   9.674   6.944   8.643
 5762WAT      O17527   9.294   0.138   9.651
 5762WAT     H117528   9.310   0.217   9.710
 5762WAT     H217529   9.235   0.072   9.698
 5763WAT      O17530   0.594   3.230   5.933
 5763WAT     H117531   0.598   3.253   6.030
 5763WAT     H217532   0.525   3.158   5.919
 5764WAT      O17533   5.594   7.157   5.082
 5764WAT     H117534   5.617   7.224   5.011
 5764WAT     H217535   5.507   7.113   5.060
 5765WAT      O17536   6.871   8.312   2.849
 5765WAT     H117537   6.849   8.406   2.825
 5765WAT     H217538   6.920   8.269   2.773
 5766WAT      O17539   8.356   1.581   2.668
 5766WAT     H117540   8.258   1.564   2.663
 5766WAT     H217541   8.376   1.673   2.634
 5767WAT      O17542   8.043   2.711   1.643
 5767WAT     H117543   8.100   2.768   1.703
 5767WAT     H217544   7.996   2.642   1.698
 5768WAT      O17545   6.160   9.128   7.079
 5768WAT     H117546   6.198   9.048   7.032
 5768WAT     H217547   6.207   9.210   7.049
 5769WAT      O17548   0.276   1.751   8.829
 5769WAT     H117549   0.354   1.713   8.779
 5769WAT     H217550   0.243   1.684   8.896
 5770WAT      O17551   2.349   8.187   2.366
 5770WAT     H117552   2.294   8.124   2.312
 5770WAT     H217553   2.291   8.230   2.436
 5771WAT      O17554   8.623   8.942   5.783
 5771WAT     H117555   8.599   8.936   5.880
 5771WAT     H217556   8.543   8.970   5.731
 5772WAT      O17557   2.776   6.885   3.058
 5772WAT     H117558   2.700   6.901   2.994
 5772WAT     H217559   2.775   6.790   3.087
 5773WAT      O17560   8.062   3.774   0.639
 5773WAT     H117561   8.012   3.855   0.670
 5773WAT     H217562   8.103   3.728   0.718
 5774WAT      O17563   0.745   7.630   8.843
 5774WAT     H117564   0.778   7.596   8.931
 5774WAT     H217565   0.719   7.553   8.785
 5775WAT      O17566   8.680   2.262   5.488
 5775WAT     H117567   8.757   2.282   5.549
 5775WAT     H217568   8.700   2.297   5.396
 5776WAT      O17569   2.048   4.178   0.463
 5776WAT     H117570   2.092   4.213   0.546
 5776WAT     H217571   1.949   4.194   0.468
 5777WAT      O17572   3.323   1.970   0.423
 5777WAT     H117573   3.261   2.041   0.455
 5777WAT     H217574   3.383   1.941   0.497
 5778WAT      O17575   8.916   5.371   1.285
 5778WAT     H117576   8.885   5.418   1.367
 5778WAT     H217577   8.901   5.428   1.205
 5779WAT      O17578   4.671   9.826   9.779
 5779WAT     H117579   4.730   9.796   9.703
 5779WAT     H217580   4.581   9.784   9.770
 5780WAT      O17581   5.266   7.344   0.123
 5780WAT     H117582   5.199   7.348   0.197
 5780WAT     H217583   5.307   7.435   0.110
 5781WAT      O17584   3.263   8.664   5.183
 5781WAT     H117585   3.209   8.603   5.125
 5781WAT     H217586   3.317   8.725   5.126
 5782WAT      O17587   7.729   5.576   2.004
 5782WAT     H117588   7.654   5.642   1.996
 5782WAT     H217589   7.752   5.564   2.101
 5783WAT      O17590   5.297   3.870   7.689
 5783WAT     H117591   5.337   3.873   7.598
 5783WAT     H217592   5.302   3.776   7.725
 5784WAT      O17593   5.547   7.425   0.247
 5784WAT     H117594   5.606   7.483   0.302
 5784WAT     H217595   5.544   7.333   0.286
 5785WAT      O17596   1.335   7.084   8.204
 5785WAT     H117597   1.323   6.985   8.197
 5785WAT     H217598   1.348   7.109   8.299
 5786WAT      O17599   5.859   8.768   2.916
 5786WAT     H117600   5.901   8.857   2.903
 5786WAT     H217601   5.798   8.771   2.995
 5787WAT      O17602   4.163   5.763   0.346
 5787WAT     H117603   4.177   5.703   0.424
 5787WAT     H217604   4.079   5.815   0.359
 5788WAT      O17605   8.915   5.788   4.069
 5788WAT     H117606   8.947   5.865   4.124
 5788WAT     H217607   8.850   5.819   4.001
 5789WAT      O17608   9.807   8.068   4.629
 5789WAT     H117609   9.757   8.126   4.565
 5789WAT     H217610   9.810   8.111   4.719
 5790WAT      O17611   2.592   6.723   7.407
 5790WAT     H117612   2.559   6.817   7.407
 5790WAT     H217613   2.528   6.665   7.457
 5791WAT      O17614   1.793   7.348   6.898
 5791WAT     H117615   1.785   7.317   6.993
 5791WAT     H217616   1.764   7.274   6.838
 5792WAT      O17617   5.884   8.459   6.629
 5792WAT     H117618   5.787   8.437   6.620
 5792WAT     H217619   5.896   8.535   6.693
 5793WAT      O17620   3.641   4.487   7.426
 5793WAT     H117621   3.559   4.503   7.371
 5793WAT     H217622   3.623   4.513   7.521
 5794WAT      O17623   2.817   6.477   5.809
 5794WAT     H117624   2.813   6.542   5.732
 5794WAT     H217625   2.724   6.458   5.841
 5795WAT      O17626   0.166   5.558   9.800
 5795WAT     H117627   0.178   5.466   9.763
 5795WAT     H217628   0.224   5.622   9.750
 5796WAT      O17629   7.484   4.604   8.421
 5796WAT     H117630   7.392   4.642   8.420
 5796WAT     H217631   7.497   4.546   8.341
 5797WAT      O17632   4.939   8.590   7.143
 5797WAT     H117633   4.900   8.614   7.231
 5797WAT     H217634   4.943   8.671   7.085
 5798WAT      O17635   2.771   6.464   7.135
 5798WAT     H117636   2.840   6.409   7.088
 5798WAT     H217637   2.817   6.530   7.194
 5799WAT      O17638   0.082   2.166   5.673
 5799WAT     H117639   0.161   2.118   5.633
 5799WAT     H217640   0.054   2.240   5.612
 5800WAT      O17641   5.383   1.780   5.716
 5800WAT     H117642   5.447   1.854   5.738
 5800WAT     H217643   5.292   1.820   5.698
 5801WAT      O17644   3.084   5.773   6.673
 5801WAT     H117645   3.021   5.705   6.638
 5801WAT     H217646   3.034   5.856   6.699
 5802WAT      O17647   3.964   1.151   2.502
 5802WAT     H117648   3.970   1.061   2.460
 5802WAT     H217649   3.948   1.140   2.601
 5803WAT      O17650   7.104   5.691   4.315
 5803WAT     H117651   7.100   5.744   4.230
 5803WAT     H217652   7.135   5.750   4.390
 5804WAT      O17653   5.624   6.675   4.070
 5804WAT     H117654   5.719   6.644   4.069
 5804WAT     H217655   5.613   6.751   4.006
 5805WAT      O17656   5.480   0.422   1.817
 5805WAT     H117657   5.561   0.395   1.869
 5805WAT     H217658   5.505   0.432   1.721
 5806WAT      O17659   6.975   4.708   5.951
 5806WAT     H117660   6.876   4.708   5.964
 5806WAT     H217661   7.020   4.732   6.037
 5807WAT      O17662   7.727   4.819   5.592
 5807WAT     H117663   7.820   4.850   5.612
 5807WAT     H217664   7.679   4.890   5.540
 5808WAT      O17665   8.264   2.607   0.861
 5808WAT     H117666   8.312   2.528   0.824
 5808WAT     H217667   8.166   2.587   0.867
 5809WAT      O17668   3.831   0.190   9.644
 5809WAT     H117669   3.749   0.136   9.629
 5809WAT     H217670   3.828   0.230   9.736
 5810WAT      O17671   8.939   1.343   2.135
 5810WAT     H117672   8.861   1.396   2.103
 5810WAT     H217673   8.926   1.247   2.112
 5811WAT      O17674   0.441   3.778   6.537
 5811WAT     H117675   0.409   3.828   6.456
 5811WAT     H217676   0.506   3.708   6.509
 5812WAT      O17677   0.231   8.231   4.889
 5812WAT     H117678   0.184   8.318   4.905
 5812WAT     H217679   0.188   8.159   4.944
 5813WAT      O17680   9.413   4.506   9.829
 5813WAT     H117681   9.418   4.603   9.855
 5813WAT     H217682   9.485   4.455   9.876
 5814WAT      O17683   7.867   2.438   9.136
 5814WAT     H117684   7.919   2.505   9.189
 5814WAT     H217685   7.867   2.351   9.184
 5815WAT      O17686   1.156   6.460   9.604
 5815WAT     H117687   1.102   6.535   9.642
 5815WAT     H217688   1.099   6.379   9.593
 5816WAT      O17689   1.570   1.859   7.829
 5816WAT     H117690   1.521   1.778   7.862
 5816WAT     H217691   1.602   1.913   7.908
 5817WAT      O17692   9.267   7.092   0.648
 5817WAT     H117693   9.321   7.012   0.674
 5817WAT     H217694   9.278   7.164   0.717
 5818WAT      O17695   3.066   1.111   0.367
 5818WAT     H117696   3.114   1.054   0.433
 5818WAT     H217697   3.087   1.080   0.274
 5819WAT      O17698   5.982   2.242   0.876
 5819WAT     H117699   5.904   2.247   0.814
 5819WAT     H217700   5.991   2.148   0.910
 5820WAT      O17701   7.158   9.716   7.236
 5820WAT     H117702   7.061   9.693   7.240
 5820WAT     H217703   7.176   9.769   7.154
 5821WAT      O17704   2.771   8.394   5.722
 5821WAT     H117705   2.709   8.392   5.801
 5821WAT     H217706   2.770   8.485   5.681
 5822WAT      O17707   6.797   8.880   6.544
 5822WAT     H117708   6.820   8.808   6.479
 5822WAT     H217709   6.756   8.957   6.495
 5823WAT      O17710   8.384   2.816   6.159
 5823WAT     H117711   8.405   2.721   6.181
 5823WAT     H217712   8.296   2.820   6.111
 5824WAT      O17713   1.319   2.439   7.151
 5824WAT     H117714   1.416   2.445   7.173
 5824WAT     H217715   1.305   2.369   7.081
 5825WAT      O17716   7.576   8.415   3.073
 5825WAT     H117717   7.585   8.514   3.066
 5825WAT     H217718   7.616   8.372   2.992
 5826WAT      O17719   8.690   9.289   9.843
 5826WAT     H117720   8.622   9.283   9.769
 5826WAT     H217721   8.646   9.265   9.930
 5827WAT      O17722   7.582   6.526   5.218
 5827WAT     H117723   7.675   6.556   5.201
 5827WAT     H217724   7.559   6.540   5.315
 5828WAT      O17725   4.405   6.008   1.731
 5828WAT     H117726   4.475   6.070   1.769
 5828WAT     H217727   4.339   6.062   1.679
 5829WAT      O17728   9.715   2.090   9.781
 5829WAT     H117729   9.798   2.083   9.725
 5829WAT     H217730   9.682   1.999   9.803
 5830WAT      O17731   9.117   9.067   4.513
 5830WAT     H117732   9.048   9.004   4.550
 5830WAT     H217733   9.072   9.138   4.459
 5831WAT      O17734   1.241   2.609   5.154
 5831WAT     H117735   1.269   2.704   5.168
 5831WAT     H217736   1.181   2.603   5.074
 5832WAT      O17737   0.407   5.870   9.370
 5832WAT     H117738   0.311   5.870   9.342
 5832WAT     H217739   0.431   5.960   9.406
 5833WAT      O17740   4.646   6.460   8.632
 5833WAT     H117741   4.644   6.457   8.532
 5833WAT     H217742   4.621   6.552   8.663
 5834WAT      O17743   0.222   1.265   4.409
 5834WAT     H117744   0.179   1.341   4.361
 5834WAT     H217745   0.193   1.179   4.368
 5835WAT      O17746   6.297   9.535   4.876
 5835WAT     H117747   6.305   9.560   4.780
 5835WAT     H217748   6.311   9.436   4.886
 5836WAT      O17749   8.718   7.890   4.361
 5836WAT     H117750   8.626   7.917   4.331
 5836WAT     H217751   8.781   7.966   4.344
 5837WAT      O17752   7.779   1.380   7.971
 5837WAT     H117753   7.680   1.371   7.955
 5837WAT     H217754   7.799   1.474   7.998
 5838WAT      O17755   2.894   4.652   0.390
 5838WAT     H117756   2.870   4.577   0.451
 5838WAT     H217757   2.874   4.626   0.295
 5839WAT      O17758   6.822   9.261   2.526
 5839WAT     H117759   6.806   9.204   2.445
 5839WAT     H217760   6.836   9.202   2.605
 5840WAT      O17761   8.510   2.418   5.150
 5840WAT     H117762   8.597   2.428   5.200
 5840WAT     H217763   8.442   2.480   5.189
 5841WAT      O17764   9.674   1.168   5.011
 5841WAT     H117765   9.649   1.112   5.090
 5841WAT     H217766   9.590   1.198   4.964
 5842WAT      O17767   7.762   0.780   6.689
 5842WAT     H117768   7.733   0.702   6.633
 5842WAT     H217769   7.683   0.817   6.737
 5843WAT      O17770   6.293   6.386   2.525
 5843WAT     H117771   6.338   6.453   2.466
 5843WAT     H217772   6.295   6.296   2.482
 5844WAT      O17773   2.343   5.077   5.235
 5844WAT     H117774   2.315   5.172   5.252
 5844WAT     H217775   2.306   5.046   5.148
 5845WAT      O17776   7.495   2.898   7.035
 5845WAT     H117777   7.421   2.843   6.997
 5845WAT     H217778   7.457   2.962   7.102
 5846WAT      O17779   0.280   4.059   9.489
 5846WAT     H117780   0.246   3.991   9.423
 5846WAT     H217781   0.302   4.014   9.575
 5847WAT      O17782   6.009   6.565   8.490
 5847WAT     H117783   6.006   6.497   8.563
 5847WAT     H217784   5.935   6.632   8.503
 5848WAT      O17785   6.668   5.268   7.806
 5848WAT     H117786   6.722   5.351   7.790
 5848WAT     H217787   6.588   5.291   7.862
 5849WAT      O17788   8.210   2.353   9.275
 5849WAT     H117789   8.180   2.267   9.319
 5849WAT     H217790   8.199   2.428   9.340
 5850WAT      O17791   8.893   6.104   1.261
 5850WAT     H117792   8.903   6.106   1.161
 5850WAT     H217793   8.983   6.115   1.304
 5851WAT      O17794   4.723   4.587   6.667
 5851WAT     H117795   4.631   4.554   6.683
 5851WAT     H217796   4.790   4.524   6.707
 5852WAT      O17797   0.850   4.464   0.056
 5852WAT     H117798   0.774   4.430   0.001
 5852WAT     H217799   0.822   4.471   0.152
 5853WAT      O17800   1.894   0.483   3.589
 5853WAT     H117801   1.875   0.438   3.501
 5853WAT     H217802   1.810   0.522   3.625
 5854WAT      O17803   0.954   1.725   8.052
 5854WAT     H117804   1.014   1.701   8.129
 5854WAT     H217805   0.999   1.795   7.996
 5855WAT      O17806   9.852   4.216   1.388
 5855WAT     H117807   9.865   4.217   1.289
 5855WAT     H217808   9.901   4.139   1.428
 5856WAT      O17809   4.140   4.528   4.144
 5856WAT     H117810   4.072   4.485   4.203
 5856WAT     H217811   4.204   4.581   4.200
 5857WAT      O17812   0.206   2.975   1.131
 5857WAT     H117813   0.279   2.907   1.122
 5857WAT     H217814   0.200   3.028   1.046
 5858WAT      O17815   6.158   3.242   4.692
 5858WAT     H117816   6.094   3.240   4.769
 5858WAT     H217817   6.125   3.306   4.623
 5859WAT      O17818   7.846   2.528   2.110
 5859WAT     H117819   7.754   2.567   2.111
 5859WAT     H217820   7.905   2.580   2.171
 5860WAT      O17821   2.992   0.339   4.466
 5860WAT     H117822   3.088   0.349   4.489
 5860WAT     H217823   2.955   0.258   4.513
 5861WAT      O17824   9.341   8.865   0.501
 5861WAT     H117825   9.427   8.821   0.525
 5861WAT     H217826   9.308   8.918   0.580
 5862WAT      O17827   7.576   2.431   3.794
 5862WAT     H117828   7.671   2.413   3.771
 5862WAT     H217829   7.519   2.354   3.765
 5863WAT      O17830   7.576   7.442   9.670
 5863WAT     H117831   7.519   7.517   9.702
 5863WAT     H217832   7.537   7.404   9.586
 5864WAT      O17833   4.902   9.632   3.514
 5864WAT     H117834   4.897   9.709   3.578
 5864WAT     H217835   4.814   9.622   3.467
 5865WAT      O17836   5.208   2.178   5.510
 5865WAT     H117837   5.235   2.111   5.441
 5865WAT     H217838   5.281   2.189   5.577
 5866WAT      O17839   0.306   7.456   3.445
 5866WAT     H117840   0.258   7.412   3.521
 5866WAT     H217841   0.390   7.405   3.425
 5867WAT      O17842   1.155   7.608   5.299
 5867WAT     H117843   1.191   7.633   5.388
 5867WAT     H217844   1.154   7.688   5.239
 5868WAT      O17845   6.345   5.814   8.541
 5868WAT     H117846   6.269   5.752   8.559
 5868WAT     H217847   6.431   5.771   8.570
 5869WAT      O17848   0.896   6.379   8.217
 5869WAT     H117849   0.933   6.446   8.282
 5869WAT     H217850   0.832   6.319   8.265
 5870WAT      O17851   0.387   7.298   6.195
 5870WAT     H117852   0.376   7.382   6.142
 5870WAT     H217853   0.323   7.299   6.272
 5871WAT      O17854   0.589   1.644   7.788
 5871WAT     H117855   0.559   1.554   7.756
 5871WAT     H217856   0.688   1.643   7.801
 5872WAT      O17857   2.690   1.331   0.398
 5872WAT     H117858   2.718   1.242   0.435
 5872WAT     H217859   2.658   1.319   0.304
 5873WAT      O17860   5.239   5.540   3.195
 5873WAT     H117861   5.251   5.557   3.097
 5873WAT     H217862   5.318   5.490   3.231
 5874WAT      O17863   8.104   5.152   1.308
 5874WAT     H117864   8.042   5.075   1.293
 5874WAT     H217865   8.101   5.213   1.228
 5875WAT      O17866   2.316   7.274   0.545
 5875WAT     H117867   2.341   7.221   0.626
 5875WAT     H217868   2.346   7.226   0.463
 5876WAT      O17869   4.612   4.588   3.611
 5876WAT     H117870   4.617   4.649   3.532
 5876WAT     H217871   4.536   4.616   3.669
 5877WAT      O17872   8.032   5.094   8.231
 5877WAT     H117873   8.095   5.029   8.274
 5877WAT     H217874   8.084   5.172   8.197
 5878WAT      O17875   0.043   0.264   7.395
 5878WAT     H117876   0.066   0.200   7.469
 5878WAT     H217877  -0.021   0.220   7.332
 5879WAT      O17878   0.294   3.602   8.639
 5879WAT     H117879   0.208   3.636   8.601
 5879WAT     H217880   0.337   3.673   8.695
 5880WAT      O17881   9.503   7.410   2.046
 5880WAT     H117882   9.493   7.329   2.105
 5880WAT     H217883   9.574   7.470   2.084
 5881WAT      O17884   1.807   6.553   8.883
 5881WAT     H117885   1.835   6.482   8.817
 5881WAT     H217886   1.714   6.583   8.861
 5882WAT      O17887   0.297   8.105   6.242
 5882WAT     H117888   0.314   8.007   6.228
 5882WAT     H217889   0.344   8.135   6.325
 5883WAT      O17890   0.743   5.400   1.751
 5883WAT     H117891   0.684   5.362   1.822
 5883WAT     H217892   0.707   5.374   1.661
 5884WAT      O17893   8.890   6.613   5.438
 5884WAT     H117894   8.866   6.523   5.403
 5884WAT     H217895   8.914   6.674   5.362
 5885WAT      O17896   5.754   6.943   5.177
 5885WAT     H117897   5.719   6.994   5.099
 5885WAT     H217898   5.728   6.989   5.262
 5886WAT      O17899   0.301   3.355   4.628
 5886WAT     H117900   0.266   3.405   4.549
 5886WAT     H217901   0.263   3.263   4.629
 5887WAT      O17902   9.767   4.333   3.032
 5887WAT     H117903   9.680   4.347   2.985
 5887WAT     H217904   9.764   4.375   3.123
 5888WAT      O17905   9.007   6.303   4.145
 5888WAT     H117906   9.031   6.267   4.235
 5888WAT     H217907   9.073   6.373   4.118
 5889WAT      O17908   5.790   7.309   8.908
 5889WAT     H117909   5.787   7.377   8.835
 5889WAT     H217910   5.744   7.344   8.989
 5890WAT      O17911   8.728   6.398   8.417
 5890WAT     H117912   8.635   6.369   8.441
 5890WAT     H217913   8.794   6.340   8.464
 5891WAT      O17914   6.423   6.816   2.809
 5891WAT     H117915   6.343   6.799   2.866
 5891WAT     H217916   6.467   6.729   2.787
 5892WAT      O17917   3.574   2.563   2.454
 5892WAT     H117918   3.660   2.613   2.448
 5892WAT     H217919   3.554   2.542   2.550
 5893WAT      O17920   8.643   3.724   5.038
 5893WAT     H117921   8.665   3.756   5.130
 5893WAT     H217922   8.544   3.728   5.025
 5894WAT      O17923   2.070   6.470   8.613
 5894WAT     H117924   1.999   6.422   8.562
 5894WAT     H217925   2.061   6.569   8.598
 5895WAT      O17926   9.042   5.693   8.057
 5895WAT     H117927   9.007   5.747   8.134
 5895WAT     H217928   9.014   5.735   7.971
 5896WAT      O17929   9.372   2.278   0.597
 5896WAT     H117930   9.306   2.248   0.529
 5896WAT     H217931   9.443   2.333   0.553
 5897WAT      O17932   8.650   2.738   2.545
 5897WAT     H117933   8.553   2.740   2.520
 5897WAT     H217934   8.684   2.831   2.555
 5898WAT      O17935   3.232   6.013   8.137
 5898WAT     H117936   3.258   5.972   8.050
 5898WAT     H217937   3.137   5.990   8.158
 5899WAT      O17938   1.948   1.433   2.868
 5899WAT     H117939   1.852   1.459   2.882
 5899WAT     H217940   1.955   1.333   2.868
 5900WAT      O17941   2.671   4.423   7.050
 5900WAT     H117942   2.595   4.420   7.114
 5900WAT     H217943   2.638   4.450   6.959
 5901WAT      O17944   6.789   7.738   0.230
 5901WAT     H117945   6.764   7.780   0.142
 5901WAT     H217946   6.706   7.715   0.280
 5902WAT      O17947   3.466   2.495   7.268
 5902WAT     H117948   3.527   2.451   7.201
 5902WAT     H217949   3.473   2.594   7.258
 5903WAT      O17950   9.346   4.600   1.307
 5903WAT     H117951   9.263   4.552   1.335
 5903WAT     H217952   9.397   4.542   1.243
 5904WAT      O17953   7.227   0.275   5.600
 5904WAT     H117954   7.148   0.301   5.545
 5904WAT     H217955   7.243   0.344   5.670
 5905WAT      O17956   6.826   6.461   8.326
 5905WAT     H117957   6.747   6.469   8.387
 5905WAT     H217958   6.855   6.552   8.297
 5906WAT      O17959   8.923   6.450   6.514
 5906WAT     H117960   8.827   6.448   6.487
 5906WAT     H217961   8.966   6.363   6.489
 5907WAT      O17962   3.892   6.509   4.057
 5907WAT     H117963   3.935   6.599   4.052
 5907WAT     H217964   3.851   6.487   3.968
 5908WAT      O17965   8.402   1.356   9.229
 5908WAT     H117966   8.446   1.293   9.294
 5908WAT     H217967   8.469   1.384   9.160
 5909WAT      O17968   3.141   7.098   6.474
 5909WAT     H117969   3.236   7.078   6.499
 5909WAT     H217970   3.096   7.013   6.448
 5910WAT      O17971   1.959   4.734   2.863
 5910WAT     H117972   2.056   4.720   2.843
 5910WAT     H217973   1.906   4.712   2.781
 5911WAT      O17974   1.817   5.541   6.700
 5911WAT     H117975   1.887   5.611   6.718
 5911WAT     H217976   1.834   5.461   6.758
 5912WAT      O17977   0.694   1.791   4.533
 5912WAT     H117978   0.700   1.826   4.626
 5912WAT     H217979   0.663   1.696   4.535
 5913WAT      O17980   4.502   6.991   2.445
 5913WAT     H117981   4.552   6.990   2.532
 5913WAT     H217982   4.454   6.904   2.434
 5914WAT      O17983   2.096   1.578   0.746
 5914WAT     H117984   2.042   1.657   0.776
 5914WAT     H217985   2.034   1.502   0.728
 5915WAT      O17986   7.115   6.576   0.674
 5915WAT     H117987   7.031   6.541   0.634
 5915WAT     H217988   7.146   6.657   0.624
 5916WAT      O17989   9.019   1.474   0.207
 5916WAT     H117990   9.011   1.529   0.290
 5916WAT     H217991   8.976   1.384   0.221
 5917WAT      O17992   0.413   5.836   7.249
 5917WAT     H117993   0.501   5.816   7.206
 5917WAT     H217994   0.404   5.782   7.333
 5918WAT      O17995   4.910   6.454   5.140
 5918WAT     H117996   4.923   6.416   5.232
 5918WAT     H217997   4.999   6.465   5.096
 5919WAT      O17998   4.807   5.879   7.080
 5919WAT     H117999   4.772   5.968   7.110
 5919WAT     H218000   4.789   5.810   7.151
 5920WAT      O18001   3.525   6.837   9.102
 5920WAT     H118002   3.503   6.740   9.109
 5920WAT     H218003   3.619   6.848   9.069
 5921WAT      O18004   5.183   6.528   1.318
 5921WAT     H118005   5.243   6.472   1.261
 5921WAT     H218006   5.112   6.569   1.261
 5922WAT      O18007   1.049   8.906   5.684
 5922WAT     H118008   1.045   9.005   5.673
 5922WAT     H218009   1.050   8.883   5.782
 5923WAT      O18010   5.919   5.004   8.066
 5923WAT     H118011   5.838   4.964   8.023
 5923WAT     H218012   5.965   4.935   8.122
 5924WAT      O18013   2.760   3.671   1.589
 5924WAT     H118014   2.754   3.617   1.505
 5924WAT     H218015   2.850   3.715   1.594
 5925WAT      O18016   6.696   8.042   1.531
 5925WAT     H118017   6.722   7.946   1.522
 5925WAT     H218018   6.610   8.058   1.481
 5926WAT      O18019   4.188   5.541   1.916
 5926WAT     H118020   4.238   5.612   1.966
 5926WAT     H218021   4.211   5.452   1.955
 5927WAT      O18022   0.511   7.983   3.910
 5927WAT     H118023   0.573   8.060   3.897
 5927WAT     H218024   0.449   7.976   3.832
 5928WAT      O18025   7.286   8.116   7.209
 5928WAT     H118026   7.295   8.141   7.113
 5928WAT     H218027   7.357   8.048   7.232
 5929WAT      O18028   8.689   9.761   5.935
 5929WAT     H118029   8.655   9.766   5.841
 5929WAT     H218030   8.716   9.852   5.966
 5930WAT      O18031   7.586   6.485   3.508
 5930WAT     H118032   7.670   6.535   3.531
 5930WAT     H218033   7.597   6.440   3.419
 5931WAT      O18034   0.042   3.947   6.268
 5931WAT     H118035   0.091   4.032   6.249
 5931WAT     H218036  -0.049   3.950   6.226
 5932WAT      O18037   3.517   2.437   0.188
 5932WAT     H118038   3.459   2.516   0.207
 5932WAT     H218039   3.556   2.402   0.273
 5933WAT      O18040   3.182   0.915   8.658
 5933WAT     H118041   3.089   0.948   8.666
 5933WAT     H218042   3.184   0.816   8.677
 5934WAT      O18043   8.490   5.255   8.938
 5934WAT     H118044   8.550   5.199   8.995
 5934WAT     H218045   8.539   5.281   8.855
 5935WAT      O18046   7.038   0.170   9.619
 5935WAT     H118047   7.134   0.159   9.645
 5935WAT     H218048   7.024   0.263   9.585
 5936WAT      O18049   1.994   9.726   5.585
 5936WAT     H118050   1.934   9.777   5.647
 5936WAT     H218051   1.940   9.690   5.508
 5937WAT      O18052   4.928   0.019   8.937
 5937WAT     H118053   4.835   0.009   8.972
 5937WAT     H218054   4.926   0.065   8.848
 5938WAT      O18055   9.573   1.863   3.687
 5938WAT     H118056   9.507   1.872   3.613
 5938WAT     H218057   9.531   1.812   3.763
 5939WAT      O18058   6.674   3.788   1.246
 5939WAT     H118059   6.750   3.796   1.311
 5939WAT     H218060   6.700   3.727   1.172
 5940WAT      O18061   5.207   1.401   6.329
 5940WAT     H118062   5.271   1.466   6.369
 5940WAT     H218063   5.221   1.311   6.370
 5941WAT      O18064   0.611   0.742   0.553
 5941WAT     H118065   0.660   0.662   0.517
 5941WAT     H218066   0.670   0.823   0.546
 5942WAT      O18067   0.087   5.956   2.957
 5942WAT     H118068   0.181   5.934   2.984
 5942WAT     H218069   0.043   6.009   3.030
 5943WAT      O18070   1.327   8.812   1.923
 5943WAT     H118071   1.424   8.814   1.900
 5943WAT     H218072   1.301   8.899   1.964
 5944WAT      O18073   1.350   6.896   4.111
 5944WAT     H118074   1.328   6.802   4.136
 5944WAT     H218075   1.425   6.929   4.169
 5945WAT      O18076   9.260   3.352   7.189
 5945WAT     H118077   9.250   3.254   7.171
 5945WAT     H218078   9.182   3.385   7.242
 5946WAT      O18079   8.262   4.541   5.533
 5946WAT     H118080   8.260   4.515   5.630
 5946WAT     H218081   8.168   4.546   5.498
 5947WAT      O18082   9.760   2.782   6.492
 5947WAT     H118083   9.767   2.823   6.401
 5947WAT     H218084   9.792   2.847   6.560
 5948WAT      O18085   5.114   0.047   6.508
 5948WAT     H118086   5.194   0.065   6.566
 5948WAT     H218087   5.143  -0.004   6.427
 5949WAT      O18088   7.346   7.086   7.784
 5949WAT     H118089   7.418   7.147   7.751
 5949WAT     H218090   7.376   6.991   7.777
 5950WAT      O18091   6.284   5.709   1.643
 5950WAT     H118092   6.278   5.760   1.729
 5950WAT     H218093   6.255   5.614   1.659
 5951WAT      O18094   9.399   7.273   2.673
 5951WAT     H118095   9.462   7.209   2.717
 5951WAT     H218096   9.324   7.294   2.736
 5952WAT      O18097   9.177   8.744   4.643
 5952WAT     H118098   9.104   8.812   4.635
 5952WAT     H218099   9.176   8.705   4.735
 5953WAT      O18100   3.140   6.666   9.185
 5953WAT     H118101   3.199   6.709   9.117
 5953WAT     H218102   3.142   6.567   9.174
 5954WAT      O18103   9.098   0.753   5.534
 5954WAT     H118104   9.051   0.670   5.505
 5954WAT     H218105   9.193   0.731   5.558
 5955WAT      O18106   4.968   2.435   2.490
 5955WAT     H118107   4.957   2.507   2.558
 5955WAT     H218108   5.064   2.406   2.489
 5956WAT      O18109   1.020   1.565   2.314
 5956WAT     H118110   1.004   1.527   2.405
 5956WAT     H218111   0.996   1.497   2.245
 5957WAT      O18112   5.973   5.128   6.780
 5957WAT     H118113   5.926   5.041   6.793
 5957WAT     H218114   5.942   5.193   6.850
 5958WAT      O18115   4.022   9.829   9.161
 5958WAT     H118116   3.986   9.745   9.200
 5958WAT     H218117   4.064   9.810   9.072
 5959WAT      O18118   0.980   6.665   7.553
 5959WAT     H118119   0.912   6.733   7.578
 5959WAT     H218120   0.949   6.575   7.582
 5960WAT      O18121   2.883   6.801   5.241
 5960WAT     H118122   2.968   6.852   5.229
 5960WAT     H218123   2.902   6.713   5.286
 5961WAT      O18124   3.293   0.989   9.504
 5961WAT     H118125   3.214   1.042   9.475
 5961WAT     H218126   3.321   1.017   9.596
 5962WAT      O18127   8.190   4.125   5.217
 5962WAT     H118128   8.090   4.132   5.222
 5962WAT     H218129   8.215   4.035   5.181
 5963WAT      O18130   2.487   9.776   0.247
 5963WAT     H118131   2.425   9.768   0.325
 5963WAT     H218132   2.581   9.781   0.280
 5964WAT      O18133   7.664   4.429   2.902
 5964WAT     H118134   7.751   4.465   2.868
 5964WAT     H218135   7.619   4.379   2.828
 5965WAT      O18136   8.740   3.268   4.466
 5965WAT     H118137   8.654   3.318   4.456
 5965WAT     H218138   8.736   3.183   4.414
 5966WAT      O18139   2.960   4.105   5.004
 5966WAT     H118140   2.921   4.043   5.073
 5966WAT     H218141   3.042   4.148   5.042
 5967WAT      O18142   5.223   7.705   1.988
 5967WAT     H118143   5.243   7.607   1.990
 5967WAT     H218144   5.225   7.742   2.081
 5968WAT      O18145   3.517   0.352   9.249
 5968WAT     H118146   3.601   0.376   9.298
 5968WAT     H218147   3.538   0.282   9.180
 5969WAT      O18148   4.122   1.198   8.873
 5969WAT     H118149   4.035   1.245   8.886
 5969WAT     H218150   4.197   1.263   8.882
 5970WAT      O18151   7.664   8.692   2.818
 5970WAT     H118152   7.748   8.741   2.840
 5970WAT     H218153   7.685   8.616   2.756
 5971WAT      O18154   1.059   0.391   0.946
 5971WAT     H118155   0.961   0.411   0.942
 5971WAT     H218156   1.072   0.297   0.980
 5972WAT      O18157   3.632   4.913   7.385
 5972WAT     H118158   3.644   4.847   7.311
 5972WAT     H218159   3.591   4.867   7.464
 5973WAT      O18160   4.145   9.362   1.820
 5973WAT     H118161   4.143   9.436   1.888
 5973WAT     H218162   4.092   9.389   1.740
 5974WAT      O18163   2.471   1.344   2.200
 5974WAT     H118164   2.518   1.429   2.175
 5974WAT     H218165   2.373   1.355   2.183
 5975WAT      O18166   5.737   6.803   6.779
 5975WAT     H118167   5.769   6.851   6.861
 5975WAT     H218168   5.810   6.746   6.743
 5976WAT      O18169   7.673   1.755   0.669
 5976WAT     H118170   7.691   1.833   0.609
 5976WAT     H218171   7.717   1.771   0.758
 5977WAT      O18172   6.358   9.122   1.085
 5977WAT     H118173   6.311   9.074   1.159
 5977WAT     H218174   6.380   9.056   1.012
 5978WAT      O18175   4.460   0.288   3.307
 5978WAT     H118176   4.485   0.346   3.385
 5978WAT     H218177   4.537   0.230   3.283
 5979WAT      O18178   7.901   0.425   7.566
 5979WAT     H118179   7.949   0.383   7.489
 5979WAT     H218180   7.802   0.415   7.555
 5980WAT      O18181   7.935   8.442   4.001
 5980WAT     H118182   8.034   8.444   4.017
 5980WAT     H218183   7.893   8.375   4.063
 5981WAT      O18184   7.362   4.903   3.457
 5981WAT     H118185   7.303   4.973   3.416
 5981WAT     H218186   7.364   4.823   3.398
 5982WAT      O18187   5.260   7.687   3.318
 5982WAT     H118188   5.300   7.602   3.283
 5982WAT     H218189   5.186   7.717   3.257
 5983WAT      O18190   1.129   4.077   1.489
 5983WAT     H118191   1.166   4.016   1.560
 5983WAT     H218192   1.057   4.029   1.438
 5984WAT      O18193   4.896   8.789   8.063
 5984WAT     H118194   4.951   8.859   8.018
 5984WAT     H218195   4.813   8.830   8.100
 5985WAT      O18196   5.260   6.536   2.863
 5985WAT     H118197   5.281   6.480   2.783
 5985WAT     H218198   5.299   6.494   2.945
 5986WAT      O18199   9.022   3.015   4.425
 5986WAT     H118200   9.042   3.078   4.351
 5986WAT     H218201   9.062   2.926   4.406
 5987WAT      O18202   6.928   4.811   1.949
 5987WAT     H118203   6.863   4.877   1.911
 5987WAT     H218204   6.892   4.719   1.936
 5988WAT      O18205   5.461   8.485   9.019
 5988WAT     H118206   5.442   8.499   8.921
 5988WAT     H218207   5.559   8.497   9.035
 5989WAT      O18208   8.608   6.418   4.055
 5989WAT     H118209   8.628   6.321   4.064
 5989WAT     H218210   8.655   6.454   3.974
 5990WAT      O18211   7.455   8.122   8.718
 5990WAT     H118212   7.356   8.135   8.722
 5990WAT     H218213   7.483   8.108   8.623
 5991WAT      O18214   1.066   7.180   4.429
 5991WAT     H118215   1.018   7.268   4.435
 5991WAT     H218216   1.165   7.196   4.421
 5992WAT      O18217   9.273   3.392   4.541
 5992WAT     H118218   9.317   3.309   4.574
 5992WAT     H218219   9.222   3.371   4.457
 5993WAT      O18220   4.067   1.226   4.992
 5993WAT     H118221   4.080   1.180   4.905
 5993WAT     H218222   4.009   1.170   5.051
 5994WAT      O18223   6.171   0.292   9.731
 5994WAT     H118224   6.132   0.346   9.657
 5994WAT     H218225   6.253   0.244   9.699
 5995WAT      O18226   3.286   7.247   9.500
 5995WAT     H118227   3.343   7.324   9.475
 5995WAT     H218228   3.279   7.241   9.600
 5996WAT      O18229   6.626   7.013   6.009
 5996WAT     H118230   6.713   6.967   5.995
 5996WAT     H218231   6.634   7.077   6.086
 5997WAT      O18232   9.375   6.924   4.688
 5997WAT     H118233   9.372   6.848   4.623
 5997WAT     H218234   9.456   6.980   4.668
 5998WAT      O18235   6.457   1.752   0.774
 5998WAT     H118236   6.432   1.785   0.683
 5998WAT     H218237   6.394   1.680   0.802
 5999WAT      O18238   6.032   8.497   9.050
 5999WAT     H118239   6.081   8.520   9.134
 5999WAT     H218240   6.014   8.580   8.997
 6000WAT      O18241   3.884   1.351   7.216
 6000WAT     H118242   3.979   1.361   7.246
 6000WAT     H218243   3.862   1.423   7.151
 6001WAT      O18244   6.354   5.772   8.950
 6001WAT     H118245   6.255   5.773   8.942
 6001WAT     H218246   6.381   5.722   9.033
 6002WAT      O18247   8.144   9.234   6.914
 6002WAT     H118248   8.229   9.225   6.965
 6002WAT     H218249   8.104   9.324   6.931
 6003WAT      O18250   0.726   1.532   2.841
 6003WAT     H118251   0.796   1.594   2.876
 6003WAT     H218252   0.677   1.490   2.918
 6004WAT      O18253   1.061   5.433   5.105
 6004WAT     H118254   1.027   5.366   5.171
 6004WAT     H218255   0.995   5.444   5.031
 6005WAT      O18256   5.896   2.666   0.829
 6005WAT     H118257   5.932   2.732   0.764
 6005WAT     H218258   5.797   2.681   0.840
 6006WAT      O18259   1.630   8.796   6.199
 6006WAT     H118260   1.676   8.776   6.285
 6006WAT     H218261   1.576   8.716   6.170
 6007WAT      O18262   6.518   6.304   8.660
 6007WAT     H118263   6.562   6.364   8.593
 6007WAT     H218264   6.516   6.349   8.749
 6008WAT      O18265   0.156   8.184   9.522
 6008WAT     H118266   0.095   8.118   9.567
 6008WAT     H218267   0.247   8.144   9.512
 6009WAT      O18268   2.456   0.085   9.692
 6009WAT     H118269   2.475  -0.005   9.730
 6009WAT     H218270   2.538   0.142   9.699
 6010WAT      O18271   1.498   8.172   3.534
 6010WAT     H118272   1.442   8.255   3.538
 6010WAT     H218273   1.525   8.145   3.626
 6011WAT      O18274   7.735   3.337   1.348
 6011WAT     H118275   7.795   3.395   1.404
 6011WAT     H218276   7.640   3.355   1.372
 6012WAT      O18277   3.730   0.791   7.359
 6012WAT     H118278   3.721   0.802   7.458
 6012WAT     H218279   3.714   0.695   7.335
 6013WAT      O18280   6.461   8.049   1.880
 6013WAT     H118281   6.536   8.104   1.842
 6013WAT     H218282   6.377   8.067   1.829
 6014WAT      O18283   0.822   1.224   8.110
 6014WAT     H118284   0.883   1.265   8.043
 6014WAT     H218285   0.860   1.137   8.142
 6015WAT      O18286   3.764   7.771   9.472
 6015WAT     H118287   3.789   7.699   9.536
 6015WAT     H218288   3.711   7.732   9.397
 6016WAT      O18289   8.407   2.708   2.431
 6016WAT     H118290   8.345   2.716   2.353
 6016WAT     H218291   8.355   2.720   2.516
 6017WAT      O18292   7.200   5.284   7.517
 6017WAT     H118293   7.194   5.342   7.435
 6017WAT     H218294   7.176   5.190   7.493
 6018WAT      O18295   8.090   8.531   8.135
 6018WAT     H118296   8.139   8.617   8.148
 6018WAT     H218297   8.021   8.542   8.063
 6019WAT      O18298   1.803   0.894   0.764
 6019WAT     H118299   1.823   0.876   0.861
 6019WAT     H218300   1.798   0.807   0.714
 6020WAT      O18301   0.102   5.171   6.808
 6020WAT     H118302   0.147   5.215   6.886
 6020WAT     H218303   0.044   5.096   6.841
 6021WAT      O18304   5.454   2.493   0.989
 6021WAT     H118305   5.415   2.436   1.061
 6021WAT     H218306   5.384   2.555   0.954
 6022WAT      O18307   1.569   9.676   4.073
 6022WAT     H118308   1.546   9.743   4.144
 6022WAT     H218309   1.609   9.595   4.116
 6023WAT      O18310   9.258   1.737   1.162
 6023WAT     H118311   9.192   1.812   1.154
 6023WAT     H218312   9.317   1.736   1.081
 6024WAT      O18313   6.611   7.078   2.243
 6024WAT     H118314   6.673   7.015   2.196
 6024WAT     H218315   6.549   7.119   2.176
 6025WAT      O18316   8.192   4.113   5.849
 6025WAT     H118317   8.292   4.099   5.848
 6025WAT     H218318   8.170   4.190   5.908
 6026WAT      O18319   3.799   3.013   2.249
 6026WAT     H118320   3.740   3.030   2.328
 6026WAT     H218321   3.743   3.011   2.165
 6027WAT      O18322   2.433   8.316   9.653
 6027WAT     H118323   2.500   8.268   9.710
 6027WAT     H218324   2.399   8.396   9.702
 6028WAT      O18325   3.527   1.916   5.836
 6028WAT     H118326   3.428   1.912   5.838
 6028WAT     H218327   3.565   1.843   5.894
 6029WAT      O18328   1.821   4.987   5.494
 6029WAT     H118329   1.852   5.078   5.524
 6029WAT     H218330   1.897   4.923   5.499
 6030WAT      O18331   6.405   1.782   8.900
 6030WAT     H118332   6.484   1.735   8.861
 6030WAT     H218333   6.407   1.774   9.000
 6031WAT      O18334   7.188   9.757   0.622
 6031WAT     H118335   7.196   9.743   0.524
 6031WAT     H218336   7.128   9.687   0.661
 6032WAT      O18337   2.437   5.122   2.119
 6032WAT     H118338   2.475   5.171   2.040
 6032WAT     H218339   2.494   5.042   2.138
 6033WAT      O18340   8.213   3.029   1.642
 6033WAT     H118341   8.221   2.951   1.705
 6033WAT     H218342   8.298   3.081   1.643
 6034WAT      O18343   6.368   1.688   6.834
 6034WAT     H118344   6.357   1.748   6.913
 6034WAT     H218345   6.341   1.737   6.751
 6035WAT      O18346   5.374   8.217   6.057
 6035WAT     H118347   5.282   8.253   6.072
 6035WAT     H218348   5.441   8.283   6.092
 6036WAT      O18349   6.548   1.110   8.737
 6036WAT     H118350   6.623   1.050   8.765
 6036WAT     H218351   6.472   1.054   8.703
 6037WAT      O18352   1.066   3.131   7.006
 6037WAT     H118353   1.135   3.058   7.010
 6037WAT     H218354   1.028   3.147   7.097
 6038WAT      O18355   4.570   7.910   9.594
 6038WAT     H118356   4.503   7.858   9.647
 6038WAT     H218357   4.614   7.978   9.653
 6039WAT      O18358   7.079   2.517   1.742
 6039WAT     H118359   7.131   2.532   1.826
 6039WAT     H218360   7.131   2.457   1.681
 6040WAT      O18361   3.848   3.190   7.673
 6040WAT     H118362   3.919   3.260   7.674
 6040WAT     H218363   3.857   3.134   7.590
 6041WAT      O18364   2.430   2.615   1.775
 6041WAT     H118365   2.350   2.662   1.739
 6041WAT     H218366   2.502   2.612   1.706
 6042WAT      O18367   7.297   4.996   1.096
 6042WAT     H118368   7.290   4.988   1.196
 6042WAT     H218369   7.372   4.938   1.064
 6043WAT      O18370   7.194   7.946   3.751
 6043WAT     H118371   7.199   7.915   3.656
 6043WAT     H218372   7.101   7.935   3.785
 6044WAT      O18373   3.295   7.590   4.663
 6044WAT     H118374   3.339   7.534   4.733
 6044WAT     H218375   3.211   7.630   4.700
 6045WAT      O18376   7.587   2.531   9.203
 6045WAT     H118377   7.537   2.449   9.230
 6045WAT     H218378   7.683   2.509   9.190
 6046WAT      O18379   2.789   4.778   1.940
 6046WAT     H118380   2.847   4.793   2.020
 6046WAT     H218381   2.764   4.867   1.901
 6047WAT      O18382   5.573   3.137   8.486
 6047WAT     H118383   5.608   3.211   8.544
 6047WAT     H218384   5.552   3.058   8.542
 6048WAT      O18385   7.112   6.870   6.571
 6048WAT     H118386   7.200   6.917   6.555
 6048WAT     H218387   7.039   6.921   6.525
 6049WAT      O18388   5.867   8.867   1.405
 6049WAT     H118389   5.801   8.805   1.449
 6049WAT     H218390   5.856   8.863   1.306
 6050WAT      O18391   1.286   2.669   1.574
 6050WAT     H118392   1.336   2.741   1.621
 6050WAT     H218393   1.194   2.661   1.614
 6051WAT      O18394   1.109   1.272   0.663
 6051WAT     H118395   1.071   1.199   0.721
 6051WAT     H218396   1.199   1.244   0.630
 6052WAT      O18397   6.755   8.733   4.741
 6052WAT     H118398   6.794   8.679   4.666
 6052WAT     H218399   6.778   8.689   4.828
 6053WAT      O18400   8.994   1.104   4.029
 6053WAT     H118401   9.076   1.151   4.063
 6053WAT     H218402   9.013   1.065   3.939
 6054WAT      O18403   3.902   2.229   1.319
 6054WAT     H118404   3.975   2.245   1.252
 6054WAT     H218405   3.896   2.131   1.338
 6055WAT      O18406   7.464   7.978   5.415
 6055WAT     H118407   7.520   8.061   5.423
 6055WAT     H218408   7.500   7.920   5.342
 6056WAT      O18409   4.504   6.366   6.417
 6056WAT     H118410   4.499   6.323   6.327
 6056WAT     H218411   4.536   6.461   6.407
 6057WAT      O18412   0.438   7.216   3.391
 6057WAT     H118413   0.374   7.139   3.390
 6057WAT     H218414   0.480   7.223   3.482
 6058WAT      O18415   4.824   3.134   6.114
 6058WAT     H118416   4.919   3.165   6.110
 6058WAT     H218417   4.820   3.036   6.094
 6059WAT      O18418  -0.004   3.530   7.713
 6059WAT     H118419   0.054   3.513   7.632
 6059WAT     H218420   0.054   3.551   7.791
 6060WAT      O18421   3.166   3.867   2.724
 6060WAT     H118422   3.131   3.952   2.685
 6060WAT     H218423   3.179   3.879   2.823
 6061WAT      O18424   9.240   2.408   6.092
 6061WAT     H118425   9.183   2.468   6.035
 6061WAT     H218426   9.319   2.460   6.126
 6062WAT      O18427   0.532   4.596   7.662
 6062WAT     H118428   0.570   4.521   7.716
 6062WAT     H218429   0.572   4.682   7.691
 6063WAT      O18430   1.113   7.520   6.167
 6063WAT     H118431   1.107   7.511   6.266
 6063WAT     H218432   1.207   7.500   6.137
 6064WAT      O18433   0.143   7.773   6.158
 6064WAT     H118434   0.164   7.798   6.063
 6064WAT     H218435   0.223   7.791   6.215
 6065WAT      O18436   8.860   2.895   5.554
 6065WAT     H118437   8.809   2.969   5.597
 6065WAT     H218438   8.810   2.863   5.473
 6066WAT      O18439   8.084   2.279   0.452
 6066WAT     H118440   8.130   2.354   0.403
 6066WAT     H218441   8.014   2.239   0.393
 6067WAT      O18442   3.788   6.389   5.592
 6067WAT     H118443   3.702   6.361   5.551
 6067WAT     H218444   3.779   6.394   5.691
 6068WAT      O18445   0.614   7.220   8.189
 6068WAT     H118446   0.573   7.164   8.260
 6068WAT     H218447   0.673   7.163   8.131
 6069WAT      O18448   3.317   0.406   7.297
 6069WAT     H118449   3.219   0.416   7.312
 6069WAT     H218450   3.367   0.462   7.363
 6070WAT      O18451   9.175   0.219   8.299
 6070WAT     H118452   9.239   0.147   8.328
 6070WAT     H218453   9.103   0.178   8.242
 6071WAT      O18454   7.969   1.853   8.664
 6071WAT     H118455   7.921   1.902   8.592
 6071WAT     H218456   8.006   1.767   8.628
 6072WAT      O18457   3.637   0.751   5.950
 6072WAT     H118458   3.555   0.774   6.003
 6072WAT     H218459   3.718   0.783   5.998
 6073WAT      O18460   7.963   6.900   9.116
 6073WAT     H118461   7.952   6.805   9.144
 6073WAT     H218462   7.946   6.909   9.018
 6074WAT      O18463   9.318   7.449   9.667
 6074WAT     H118464   9.387   7.477   9.601
 6074WAT     H218465   9.229   7.440   9.622
 6075WAT      O18466   8.671   4.858   4.813
 6075WAT     H118467   8.626   4.800   4.745
 6075WAT     H218468   8.770   4.847   4.806
 6076WAT      O18469   4.189   4.458   1.558
 6076WAT     H118470   4.207   4.368   1.518
 6076WAT     H218471   4.109   4.452   1.618
 6077WAT      O18472   7.568   0.391   3.972
 6077WAT     H118473   7.552   0.419   3.878
 6077WAT     H218474   7.480   0.377   4.018
 6078WAT      O18475   4.354   5.091   8.474
 6078WAT     H118476   4.281   5.124   8.533
 6078WAT     H218477   4.340   4.994   8.454
 6079WAT      O18478   7.410   5.882   7.216
 6079WAT     H118479   7.344   5.850   7.148
 6079WAT     H218480   7.476   5.810   7.235
 6080WAT      O18481   6.402   0.789   6.401
 6080WAT     H118482   6.434   0.817   6.491
 6080WAT     H218483   6.385   0.690   6.401
 6081WAT      O18484   3.272   1.821   4.212
 6081WAT     H118485   3.353   1.832   4.270
 6081WAT     H218486   3.222   1.908   4.208
 6082WAT      O18487   0.321   7.028   8.764
 6082WAT     H118488   0.309   6.946   8.819
 6082WAT     H218489   0.383   7.091   8.811
 6083WAT      O18490   7.234   7.936   5.269
 6083WAT     H118491   7.312   7.950   5.330
 6083WAT     H218492   7.183   7.855   5.297
 6084WAT      O18493   1.592   0.779   5.795
 6084WAT     H118494   1.603   0.701   5.733
 6084WAT     H218495   1.503   0.821   5.781
 6085WAT      O18496   8.473   1.808   7.607
 6085WAT     H118497   8.492   1.712   7.627
 6085WAT     H218498   8.558   1.858   7.598
 6086WAT      O18499   8.038   8.606   3.606
 6086WAT     H118500   7.997   8.598   3.515
 6086WAT     H218501   8.113   8.540   3.615
 6087WAT      O18502   8.388   2.326   2.670
 6087WAT     H118503   8.288   2.326   2.666
 6087WAT     H218504   8.424   2.363   2.584
 6088WAT      O18505   4.460   2.533   6.109
 6088WAT     H118506   4.517   2.590   6.168
 6088WAT     H218507   4.377   2.583   6.086
 6089WAT      O18508   1.301   8.380   3.586
 6089WAT     H118509   1.277   8.452   3.521
 6089WAT     H218510   1.332   8.420   3.672
 6090WAT      O18511   0.915   8.657   0.153
 6090WAT     H118512   0.956   8.741   0.188
 6090WAT     H218513   0.848   8.622   0.218
 6091WAT      O18514   0.682   4.621   6.366
 6091WAT     H118515   0.644   4.531   6.344
 6091WAT     H218516   0.781   4.615   6.369
 6092WAT      O18517   6.001   3.800   6.056
 6092WAT     H118518   6.067   3.745   6.107
 6092WAT     H218519   5.952   3.861   6.118
 6093WAT      O18520   2.520   4.528   6.111
 6093WAT     H118521   2.596   4.507   6.172
 6093WAT     H218522   2.488   4.444   6.066
 6094WAT      O18523   3.634   4.084   1.578
 6094WAT     H118524   3.627   3.992   1.616
 6094WAT     H218525   3.681   4.081   1.490
 6095WAT      O18526   6.298   2.835   1.371
 6095WAT     H118527   6.255   2.876   1.452
 6095WAT     H218528   6.235   2.842   1.293
 6096WAT      O18529   8.174   7.244   3.496
 6096WAT     H118530   8.171   7.317   3.428
 6096WAT     H218531   8.252   7.259   3.557
 6097WAT      O18532   9.422   2.862   8.589
 6097WAT     H118533   9.389   2.813   8.670
 6097WAT     H218534   9.430   2.960   8.610
 6098WAT      O18535   5.725   2.265   0.777
 6098WAT     H118536   5.670   2.186   0.749
 6098WAT     H218537   5.725   2.271   0.877
 6099WAT      O18538   0.853   7.909   7.096
 6099WAT     H118539   0.808   7.891   7.008
 6099WAT     H218540   0.787   7.950   7.159
 6100WAT      O18541   1.390   3.242   6.624
 6100WAT     H118542   1.309   3.243   6.683
 6100WAT     H218543   1.373   3.298   6.543
 6101WAT      O18544   9.638   0.400   7.367
 6101WAT     H118545   9.719   0.391   7.308
 6101WAT     H218546   9.663   0.379   7.461
 6102WAT      O18547   8.139   8.167   5.716
 6102WAT     H118548   8.127   8.230   5.793
 6102WAT     H218549   8.058   8.169   5.658
 6103WAT      O18550   6.808   9.776   8.852
 6103WAT     H118551   6.711   9.789   8.873
 6103WAT     H218552   6.819   9.705   8.783
 6104WAT      O18553   7.590   3.624   6.643
 6104WAT     H118554   7.575   3.626   6.742
 6104WAT     H218555   7.688   3.618   6.624
 6105WAT      O18556   2.978   6.060   3.408
 6105WAT     H118557   2.988   6.143   3.352
 6105WAT     H218558   3.066   6.015   3.417
 6106WAT      O18559   9.681   0.304   7.625
 6106WAT     H118560   9.729   0.217   7.620
 6106WAT     H218561   9.608   0.299   7.694
 6107WAT      O18562   4.881   1.978   6.691
 6107WAT     H118563   4.954   1.929   6.643
 6107WAT     H218564   4.874   1.944   6.784
 6108WAT      O18565   3.584   1.491   3.302
 6108WAT     H118566   3.570   1.567   3.239
 6108WAT     H218567   3.511   1.490   3.370
 6109WAT      O18568   3.451   1.772   2.498
 6109WAT     H118569   3.439   1.673   2.501
 6109WAT     H218570   3.362   1.817   2.508
 6110WAT      O18571   2.918   4.376   1.864
 6110WAT     H118572   2.992   4.441   1.883
 6110WAT     H218573   2.949   4.309   1.797
 6111WAT      O18574   9.302   3.022   2.031
 6111WAT     H118575   9.225   3.026   2.095
 6111WAT     H218576   9.358   3.104   2.040
 6112WAT      O18577   4.836   2.656   8.184
 6112WAT     H118578   4.747   2.638   8.141
 6112WAT     H218579   4.831   2.632   8.281
 6113WAT      O18580   3.169   3.000   0.698
 6113WAT     H118581   3.089   3.054   0.725
 6113WAT     H218582   3.252   3.039   0.739
 6114WAT      O18583   3.411   6.037   5.532
 6114WAT     H118584   3.358   5.991   5.461
 6114WAT     H218585   3.473   6.103   5.489
 6115WAT      O18586   6.437   2.130   0.806
 6115WAT     H118587   6.450   2.074   0.889
 6115WAT     H218588   6.350   2.105   0.763
 6116WAT      O18589   2.065   5.224   2.000
 6116WAT     H118590   1.993   5.238   2.068
 6116WAT     H218591   2.083   5.310   1.953
 6117WAT      O18592   3.105   9.685   9.107
 6117WAT     H118593   3.157   9.609   9.067
 6117WAT     H218594   3.137   9.702   9.201
 6118WAT      O18595   7.943   1.249   5.671
 6118WAT     H118596   7.998   1.329   5.645
 6118WAT     H218597   8.002   1.176   5.702
 6119WAT      O18598   1.833   0.470   4.242
 6119WAT     H118599   1.871   0.378   4.229
 6119WAT     H218600   1.886   0.536   4.189
 6120WAT      O18601   7.581   9.738   0.398
 6120WAT     H118602   7.550   9.832   0.383
 6120WAT     H218603   7.513   9.688   0.451
 6121WAT      O18604   9.167   1.655   8.008
 6121WAT     H118605   9.233   1.710   8.059
 6121WAT     H218606   9.189   1.558   8.019
 6122WAT      O18607   8.671   7.764   1.516
 6122WAT     H118608   8.583   7.812   1.518
 6122WAT     H218609   8.662   7.679   1.464
 6123WAT      O18610   7.216   3.282   0.484
 6123WAT     H118611   7.253   3.308   0.573
 6123WAT     H218612   7.239   3.186   0.465
 6124WAT      O18613   5.908   3.756   7.379
 6124WAT     H118614   5.847   3.775   7.302
 6124WAT     H218615   5.988   3.706   7.347
 6125WAT      O18616   3.198   2.446   7.765
 6125WAT     H118617   3.230   2.495   7.847
 6125WAT     H218618   3.100   2.428   7.774
 6126WAT      O18619   5.973   0.619   4.922
 6126WAT     H118620   6.057   0.579   4.957
 6126WAT     H218621   5.904   0.621   4.994
 6127WAT      O18622   8.805   2.328   9.672
 6127WAT     H118623   8.706   2.313   9.677
 6127WAT     H218624   8.823   2.424   9.651
 6128WAT      O18625   8.496   9.221   5.539
 6128WAT     H118626   8.460   9.147   5.596
 6128WAT     H218627   8.483   9.308   5.585
 6129WAT      O18628   9.075   8.206   6.833
 6129WAT     H118629   8.999   8.265   6.806
 6129WAT     H218630   9.098   8.144   6.758
 6130WAT      O18631   0.669   7.016   9.603
 6130WAT     H118632   0.654   6.984   9.697
 6130WAT     H218633   0.701   6.939   9.547
 6131WAT      O18634   9.015   6.752   8.483
 6131WAT     H118635   9.036   6.690   8.559
 6131WAT     H218636   9.029   6.847   8.513
 6132WAT      O18637   8.053   0.564   6.572
 6132WAT     H118638   8.021   0.508   6.495
 6132WAT     H218639   8.151   0.550   6.585
 6133WAT      O18640   3.853   9.591   0.338
 6133WAT     H118641   3.805   9.617   0.254
 6133WAT     H218642   3.834   9.496   0.360
 6134WAT      O18643   0.082   1.263   7.669
 6134WAT     H118644   0.069   1.359   7.643
 6134WAT     H218645   0.007   1.234   7.729
 6135WAT      O18646   3.304   9.421   7.512
 6135WAT     H118647   3.382   9.450   7.568
 6135WAT     H218648   3.234   9.381   7.571
 6136WAT      O18649   8.812   3.347   8.283
 6136WAT     H118650   8.872   3.301   8.218
 6136WAT     H218651   8.845   3.439   8.301
 6137WAT      O18652   9.717   7.775   5.813
 6137WAT     H118653   9.734   7.874   5.814
 6137WAT     H218654   9.689   7.747   5.721
 6138WAT      O18655   1.255   1.663   6.865
 6138WAT     H118656   1.198   1.614   6.799
 6138WAT     H218657   1.265   1.758   6.837
 6139WAT      O18658   4.168   0.244   9.271
 6139WAT     H118659   4.231   0.190   9.216
 6139WAT     H218660   4.203   0.253   9.364
 6140WAT      O18661   0.349   5.703   9.643
 6140WAT     H118662   0.309   5.785   9.601
 6140WAT     H218663   0.397   5.650   9.574
 6141WAT      O18664   2.774   7.840   9.149
 6141WAT     H118665   2.748   7.934   9.171
 6141WAT     H218666   2.771   7.784   9.232
 6142WAT      O18667   8.632   9.025   4.657
 6142WAT     H118668   8.672   8.936   4.634
 6142WAT     H218669   8.583   9.017   4.743
 6143WAT      O18670   2.898   9.179   9.373
 6143WAT     H118671   2.815   9.144   9.416
 6143WAT     H218672   2.963   9.207   9.444
 6144WAT      O18673   2.532   2.965   3.829
 6144WAT     H118674   2.572   3.055   3.813
 6144WAT     H218675   2.523   2.917   3.741
 6145WAT      O18676   4.853   9.348   3.946
 6145WAT     H118677   4.952   9.353   3.936
 6145WAT     H218678   4.809   9.396   3.870
 6146WAT      O18679   7.345   7.597   7.258
 6146WAT     H118680   7.274   7.647   7.309
 6146WAT     H218681   7.373   7.517   7.311
 6147WAT      O18682   6.208   2.245   3.923
 6147WAT     H118683   6.271   2.323   3.929
 6147WAT     H218684   6.211   2.207   3.830
 6148WAT      O18685   2.603   4.291   2.334
 6148WAT     H118686   2.677   4.311   2.271
 6148WAT     H218687   2.635   4.301   2.428
 6149WAT      O18688   0.177   4.221   8.607
 6149WAT     H118689   0.113   4.255   8.538
 6149WAT     H218690   0.270   4.244   8.580
 6150WAT      O18691   8.808   1.972   4.242
 6150WAT     H118692   8.773   1.885   4.276
 6150WAT     H218693   8.731   2.036   4.231
 6151WAT      O18694   4.059   6.034   2.765
 6151WAT     H118695   4.141   6.036   2.821
 6151WAT     H218696   4.036   5.939   2.742
 6152WAT      O18697   6.766   1.060   5.330
 6152WAT     H118698   6.861   1.043   5.358
 6152WAT     H218699   6.762   1.145   5.278
 6153WAT      O18700   6.922   2.884   1.983
 6153WAT     H118701   6.922   2.947   2.059
 6153WAT     H218702   6.892   2.794   2.014
 6154WAT      O18703   4.252   8.182   0.652
 6154WAT     H118704   4.201   8.138   0.726
 6154WAT     H218705   4.348   8.154   0.658
 6155WAT      O18706   0.042   1.758   7.203
 6155WAT     H118707   0.020   1.801   7.116
 6155WAT     H218708  -0.043   1.727   7.247
 6156WAT      O18709   2.894   0.841   9.220
 6156WAT     H118710   2.926   0.754   9.184
 6156WAT     H218711   2.877   0.904   9.144
 6157WAT      O18712   1.731   5.248   0.758
 6157WAT     H118713   1.766   5.263   0.666
 6157WAT     H218714   1.657   5.312   0.777
 6158WAT      O18715   0.400   4.856   6.864
 6158WAT     H118716   0.379   4.930   6.800
 6158WAT     H218717   0.460   4.790   6.820
 6159WAT      O18718   9.739   5.966   1.395
 6159WAT     H118719   9.727   5.894   1.463
 6159WAT     H218720   9.651   5.988   1.354
 6160WAT      O18721   5.968   0.393   4.107
 6160WAT     H118722   5.990   0.300   4.079
 6160WAT     H218723   5.898   0.431   4.046
 6161WAT      O18724   1.146   7.579   4.795
 6161WAT     H118725   1.230   7.600   4.746
 6161WAT     H218726   1.134   7.644   4.871
 6162WAT      O18727   5.625   3.149   0.549
 6162WAT     H118728   5.567   3.082   0.596
 6162WAT     H218729   5.570   3.198   0.481
 6163WAT      O18730   0.343   0.124   5.091
 6163WAT     H118731   0.425   0.171   5.058
 6163WAT     H218732   0.339   0.032   5.052
 6164WAT      O18733   8.669   0.625   0.139
 6164WAT     H118734   8.638   0.551   0.080
 6164WAT     H218735   8.701   0.587   0.226
 6165WAT      O18736   5.978   1.242   2.829
 6165WAT     H118737   6.067   1.197   2.841
 6165WAT     H218738   5.949   1.233   2.734
 6166WAT      O18739   2.576   5.118   1.402
 6166WAT     H118740   2.584   5.158   1.493
 6166WAT     H218741   2.616   5.181   1.335
 6167WAT      O18742   2.777   3.293   5.707
 6167WAT     H118743   2.820   3.225   5.765
 6167WAT     H218744   2.845   3.333   5.645
 6168WAT      O18745   6.025   3.764   7.739
 6168WAT     H118746   5.954   3.695   7.756
 6168WAT     H218747   5.987   3.838   7.683
 6169WAT      O18748   8.362   7.444   0.632
 6169WAT     H118749   8.425   7.408   0.563
 6169WAT     H218750   8.349   7.542   0.617
 6170WAT      O18751   0.491   5.536   0.323
 6170WAT     H118752   0.412   5.550   0.264
 6170WAT     H218753   0.571   5.515   0.267
 6171WAT      O18754   6.446   5.492   5.816
 6171WAT     H118755   6.435   5.574   5.759
 6171WAT     H218756   6.433   5.517   5.912
 6172WAT      O18757   6.248   3.060   2.273
 6172WAT     H118758   6.280   3.007   2.352
 6172WAT     H218759   6.229   2.998   2.197
 6173WAT      O18760   0.324   0.422   2.147
 6173WAT     H118761   0.327   0.521   2.139
 6173WAT     H218762   0.249   0.395   2.207
 6174WAT      O18763   1.736   1.872   4.523
 6174WAT     H118764   1.662   1.898   4.586
 6174WAT     H218765   1.823   1.873   4.572
 6175WAT      O18766   9.210   5.954   1.818
 6175WAT     H118767   9.268   6.021   1.773
 6175WAT     H218768   9.225   5.864   1.777
 6176WAT      O18769   4.558   0.390   3.805
 6176WAT     H118770   4.488   0.323   3.830
 6176WAT     H218771   4.583   0.443   3.886
 6177WAT      O18772   5.621   9.778   4.752
 6177WAT     H118773   5.540   9.784   4.810
 6177WAT     H218774   5.594   9.752   4.659
 6178WAT      O18775   4.228   8.391   4.956
 6178WAT     H118776   4.172   8.411   5.037
 6178WAT     H218777   4.172   8.403   4.874
 6179WAT      O18778   3.316   5.474   2.660
 6179WAT     H118779   3.217   5.472   2.668
 6179WAT     H218780   3.354   5.389   2.697
 6180WAT      O18781   3.889   3.440   3.750
 6180WAT     H118782   3.966   3.498   3.725
 6180WAT     H218783   3.809   3.497   3.770
 6181WAT      O18784   8.919   1.158   3.543
 6181WAT     H118785   8.827   1.150   3.580
 6181WAT     H218786   8.929   1.245   3.496
 6182WAT      O18787   8.023   5.690   6.975
 6182WAT     H118788   7.942   5.633   6.960
 6182WAT     H218789   7.999   5.786   6.960
 6183WAT      O18790   2.111   5.506   0.510
 6183WAT     H118791   2.184   5.550   0.457
 6183WAT     H218792   2.126   5.408   0.512
 6184WAT      O18793   2.176   7.710   6.079
 6184WAT     H118794   2.234   7.701   6.160
 6184WAT     H218795   2.231   7.696   5.996
 6185WAT      O18796   0.541   6.229   1.324
 6185WAT     H118797   0.481   6.180   1.261
 6185WAT     H218798   0.622   6.261   1.274
 6186WAT      O18799   4.003   3.374   8.235
 6186WAT     H118800   4.093   3.393   8.275
 6186WAT     H218801   4.008   3.385   8.136
 6187WAT      O18802   2.305   9.587   0.901
 6187WAT     H118803   2.305   9.488   0.916
 6187WAT     H218804   2.222   9.626   0.941
 6188WAT      O18805   2.793   3.434   2.477
 6188WAT     H118806   2.717   3.406   2.535
 6188WAT     H218807   2.829   3.355   2.428
 6189WAT      O18808   3.051   8.599   1.429
 6189WAT     H118809   3.077   8.543   1.507
 6189WAT     H218810   3.012   8.685   1.460
 6190WAT      O18811   6.181   4.258   6.018
 6190WAT     H118812   6.130   4.207   6.086
 6190WAT     H218813   6.275   4.223   6.012
 6191WAT      O18814   4.230   5.159   1.558
 6191WAT     H118815   4.188   5.241   1.598
 6191WAT     H218816   4.173   5.079   1.579
 6192WAT      O18817   5.506   8.961   4.235
 6192WAT     H118818   5.507   9.043   4.293
 6192WAT     H218819   5.538   8.882   4.288
 6193WAT      O18820   3.124   5.447   6.954
 6193WAT     H118821   3.161   5.531   6.992
 6193WAT     H218822   3.025   5.458   6.938
 6194WAT      O18823   9.275   7.391   1.661
 6194WAT     H118824   9.192   7.447   1.653
 6194WAT     H218825   9.287   7.337   1.578
 6195WAT      O18826   7.154   0.678   3.114
 6195WAT     H118827   7.200   0.615   3.177
 6195WAT     H218828   7.075   0.633   3.073
 6196WAT      O18829   3.021   1.638   3.757
 6196WAT     H118830   2.922   1.639   3.773
 6196WAT     H218831   3.067   1.676   3.837
 6197WAT      O18832   0.187   9.401   9.711
 6197WAT     H118833   0.136   9.463   9.651
 6197WAT     H218834   0.223   9.452   9.789
 6198WAT      O18835   6.625   7.651   3.152
 6198WAT     H118836   6.722   7.671   3.142
 6198WAT     H218837   6.584   7.714   3.218
 6199WAT      O18838   0.501   2.962   7.648
 6199WAT     H118839   0.567   2.963   7.574
 6199WAT     H218840   0.548   2.971   7.736
 6200WAT      O18841   1.836   2.170   7.738
 6200WAT     H118842   1.843   2.172   7.638
 6200WAT     H218843   1.879   2.252   7.776
 6201WAT      O18844   8.450   3.128   7.780
 6201WAT     H118845   8.474   3.213   7.734
 6201WAT     H218846   8.483   3.050   7.727
 6202WAT      O18847   2.886   8.892   6.703
 6202WAT     H118848   2.924   8.823   6.641
 6202WAT     H218849   2.938   8.891   6.789
 6203WAT      O18850   4.636   5.866   3.187
 6203WAT     H118851   4.566   5.910   3.242
 6203WAT     H218852   4.689   5.804   3.244
 6204WAT      O18853   9.411   1.988   0.330
 6204WAT     H118854   9.476   2.062   0.312
 6204WAT     H218855   9.332   2.024   0.380
 6205WAT      O18856   2.306   8.937   4.000
 6205WAT     H118857   2.339   8.993   4.076
 6205WAT     H218858   2.245   8.991   3.943
 6206WAT      O18859   3.142   4.636   5.175
 6206WAT     H118860   3.156   4.733   5.155
 6206WAT     H218861   3.070   4.627   5.244
 6207WAT      O18862   6.918   2.368   7.658
 6207WAT     H118863   6.884   2.316   7.580
 6207WAT     H218864   6.961   2.306   7.723
 6208WAT      O18865   0.359   8.647   2.798
 6208WAT     H118866   0.327   8.686   2.885
 6208WAT     H218867   0.452   8.611   2.811
 6209WAT      O18868   2.911   1.001   8.711
 6209WAT     H118869   2.913   1.091   8.755
 6209WAT     H218870   2.898   1.013   8.613
 6210WAT      O18871   1.149   4.003   1.901
 6210WAT     H118872   1.197   4.047   1.977
 6210WAT     H218873   1.076   3.945   1.937
 6211WAT      O18874   6.867   4.353   7.308
 6211WAT     H118875   6.775   4.393   7.308
 6211WAT     H218876   6.870   4.279   7.241
 6212WAT      O18877   4.291   8.901   2.522
 6212WAT     H118878   4.329   8.902   2.614
 6212WAT     H218879   4.292   8.994   2.484
 6213WAT      O18880   5.371   1.255   4.910
 6213WAT     H118881   5.312   1.332   4.886
 6213WAT     H218882   5.403   1.265   5.004
 6214WAT      O18883   2.637   1.245   4.831
 6214WAT     H118884   2.556   1.293   4.864
 6214WAT     H218885   2.718   1.302   4.848
 6215WAT      O18886   2.485   1.721   8.114
 6215WAT     H118887   2.507   1.640   8.061
 6215WAT     H218888   2.439   1.788   8.055
 6216WAT      O18889   4.717   1.030   5.487
 6216WAT     H118890   4.750   0.981   5.568
 6216WAT     H218891   4.633   1.079   5.510
 6217WAT      O18892   2.163   3.823   6.730
 6217WAT     H118893   2.226   3.799   6.803
 6217WAT     H218894   2.084   3.761   6.732
 6218WAT      O18895   4.576   4.356   7.572
 6218WAT     H118896   4.537   4.317   7.488
 6218WAT     H218897   4.616   4.283   7.627
 6219WAT      O18898   6.817   6.903   8.470
 6219WAT     H118899   6.769   6.990   8.472
 6219WAT     H218900   6.915   6.919   8.484
 6220WAT      O18901   4.462   9.835   6.007
 6220WAT     H118902   4.545   9.865   6.054
 6220WAT     H218903   4.394   9.805   6.074
 6221WAT      O18904   8.375   0.398   9.730
 6221WAT     H118905   8.364   0.395   9.630
 6221WAT     H218906   8.399   0.491   9.758
 6222WAT      O18907   0.227   7.670   3.634
 6222WAT     H118908   0.303   7.677   3.699
 6222WAT     H218909   0.247   7.598   3.568
 6223WAT      O18910   1.525   7.273   8.039
 6223WAT     H118911   1.517   7.175   8.023
 6223WAT     H218912   1.561   7.318   7.957
 6224WAT      O18913   6.772   9.817   4.295
 6224WAT     H118914   6.748   9.874   4.216
 6224WAT     H218915   6.859   9.848   4.333
 6225WAT      O18916   3.750   9.205   6.324
 6225WAT     H118917   3.685   9.274   6.356
 6225WAT     H218918   3.702   9.137   6.268
 6226WAT      O18919   2.390   6.755   8.692
 6226WAT     H118920   2.391   6.659   8.662
 6226WAT     H218921   2.455   6.768   8.766
 6227WAT      O18922   4.641   5.887   5.531
 6227WAT     H118923   4.567   5.888   5.599
 6227WAT     H218924   4.676   5.980   5.519
 6228WAT      O18925   8.617   8.316   0.716
 6228WAT     H118926   8.700   8.304   0.661
 6228WAT     H218927   8.642   8.335   0.811
 6229WAT      O18928   3.984   3.119   0.695
 6229WAT     H118929   3.963   3.089   0.602
 6229WAT     H218930   4.006   3.216   0.694
 6230WAT      O18931   3.197   1.908   2.109
 6230WAT     H118932   3.236   1.983   2.164
 6230WAT     H218933   3.117   1.870   2.157
 6231WAT      O18934   9.063   1.911   8.630
 6231WAT     H118935   9.012   1.968   8.694
 6231WAT     H218936   9.146   1.958   8.602
 6232WAT      O18937   1.430   4.053   0.788
 6232WAT     H118938   1.512   4.111   0.790
 6232WAT     H218939   1.429   3.994   0.868
 6233WAT      O18940   2.824   7.456   5.288
 6233WAT     H118941   2.817   7.373   5.345
 6233WAT     H218942   2.791   7.535   5.340
 6234WAT      O18943   4.009   1.463   6.535
 6234WAT     H118944   4.097   1.418   6.550
 6234WAT     H218945   3.935   1.397   6.551
 6235WAT      O18946   8.050   3.934   6.067
 6235WAT     H118947   8.148   3.956   6.060
 6235WAT     H218948   8.009   3.940   5.977
 6236WAT      O18949   6.628   8.256   3.795
 6236WAT     H118950   6.720   8.217   3.789
 6236WAT     H218951   6.631   8.352   3.769
 6237WAT      O18952   7.827   4.722   0.653
 6237WAT     H118953   7.903   4.718   0.718
 6237WAT     H218954   7.748   4.674   0.692
 6238WAT      O18955   2.677   4.590   4.843
 6238WAT     H118956   2.723   4.603   4.930
 6238WAT     H218957   2.604   4.522   4.854
 6239WAT      O18958   3.025   6.074   9.497
 6239WAT     H118959   2.957   6.145   9.514
 6239WAT     H218960   3.025   6.008   9.573
 6240WAT      O18961   7.441   9.538   0.786
 6240WAT     H118962   7.365   9.533   0.850
 6240WAT     H218963   7.422   9.478   0.707
 6241WAT      O18964   3.838   5.442   5.231
 6241WAT     H118965   3.783   5.402   5.158
 6241WAT     H218966   3.875   5.370   5.289
 6242WAT      O18967   4.842   9.019   0.838
 6242WAT     H118968   4.817   8.931   0.878
 6242WAT     H218969   4.930   9.049   0.877
 6243WAT      O18970   2.656   2.689   4.953
 6243WAT     H118971   2.578   2.637   4.919
 6243WAT     H218972   2.680   2.760   4.887
 6244WAT      O18973   6.617   4.785   1.103
 6244WAT     H118974   6.534   4.825   1.064
 6244WAT     H218975   6.675   4.857   1.141
 6245WAT      O18976   3.978   6.973   2.584
 6245WAT     H118977   3.940   7.044   2.525
 6245WAT     H218978   3.943   6.986   2.677
 6246WAT      O18979   8.856   0.446   3.143
 6246WAT     H118980   8.816   0.441   3.051
 6246WAT     H218981   8.934   0.383   3.149
 6247WAT      O18982   5.192   9.246   7.056
 6247WAT     H118983   5.252   9.324   7.077
 6247WAT     H218984   5.189   9.231   6.958
 6248WAT      O18985   6.203   6.729   2.975
 6248WAT     H118986   6.123   6.675   2.951
 6248WAT     H218987   6.175   6.811   3.024
 6249WAT      O18988   0.099   0.358   4.308
 6249WAT     H118989   0.154   0.290   4.259
 6249WAT     H218990   0.016   0.314   4.344
 6250WAT      O18991   6.584   9.085   8.734
 6250WAT     H118992   6.498   9.110   8.691
 6250WAT     H218993   6.590   9.128   8.824
 6251WAT      O18994   8.657   0.940   6.559
 6251WAT     H118995   8.733   0.985   6.605
 6251WAT     H218996   8.641   0.982   6.470
 6252WAT      O18997   0.728   2.468   4.587
 6252WAT     H118998   0.740   2.422   4.675
 6252WAT     H218999   0.816   2.501   4.554
 6253WAT      O19000   5.325   1.902   8.845
 6253WAT     H119001   5.394   1.928   8.913
 6253WAT     H219002   5.305   1.804   8.854
 6254WAT      O19003   8.861   2.936   3.463
 6254WAT     H119004   8.904   2.897   3.382
 6254WAT     H219005   8.931   2.964   3.528
 6255WAT      O19006   3.607   5.886   9.388
 6255WAT     H119007   3.623   5.787   9.381
 6255WAT     H219008   3.539   5.904   9.458
 6256WAT      O19009   2.759   9.820   0.337
 6256WAT     H119010   2.769   9.912   0.299
 6256WAT     H219011   2.844   9.793   0.382
 6257WAT      O19012   0.033   1.436   3.553
 6257WAT     H119013   0.108   1.500   3.566
 6257WAT     H219014  -0.054   1.484   3.563
 6258WAT      O19015   8.259   7.974   2.098
 6258WAT     H119016   8.166   7.990   2.130
 6258WAT     H219017   8.260   7.978   1.998
 6259WAT      O19018   6.703   2.664   1.536
 6259WAT     H119019   6.615   2.657   1.489
 6259WAT     H219020   6.758   2.583   1.516
 6260WAT      O19021   5.952   7.050   3.743
 6260WAT     H119022   5.891   7.023   3.668
 6260WAT     H219023   6.013   6.973   3.765
 6261WAT      O19024   5.543   0.407   3.541
 6261WAT     H119025   5.466   0.357   3.580
 6261WAT     H219026   5.542   0.395   3.441
 6262WAT      O19027   4.516   5.042   1.496
 6262WAT     H119028   4.448   5.088   1.553
 6262WAT     H219029   4.571   5.109   1.447
 6263WAT      O19030   3.248   6.007   3.487
 6263WAT     H119031   3.268   5.978   3.580
 6263WAT     H219032   3.295   6.094   3.468
 6264WAT      O19033   2.674   9.296   5.079
 6264WAT     H119034   2.621   9.237   5.139
 6264WAT     H219035   2.624   9.312   4.995
 6265WAT      O19036   0.049   7.798   1.207
 6265WAT     H119037   0.057   7.894   1.181
 6265WAT     H219038   0.003   7.791   1.296
 6266WAT      O19039   0.251   1.724   2.993
 6266WAT     H119040   0.335   1.724   3.046
 6266WAT     H219041   0.270   1.700   2.898
 6267WAT      O19042   8.033   3.114   9.037
 6267WAT     H119043   7.946   3.158   9.055
 6267WAT     H219044   8.086   3.169   8.972
 6268WAT      O19045   3.535   2.529   2.727
 6268WAT     H119046   3.485   2.444   2.743
 6268WAT     H219047   3.565   2.567   2.814
 6269WAT      O19048   0.032   0.326   0.121
 6269WAT     H119049   0.065   0.389   0.191
 6269WAT     H219050   0.004   0.240   0.164
 6270WAT      O19051   8.475   1.671   5.972
 6270WAT     H119052   8.431   1.760   5.980
 6270WAT     H219053   8.486   1.631   6.063
 6271WAT      O19054   5.050   8.058   7.624
 6271WAT     H119055   4.963   8.088   7.664
 6271WAT     H219056   5.078   8.124   7.553
 6272WAT      O19057   1.554   7.547   8.614
 6272WAT     H119058   1.638   7.508   8.649
 6272WAT     H219059   1.489   7.473   8.593
 6273WAT      O19060   6.267   4.725   7.336
 6273WAT     H119061   6.281   4.698   7.431
 6273WAT     H219062   6.279   4.824   7.327
 6274WAT      O19063   5.309   9.620   3.179
 6274WAT     H119064   5.395   9.648   3.221
 6274WAT     H219065   5.296   9.522   3.191
 6275WAT      O19066   0.653   4.605   4.607
 6275WAT     H119067   0.725   4.576   4.545
 6275WAT     H219068   0.661   4.704   4.624
 6276WAT      O19069   0.016   5.811   5.913
 6276WAT     H119070   0.028   5.773   5.821
 6276WAT     H219071   0.088   5.776   5.973
 6277WAT      O19072   2.533   6.912   5.838
 6277WAT     H119073   2.469   6.941   5.909
 6277WAT     H219074   2.499   6.829   5.794
 6278WAT      O19075   0.871   9.824   8.968
 6278WAT     H119076   0.876   9.724   8.964
 6278WAT     H219077   0.962   9.862   8.983
 6279WAT      O19078   7.732   5.275   6.750
 6279WAT     H119079   7.741   5.188   6.702
 6279WAT     H219080   7.744   5.350   6.685
 6280WAT      O19081   8.461   5.013   6.216
 6280WAT     H119082   8.462   4.913   6.216
 6280WAT     H219083   8.371   5.046   6.244
 6281WAT      O19084   1.011   6.263   0.910
 6281WAT     H119085   1.003   6.296   0.816
 6281WAT     H219086   1.076   6.320   0.960
 6282WAT      O19087   9.363   9.385   2.552
 6282WAT     H119088   9.336   9.365   2.458
 6282WAT     H219089   9.461   9.374   2.563
 6283WAT      O19090   8.348   3.925   2.835
 6283WAT     H119091   8.323   4.012   2.878
 6283WAT     H219092   8.438   3.935   2.792
 6284WAT      O19093   5.418   4.446   2.113
 6284WAT     H119094   5.475   4.528   2.103
 6284WAT     H219095   5.414   4.397   2.025
 6285WAT      O19096   5.694   6.225   5.732
 6285WAT     H119097   5.697   6.130   5.702
 6285WAT     H219098   5.599   6.256   5.735
 6286WAT      O19099   8.760   9.359   9.399
 6286WAT     H119100   8.686   9.421   9.423
 6286WAT     H219101   8.841   9.381   9.455
 6287WAT      O19102   3.833   5.723   3.431
 6287WAT     H119103   3.865   5.645   3.484
 6287WAT     H219104   3.821   5.696   3.335
 6288WAT      O19105   1.385   2.567   9.370
 6288WAT     H119106   1.344   2.518   9.293
 6288WAT     H219107   1.470   2.611   9.340
 6289WAT      O19108   0.595   5.262   9.577
 6289WAT     H119109   0.567   5.246   9.483
 6289WAT     H219110   0.518   5.300   9.629
 6290WAT      O19111   3.902   0.570   5.600
 6290WAT     H119112   3.816   0.567   5.549
 6290WAT     H219113   3.977   0.542   5.540
 6291WAT      O19114   6.661   7.974   0.415
 6291WAT     H119115   6.717   8.052   0.442
 6291WAT     H219116   6.625   7.989   0.323
 6292WAT      O19117   7.400   0.128   1.602
 6292WAT     H119118   7.401   0.189   1.523
 6292WAT     H219119   7.486   0.136   1.652
 6293WAT      O19120   8.202   1.798   4.869
 6293WAT     H119121   8.243   1.822   4.958
 6293WAT     H219122   8.251   1.721   4.829
 6294WAT      O19123   0.941   7.108   2.868
 6294WAT     H119124   0.929   7.011   2.890
 6294WAT     H219125   1.039   7.128   2.861
 6295WAT      O19126   2.004   5.304   6.361
 6295WAT     H119127   2.063   5.224   6.365
 6295WAT     H219128   1.911   5.278   6.387
 6296WAT      O19129   4.257   9.673   0.616
 6296WAT     H119130   4.176   9.688   0.559
 6296WAT     H219131   4.228   9.640   0.706
 6297WAT      O19132   3.283   0.864   9.099
 6297WAT     H119133   3.264   0.770   9.072
 6297WAT     H219134   3.371   0.893   9.061
 6298WAT      O19135   8.735   2.688   5.733
 6298WAT     H119136   8.657   2.735   5.774
 6298WAT     H219137   8.775   2.625   5.799
 6299WAT      O19138   3.797   1.920   2.206
 6299WAT     H119139   3.785   1.998   2.145
 6299WAT     H219140   3.887   1.879   2.190
 6300WAT      O19141   0.025   2.457   4.644
 6300WAT     H119142   0.085   2.533   4.668
 6300WAT     H219143  -0.057   2.459   4.702
 6301WAT      O19144   5.036   0.235   9.059
 6301WAT     H119145   4.987   0.239   9.146
 6301WAT     H219146   5.009   0.152   9.010
 6302WAT      O19147   2.206   5.653   4.879
 6302WAT     H119148   2.136   5.698   4.935
 6302WAT     H219149   2.293   5.657   4.926
 6303WAT      O19150   2.603   0.899   0.723
 6303WAT     H119151   2.633   0.868   0.814
 6303WAT     H219152   2.538   0.975   0.734
 6304WAT      O19153   1.347   0.970   1.985
 6304WAT     H119154   1.387   1.018   1.907
 6304WAT     H219155   1.292   0.893   1.952
 6305WAT      O19156   1.517   6.789   4.423
 6305WAT     H119157   1.581   6.809   4.349
 6305WAT     H219158   1.432   6.841   4.409
 6306WAT      O19159   6.599   7.737   4.046
 6306WAT     H119160   6.528   7.794   4.087
 6306WAT     H219161   6.558   7.653   4.010
 6307WAT      O19162   1.908   9.784   6.595
 6307WAT     H119163   1.898   9.878   6.626
 6307WAT     H219164   1.949   9.783   6.504
 6308WAT      O19165   6.131   0.108   5.407
 6308WAT     H119166   6.119   0.077   5.502
 6308WAT     H219167   6.162   0.203   5.407
 6309WAT      O19168   5.447   7.345   3.056
 6309WAT     H119169   5.502   7.280   3.004
 6309WAT     H219170   5.495   7.370   3.140
 6310WAT      O19171   7.562   1.807   8.685
 6310WAT     H119172   7.561   1.745   8.763
 6310WAT     H219173   7.636   1.783   8.623
 6311WAT      O19174   0.899   2.327   5.121
 6311WAT     H119175   0.889   2.253   5.188
 6311WAT     H219176   0.988   2.319   5.075
 6312WAT      O19177   5.531   5.869   1.523
 6312WAT     H119178   5.586   5.860   1.441
 6312WAT     H219179   5.434   5.860   1.500
 6313WAT      O19180   8.942   1.406   6.191
 6313WAT     H119181   8.982   1.319   6.160
 6313WAT     H219182   8.980   1.481   6.137
 6314WAT      O19183   1.211   7.370   3.691
 6314WAT     H119184   1.305   7.341   3.706
 6314WAT     H219185   1.201   7.467   3.713
 6315WAT      O19186   4.384   0.944   8.710
 6315WAT     H119187   4.424   0.892   8.786
 6315WAT     H219188   4.295   0.903   8.686
 6316WAT      O19189   3.688   8.389   7.049
 6316WAT     H119190   3.588   8.393   7.044
 6316WAT     H219191   3.727   8.445   6.975
 6317WAT      O19192   1.619   8.071   1.483
 6317WAT     H119193   1.531   8.096   1.444
 6317WAT     H219194   1.680   8.151   1.482
 6318WAT      O19195   3.262   7.417   4.468
 6318WAT     H119196   3.258   7.479   4.547
 6318WAT     H219197   3.351   7.373   4.464
 6319WAT      O19198   2.346   0.041   5.699
 6319WAT     H119199   2.310   0.032   5.606
 6319WAT     H219200   2.410  -0.033   5.716
 6320WAT      O19201   6.554   0.486   8.798
 6320WAT     H119202   6.471   0.516   8.750
 6320WAT     H219203   6.535   0.401   8.846
 6321WAT      O19204   6.464   8.102   4.426
 6321WAT     H119205   6.408   8.078   4.347
 6321WAT     H219206   6.406   8.106   4.508
 6322WAT      O19207   7.611   2.758   9.009
 6322WAT     H119208   7.588   2.677   9.064
 6322WAT     H219209   7.710   2.764   8.999
 6323WAT      O19210   7.351   3.955   6.042
 6323WAT     H119211   7.254   3.930   6.038
 6323WAT     H219212   7.360   4.053   6.021
 6324WAT      O19213   1.365   2.959   6.576
 6324WAT     H119214   1.410   3.048   6.588
 6324WAT     H219215   1.424   2.887   6.613
 6325WAT      O19216   1.009   0.989   4.168
 6325WAT     H119217   1.017   1.060   4.238
 6325WAT     H219218   1.095   0.937   4.162
 6326WAT      O19219   2.546   0.508   9.502
 6326WAT     H119220   2.575   0.417   9.473
 6326WAT     H219221   2.506   0.503   9.594
 6327WAT      O19222   7.703   2.102   8.324
 6327WAT     H119223   7.618   2.061   8.355
 6327WAT     H219224   7.718   2.080   8.227
 6328WAT      O19225   8.813   0.005   0.163
 6328WAT     H119226   8.782   0.093   0.200
 6328WAT     H219227   8.911  -0.006   0.182
 6329WAT      O19228   1.530   7.140   5.203
 6329WAT     H119229   1.434   7.155   5.223
 6329WAT     H219230   1.538   7.076   5.126
 6330WAT      O19231   1.741   5.408   8.992
 6330WAT     H119232   1.790   5.353   9.059
 6330WAT     H219233   1.806   5.455   8.933
 6331WAT      O19234   7.166   3.536   9.672
 6331WAT     H119235   7.138   3.465   9.737
 6331WAT     H219236   7.102   3.613   9.677
 6332WAT      O19237   3.781   1.525   0.720
 6332WAT     H119238   3.843   1.476   0.659
 6332WAT     H219239   3.689   1.527   0.680
 6333WAT      O19240   7.218   8.673   1.933
 6333WAT     H119241   7.268   8.648   1.850
 6333WAT     H219242   7.129   8.713   1.908
 6334WAT      O19243   1.883   3.273   1.322
 6334WAT     H119244   1.955   3.238   1.382
 6334WAT     H219245   1.797   3.280   1.374
 6335WAT      O19246   3.524   6.092   3.172
 6335WAT     H119247   3.428   6.103   3.146
 6335WAT     H219248   3.537   6.001   3.211
 6336WAT      O19249   2.111   3.572   5.638
 6336WAT     H119250   2.078   3.484   5.605
 6336WAT     H219251   2.203   3.588   5.604
 6337WAT      O19252   6.233   6.448   0.022
 6337WAT     H119253   6.185   6.411   0.102
 6337WAT     H219254   6.263   6.373  -0.036
 6338WAT      O19255   9.323   8.470   8.842
 6338WAT     H119256   9.410   8.474   8.792
 6338WAT     H219257   9.279   8.382   8.825
 6339WAT      O19258   4.147   3.315   7.242
 6339WAT     H119259   4.048   3.310   7.226
 6339WAT     H219260   4.195   3.307   7.155
 6340WAT      O19261   5.623   2.775   1.688
 6340WAT     H119262   5.718   2.803   1.677
 6340WAT     H219263   5.569   2.853   1.721
 6341WAT      O19264   6.190   6.885   4.069
 6341WAT     H119265   6.263   6.850   4.128
 6341WAT     H219266   6.225   6.960   4.013
 6342WAT      O19267   2.743   4.617   0.823
 6342WAT     H119268   2.681   4.617   0.902
 6342WAT     H219269   2.837   4.610   0.855
 6343WAT      O19270   6.965   9.202   1.331
 6343WAT     H119271   7.037   9.149   1.287
 6343WAT     H219272   6.999   9.294   1.350
 6344WAT      O19273   2.790   1.879   9.464
 6344WAT     H119274   2.805   1.944   9.389
 6344WAT     H219275   2.692   1.864   9.475
 6345WAT      O19276   8.706   3.407   5.531
 6345WAT     H119277   8.724   3.474   5.459
 6345WAT     H219278   8.731   3.316   5.498
 6346WAT      O19279   4.564   3.356   7.763
 6346WAT     H119280   4.553   3.287   7.692
 6346WAT     H219281   4.588   3.312   7.849
 6347WAT      O19282   3.641   0.817   8.003
 6347WAT     H119283   3.610   0.871   7.925
 6347WAT     H219284   3.738   0.836   8.020
 6348WAT      O19285   7.082   8.561   6.785
 6348WAT     H119286   7.112   8.472   6.820
 6348WAT     H219287   7.070   8.624   6.861
 6349WAT      O19288   1.361   1.848   3.425
 6349WAT     H119289   1.355   1.918   3.354
 6349WAT     H219290   1.379   1.891   3.513
 6350WAT      O19291   3.649   6.763   6.385
 6350WAT     H119292   3.663   6.729   6.478
 6350WAT     H219293   3.561   6.731   6.351
 6351WAT      O19294   6.469   6.866   2.358
 6351WAT     H119295   6.524   6.941   2.320
 6351WAT     H219296   6.415   6.899   2.435
 6352WAT      O19297   8.164   3.029   1.375
 6352WAT     H119298   8.065   3.016   1.378
 6352WAT     H219299   8.201   3.020   1.467
 6353WAT      O19300   0.906   9.831   1.401
 6353WAT     H119301   0.931   9.928   1.403
 6353WAT     H219302   0.838   9.816   1.328
 6354WAT      O19303   0.062   8.386   7.648
 6354WAT     H119304   0.123   8.453   7.690
 6354WAT     H219305   0.115   8.304   7.624
 6355WAT      O19306   1.944   4.033   4.818
 6355WAT     H119307   1.869   4.020   4.882
 6355WAT     H219308   1.932   3.973   4.739
 6356WAT      O19309   6.637   4.883   3.646
 6356WAT     H119310   6.634   4.983   3.653
 6356WAT     H219311   6.545   4.848   3.631
 6357WAT      O19312   7.066   5.421   9.500
 6357WAT     H119313   7.125   5.358   9.451
 6357WAT     H219314   7.000   5.369   9.555
 6358WAT      O19315   8.224   0.792   6.691
 6358WAT     H119316   8.313   0.753   6.712
 6358WAT     H219317   8.226   0.836   6.601
 6359WAT      O19318   5.683   4.109   3.875
 6359WAT     H119319   5.729   4.142   3.793
 6359WAT     H219320   5.592   4.150   3.881
 6360WAT      O19321   7.042   6.479   3.032
 6360WAT     H119322   7.073   6.407   3.094
 6360WAT     H219323   7.070   6.458   2.939
 6361WAT      O19324   7.677   3.377   2.997
 6361WAT     H119325   7.616   3.304   2.966
 6361WAT     H219326   7.639   3.465   2.971
 6362WAT      O19327   6.580   0.598   6.820
 6362WAT     H119328   6.637   0.630   6.896
 6362WAT     H219329   6.582   0.498   6.816
 6363WAT      O19330   9.462   6.247   8.825
 6363WAT     H119331   9.389   6.264   8.891
 6363WAT     H219332   9.541   6.304   8.847
 6364WAT      O19333   1.735   3.821   6.630
 6364WAT     H119334   1.678   3.755   6.581
 6364WAT     H219335   1.684   3.907   6.640
 6365WAT      O19336   7.199   7.872   6.238
 6365WAT     H119337   7.267   7.862   6.165
 6365WAT     H219338   7.228   7.947   6.299
 6366WAT      O19339   5.154   0.482   8.205
 6366WAT     H119340   5.085   0.542   8.164
 6366WAT     H219341   5.195   0.528   8.284
 6367WAT      O19342   4.229   9.273   6.782
 6367WAT     H119343   4.131   9.253   6.787
 6367WAT     H219344   4.248   9.324   6.698
 6368WAT      O19345   3.179   2.999   1.561
 6368WAT     H119346   3.245   3.073   1.571
 6368WAT     H219347   3.106   3.027   1.499
 6369WAT      O19348   7.185   0.362   0.650
 6369WAT     H119349   7.268   0.315   0.620
 6369WAT     H219350   7.169   0.343   0.747
 6370WAT      O19351   8.385   3.955   7.613
 6370WAT     H119352   8.398   3.871   7.560
 6370WAT     H219353   8.332   4.020   7.559
 6371WAT      O19354   5.104   1.364   2.716
 6371WAT     H119355   5.019   1.328   2.753
 6371WAT     H219356   5.090   1.392   2.621
 6372WAT      O19357   5.529   0.176   6.667
 6372WAT     H119358   5.439   0.149   6.699
 6372WAT     H219359   5.530   0.180   6.567
 6373WAT      O19360   8.797   4.072   8.810
 6373WAT     H119361   8.708   4.024   8.812
 6373WAT     H219362   8.869   4.006   8.789
 6374WAT      O19363   4.840   5.854   6.817
 6374WAT     H119364   4.803   5.936   6.774
 6374WAT     H219365   4.832   5.862   6.916
 6375WAT      O19366   3.238   6.521   3.908
 6375WAT     H119367   3.334   6.549   3.913
 6375WAT     H219368   3.217   6.459   3.984
 6376WAT      O19369   0.833   5.969   0.436
 6376WAT     H119370   0.905   5.922   0.386
 6376WAT     H219371   0.856   5.973   0.533
 6377WAT      O19372   0.909   7.017   3.470
 6377WAT     H119373   0.926   7.114   3.451
 6377WAT     H219374   0.989   6.977   3.515
 6378WAT      O19375   6.155   4.195   3.298
 6378WAT     H119376   6.094   4.132   3.347
 6378WAT     H219377   6.105   4.279   3.276
 6379WAT      O19378   7.301   9.231   8.244
 6379WAT     H119379   7.221   9.257   8.189
 6379WAT     H219380   7.272   9.214   8.339
 6380WAT      O19381   1.086   2.826   0.644
 6380WAT     H119382   1.178   2.803   0.611
 6380WAT     H219383   1.047   2.896   0.585
 6381WAT      O19384   4.798   3.023   7.950
 6381WAT     H119385   4.832   3.110   7.915
 6381WAT     H219386   4.698   3.028   7.961
 6382WAT      O19387   8.581   6.324   1.140
 6382WAT     H119388   8.506   6.345   1.202
 6382WAT     H219389   8.668   6.339   1.186
 6383WAT      O19390   0.790   4.484   1.722
 6383WAT     H119391   0.812   4.545   1.646
 6383WAT     H219392   0.766   4.394   1.686
 6384WAT      O19393   9.171   7.709   6.873
 6384WAT     H119394   9.128   7.715   6.783
 6384WAT     H219395   9.236   7.633   6.874
 6385WAT      O19396   9.418   5.276   2.794
 6385WAT     H119397   9.486   5.348   2.778
 6385WAT     H219398   9.464   5.187   2.796
 6386WAT      O19399   9.564   6.253   9.828
 6386WAT     H119400   9.660   6.268   9.855
 6386WAT     H219401   9.561   6.191   9.749
 6387WAT      O19402   5.157   6.871   8.301
 6387WAT     H119403   5.226   6.871   8.374
 6387WAT     H219404   5.173   6.793   8.240
 6388WAT      O19405   7.994   0.380   8.931
 6388WAT     H119406   7.999   0.480   8.923
 6388WAT     H219407   7.968   0.356   9.025
 6389WAT      O19408   9.619   1.398   9.690
 6389WAT     H119409   9.630   1.300   9.679
 6389WAT     H219410   9.576   1.436   9.608
 6390WAT      O19411   2.627   0.355   1.280
 6390WAT     H119412   2.710   0.411   1.290
 6390WAT     H219413   2.625   0.314   1.189
 6391WAT      O19414   7.984   2.206   8.640
 6391WAT     H119415   8.022   2.146   8.570
 6391WAT     H219416   7.927   2.276   8.596
 6392WAT      O19417   6.481   4.544   7.002
 6392WAT     H119418   6.402   4.604   7.017
 6392WAT     H219419   6.459   4.453   7.037
 6393WAT      O19420   2.635   9.606   2.281
 6393WAT     H119421   2.561   9.540   2.288
 6393WAT     H219422   2.646   9.653   2.369
 6394WAT      O19423   3.378   4.969   3.942
 6394WAT     H119424   3.342   4.910   4.014
 6394WAT     H219425   3.327   4.955   3.858
 6395WAT      O19426   8.914   5.704   6.895
 6395WAT     H119427   8.825   5.674   6.859
 6395WAT     H219428   8.985   5.687   6.826
 6396WAT      O19429   1.863   8.655   7.198
 6396WAT     H119430   1.868   8.722   7.124
 6396WAT     H219431   1.792   8.588   7.177
 6397WAT      O19432   9.043   7.642   0.730
 6397WAT     H119433   8.995   7.667   0.646
 6397WAT     H219434   9.130   7.691   0.734
 6398WAT      O19435   4.139   8.383   1.595
 6398WAT     H119436   4.201   8.420   1.663
 6398WAT     H219437   4.072   8.323   1.639
 6399WAT      O19438   5.994   6.439   7.183
 6399WAT     H119439   5.894   6.442   7.178
 6399WAT     H219440   6.024   6.345   7.196
 6400WAT      O19441   6.379   4.695   6.513
 6400WAT     H119442   6.330   4.756   6.450
 6400WAT     H219443   6.458   4.655   6.466
 6401WAT      O19444   1.171   1.041   7.849
 6401WAT     H119445   1.151   1.136   7.828
 6401WAT     H219446   1.085   0.993   7.870
 6402WAT      O19447   8.648   1.202   3.382
 6402WAT     H119448   8.640   1.174   3.478
 6402WAT     H219449   8.558   1.205   3.340
 6403WAT      O19450   3.709   4.532   4.223
 6403WAT     H119451   3.654   4.449   4.225
 6403WAT     H219452   3.650   4.612   4.219
 6404WAT      O19453   2.330   7.194   3.962
 6404WAT     H119454   2.378   7.238   3.887
 6404WAT     H219455   2.246   7.151   3.928
 6405WAT      O19456   6.514   3.383   4.068
 6405WAT     H119457   6.453   3.324   4.015
 6405WAT     H219458   6.491   3.479   4.051
 6406WAT      O19459   9.618   9.013   3.201
 6406WAT     H119460   9.699   9.067   3.224
 6406WAT     H219461   9.621   8.989   3.103
 6407WAT      O19462   7.602   8.145   1.964
 6407WAT     H119463   7.669   8.138   2.038
 6407WAT     H219464   7.604   8.237   1.926
 6408WAT      O19465   8.770   7.114   2.613
 6408WAT     H119466   8.691   7.053   2.622
 6408WAT     H219467   8.773   7.177   2.691
 6409WAT      O19468   7.039   4.347   1.323
 6409WAT     H119469   6.948   4.344   1.365
 6409WAT     H219470   7.033   4.312   1.230
 6410WAT      O19471   6.140   5.462   1.760
 6410WAT     H119472   6.103   5.490   1.849
 6410WAT     H219473   6.126   5.364   1.747
 6411WAT      O19474   7.591   2.904   4.128
 6411WAT     H119475   7.690   2.905   4.142
 6411WAT     H219476   7.572   2.903   4.029
 6412WAT      O19477   2.154   7.787   3.024
 6412WAT     H119478   2.190   7.736   3.102
 6412WAT     H219479   2.168   7.885   3.039
 6413WAT      O19480   6.849   4.427   2.211
 6413WAT     H119481   6.914   4.503   2.215
 6413WAT     H219482   6.826   4.398   2.304
 6414WAT      O19483   5.503   7.053   2.731
 6414WAT     H119484   5.527   6.956   2.734
 6414WAT     H219485   5.454   7.077   2.815
 6415WAT      O19486   4.635   1.523   3.869
 6415WAT     H119487   4.644   1.547   3.966
 6415WAT     H219488   4.724   1.493   3.835
 6416WAT      O19489   6.486   6.274   3.363
 6416WAT     H119490   6.510   6.185   3.402
 6416WAT     H219491   6.554   6.342   3.392
 6417WAT      O19492   3.510   5.059   9.715
 6417WAT     H119493   3.609   5.041   9.713
 6417WAT     H219494   3.460   4.973   9.708
 6418WAT      O19495   1.120   1.955   4.367
 6418WAT     H119496   1.036   1.987   4.325
 6418WAT     H219497   1.103   1.929   4.462
 6419WAT      O19498   1.756   4.130   0.511
 6419WAT     H119499   1.692   4.149   0.437
 6419WAT     H219500   1.752   4.202   0.579
 6420WAT      O19501   9.223   8.402   6.315
 6420WAT     H119502   9.254   8.390   6.221
 6420WAT     H219503   9.256   8.325   6.370
 6421WAT      O19504   1.074   4.732   8.385
 6421WAT     H119505   0.974   4.738   8.380
 6421WAT     H219506   1.103   4.646   8.343
 6422WAT      O19507   3.113   6.198   1.951
 6422WAT     H119508   3.170   6.121   1.978
 6422WAT     H219509   3.155   6.283   1.982
 6423WAT      O19510   6.171   7.675   4.106
 6423WAT     H119511   6.260   7.718   4.117
 6423WAT     H219512   6.174   7.582   4.142
 6424WAT      O19513   4.170   7.218   8.089
 6424WAT     H119514   4.182   7.316   8.074
 6424WAT     H219515   4.199   7.167   8.008
 6425WAT      O19516   7.817   0.284   9.636
 6425WAT     H119517   7.868   0.200   9.655
 6425WAT     H219518   7.762   0.308   9.716
 6426WAT      O19519   2.040   5.858   2.453
 6426WAT     H119520   2.006   5.868   2.547
 6426WAT     H219521   1.963   5.846   2.391
 6427WAT      O19522   5.866   7.244   5.528
 6427WAT     H119523   5.888   7.334   5.565
 6427WAT     H219524   5.895   7.174   5.593
 6428WAT      O19525   8.144   7.518   1.316
 6428WAT     H119526   8.168   7.571   1.235
 6428WAT     H219527   8.053   7.478   1.304
 6429WAT      O19528   0.893   3.211   9.303
 6429WAT     H119529   0.823   3.267   9.348
 6429WAT     H219530   0.982   3.230   9.345
 6430WAT      O19531   9.534   9.674   8.705
 6430WAT     H119532   9.562   9.715   8.792
 6430WAT     H219533   9.479   9.592   8.723
 6431WAT      O19534   7.076   6.265   8.465
 6431WAT     H119535   7.158   6.208   8.466
 6431WAT     H219536   7.045   6.278   8.371
 6432WAT      O19537   3.865   0.013   0.710
 6432WAT     H119538   3.931   0.054   0.773
 6432WAT     H219539   3.853  -0.084   0.732
 6433WAT      O19540   7.548   1.732   2.352
 6433WAT     H119541   7.498   1.725   2.438
 6433WAT     H219542   7.601   1.817   2.351
 6434WAT      O19543   1.071   5.918   8.606
 6434WAT     H119544   1.059   5.834   8.554
 6434WAT     H219545   1.169   5.932   8.624
 6435WAT      O19546   7.558   3.906   2.481
 6435WAT     H119547   7.491   3.936   2.549
 6435WAT     H219548   7.597   3.818   2.509
 6436WAT      O19549   1.132   7.823   0.222
 6436WAT     H119550   1.212   7.818   0.282
 6436WAT     H219551   1.087   7.912   0.234
 6437WAT      O19552   8.257   5.724   2.106
 6437WAT     H119553   8.206   5.641   2.130
 6437WAT     H219554   8.255   5.737   2.007
 6438WAT      O19555   6.967   0.480   5.140
 6438WAT     H119556   6.948   0.402   5.080
 6438WAT     H219557   6.882   0.528   5.160
 6439WAT      O19558   6.096   8.178   4.176
 6439WAT     H119559   6.022   8.153   4.113
 6439WAT     H219560   6.113   8.277   4.170
 6440WAT      O19561   4.680   2.001   2.570
 6440WAT     H119562   4.633   2.011   2.658
 6440WAT     H219563   4.720   2.089   2.544
 6441WAT      O19564   8.903   0.084   3.917
 6441WAT     H119565   8.818   0.031   3.916
 6441WAT     H219566   8.913   0.130   4.005
 6442WAT      O19567   5.104   1.680   5.503
 6442WAT     H119568   5.189   1.626   5.502
 6442WAT     H219569   5.100   1.734   5.586
 6443WAT      O19570   3.764   2.189   2.089
 6443WAT     H119571   3.743   2.238   2.174
 6443WAT     H219572   3.770   2.255   2.014
 6444WAT      O19573   3.067   7.670   7.824
 6444WAT     H119574   3.102   7.613   7.750
 6444WAT     H219575   3.026   7.753   7.787
 6445WAT      O19576   0.065   1.864   2.154
 6445WAT     H119577   0.044   1.962   2.148
 6445WAT     H219578   0.141   1.843   2.093
 6446WAT      O19579   6.865   6.135   2.857
 6446WAT     H119580   6.801   6.194   2.906
 6446WAT     H219581   6.948   6.187   2.836
 6447WAT      O19582   4.363   1.880   5.606
 6447WAT     H119583   4.421   1.902   5.685
 6447WAT     H219584   4.304   1.958   5.586
 6448WAT      O19585   5.840   7.380   7.660
 6448WAT     H119586   5.839   7.480   7.661
 6448WAT     H219587   5.750   7.345   7.685
 6449WAT      O19588   8.629   9.786   5.674
 6449WAT     H119589   8.695   9.830   5.613
 6449WAT     H219590   8.576   9.718   5.623
 6450WAT      O19591   6.005   1.159   3.684
 6450WAT     H119592   5.982   1.209   3.600
 6450WAT     H219593   5.981   1.214   3.764
 6451WAT      O19594   4.178   0.163   1.194
 6451WAT     H119595   4.161   0.261   1.193
 6451WAT     H219596   4.265   0.144   1.147
 6452WAT      O19597   0.445   8.304   5.455
 6452WAT     H119598   0.371   8.337   5.513
 6452WAT     H219599   0.532   8.344   5.484
 6453WAT      O19600   1.055   2.278   4.522
 6453WAT     H119601   1.090   2.263   4.615
 6453WAT     H219602   0.994   2.203   4.497
 6454WAT      O19603   9.247   7.534   2.158
 6454WAT     H119604   9.306   7.614   2.155
 6454WAT     H219605   9.300   7.452   2.135
 6455WAT      O19606   8.461   2.484   0.149
 6455WAT     H119607   8.443   2.582   0.149
 6455WAT     H219608   8.559   2.467   0.157
 6456WAT      O19609   2.204   8.550   2.380
 6456WAT     H119610   2.168   8.553   2.286
 6456WAT     H219611   2.186   8.461   2.419
 6457WAT      O19612   4.322   7.012   6.072
 6457WAT     H119613   4.383   6.947   6.118
 6457WAT     H219614   4.253   6.962   6.021
 6458WAT      O19615   0.058   7.412   2.113
 6458WAT     H119616   0.130   7.479   2.097
 6458WAT     H219617   0.096   7.332   2.161
 6459WAT      O19618   3.884   3.855   9.545
 6459WAT     H119619   3.791   3.887   9.557
 6459WAT     H219620   3.905   3.785   9.613
 6460WAT      O19621   1.687   4.579   8.289
 6460WAT     H119622   1.703   4.490   8.332
 6460WAT     H219623   1.641   4.567   8.201
 6461WAT      O19624   3.493   1.764   8.547
 6461WAT     H119625   3.544   1.849   8.557
 6461WAT     H219626   3.487   1.740   8.450
 6462WAT      O19627   5.059   9.375   8.474
 6462WAT     H119628   4.983   9.364   8.411
 6462WAT     H219629   5.024   9.380   8.568
 6463WAT      O19630   9.257   1.565   1.384
 6463WAT     H119631   9.247   1.638   1.317
 6463WAT     H219632   9.221   1.596   1.472
 6464WAT      O19633   7.166   6.759   7.741
 6464WAT     H119634   7.095   6.692   7.718
 6464WAT     H219635   7.143   6.847   7.699
 6465WAT      O19636   2.935   6.904   7.437
 6465WAT     H119637   3.000   6.867   7.502
 6465WAT     H219638   2.917   7.001   7.458
 6466WAT      O19639   1.795   0.400   7.196
 6466WAT     H119640   1.864   0.454   7.245
 6466WAT     H219641   1.714   0.457   7.180
 6467WAT      O19642   4.612   5.948   9.376
 6467WAT     H119643   4.699   5.898   9.375
 6467WAT     H219644   4.630   6.046   9.382
 6468WAT      O19645   2.218   5.650   2.465
 6468WAT     H119646   2.173   5.737   2.446
 6468WAT     H219647   2.153   5.587   2.507
 6469WAT      O19648   1.715   5.522   8.574
 6469WAT     H119649   1.624   5.490   8.600
 6469WAT     H219650   1.729   5.615   8.607
 6470WAT      O19651   6.751   4.132   4.997
 6470WAT     H119652   6.794   4.163   4.912
 6470WAT     H219653   6.725   4.212   5.052
 6471WAT      O19654   3.174   3.258   2.785
 6471WAT     H119655   3.172   3.358   2.797
 6471WAT     H219656   3.109   3.232   2.714
 6472WAT      O19657   4.678   2.847   1.922
 6472WAT     H119658   4.688   2.947   1.927
 6472WAT     H219659   4.626   2.814   2.000
 6473WAT      O19660   1.727   5.469   2.676
 6473WAT     H119661   1.645   5.438   2.628
 6473WAT     H219662   1.720   5.446   2.773
 6474WAT      O19663   9.480   5.274   7.974
 6474WAT     H119664   9.415   5.223   7.917
 6474WAT     H219665   9.430   5.336   8.034
 6475WAT      O19666   6.185   5.733   4.827
 6475WAT     H119667   6.120   5.780   4.887
 6475WAT     H219668   6.235   5.800   4.773
 6476WAT      O19669   5.158   1.203   9.265
 6476WAT     H119670   5.072   1.182   9.218
 6476WAT     H219671   5.142   1.272   9.335
 6477WAT      O19672   0.324   4.602   6.378
 6477WAT     H119673   0.259   4.662   6.425
 6477WAT     H219674   0.373   4.547   6.445
 6478WAT      O19675   5.782   0.824   4.014
 6478WAT     H119676   5.689   0.853   4.036
 6478WAT     H219677   5.790   0.725   4.025
 6479WAT      O19678   8.605   7.287   1.738
 6479WAT     H119679   8.541   7.272   1.813
 6479WAT     H219680   8.555   7.294   1.652
 6480WAT      O19681   8.141   3.208   2.398
 6480WAT     H119682   8.192   3.283   2.440
 6480WAT     H219683   8.085   3.243   2.323
 6481WAT      O19684   2.684   6.243   6.489
 6481WAT     H119685   2.730   6.313   6.543
 6481WAT     H219686   2.642   6.285   6.409
 6482WAT      O19687   4.889   2.890   0.518
 6482WAT     H119688   4.828   2.955   0.564
 6482WAT     H219689   4.844   2.801   0.512
 6483WAT      O19690   3.143   6.793   5.662
 6483WAT     H119691   3.176   6.883   5.633
 6483WAT     H219692   3.064   6.805   5.722
 6484WAT      O19693   7.347   1.149   5.208
 6484WAT     H119694   7.354   1.178   5.303
 6484WAT     H219695   7.394   1.061   5.195
 6485WAT      O19696   0.339   1.444   5.581
 6485WAT     H119697   0.331   1.380   5.657
 6485WAT     H219698   0.327   1.395   5.494
 6486WAT      O19699   9.668   1.051   5.785
 6486WAT     H119700   9.650   0.998   5.868
 6486WAT     H219701   9.732   1.125   5.807
 6487WAT      O19702   1.351   8.630   5.684
 6487WAT     H119703   1.346   8.694   5.761
 6487WAT     H219704   1.319   8.676   5.601
 6488WAT      O19705   3.703   3.286   9.403
 6488WAT     H119706   3.790   3.249   9.371
 6488WAT     H219707   3.633   3.214   9.402
 6489WAT      O19708   5.511   5.553   4.610
 6489WAT     H119709   5.434   5.498   4.579
 6489WAT     H219710   5.569   5.576   4.532
 6490WAT      O19711   6.182   3.655   0.444
 6490WAT     H119712   6.229   3.734   0.483
 6490WAT     H219713   6.239   3.613   0.373
 6491WAT      O19714   5.425   1.757   6.933
 6491WAT     H119715   5.362   1.772   6.857
 6491WAT     H219716   5.417   1.662   6.964
 6492WAT      O19717   7.549   7.018   2.977
 6492WAT     H119718   7.593   6.954   2.914
 6492WAT     H219719   7.590   7.007   3.068
 6493WAT      O19720   9.047   3.381   0.054
 6493WAT     H119721   9.043   3.352  -0.042
 6493WAT     H219722   8.994   3.318   0.110
 6494WAT      O19723   1.017   3.391   7.814
 6494WAT     H119724   1.047   3.298   7.793
 6494WAT     H219725   1.096   3.447   7.837
 6495WAT      O19726   2.362   8.518   7.256
 6495WAT     H119727   2.431   8.545   7.190
 6495WAT     H219728   2.271   8.526   7.214
 6496WAT      O19729   6.920   6.443   0.555
 6496WAT     H119730   6.879   6.444   0.464
 6496WAT     H219731   6.858   6.396   0.618
 6497WAT      O19732   6.575   3.954   0.534
 6497WAT     H119733   6.591   4.010   0.615
 6497WAT     H219734   6.634   3.986   0.459
 6498WAT      O19735   9.345   0.702   1.777
 6498WAT     H119736   9.290   0.757   1.714
 6498WAT     H219737   9.363   0.756   1.860
 6499WAT      O19738   3.000   7.442   3.856
 6499WAT     H119739   2.954   7.430   3.768
 6499WAT     H219740   3.098   7.455   3.842
 6500WAT      O19741   4.952   3.273   6.937
 6500WAT     H119742   5.027   3.276   6.871
 6500WAT     H219743   4.932   3.366   6.969
 6501WAT      O19744   3.054   1.336   2.390
 6501WAT     H119745   3.111   1.418   2.376
 6501WAT     H219746   3.074   1.296   2.479
 6502WAT      O19747   1.493   3.940   8.119
 6502WAT     H119748   1.549   3.901   8.046
 6502WAT     H219749   1.417   3.991   8.079
 6503WAT      O19750   8.328   6.636   7.269
 6503WAT     H119751   8.252   6.602   7.214
 6503WAT     H219752   8.413   6.632   7.217
 6504WAT      O19753   3.847   0.208   3.279
 6504WAT     H119754   3.924   0.241   3.334
 6504WAT     H219755   3.762   0.244   3.316
 6505WAT      O19756   1.865   8.366   0.858
 6505WAT     H119757   1.857   8.453   0.809
 6505WAT     H219758   1.928   8.377   0.935
 6506WAT      O19759   8.761   3.593   9.164
 6506WAT     H119760   8.701   3.515   9.143
 6506WAT     H219761   8.851   3.559   9.191
 6507WAT      O19762   2.403   0.071   1.766
 6507WAT     H119763   2.489   0.094   1.720
 6507WAT     H219764   2.329   0.125   1.725
 6508WAT      O19765   2.029   8.346   5.211
 6508WAT     H119766   2.071   8.255   5.203
 6508WAT     H219767   1.938   8.344   5.170
 6509WAT      O19768   6.192   6.316   0.462
 6509WAT     H119769   6.269   6.255   0.482
 6509WAT     H219770   6.116   6.294   0.522
 6510WAT      O19771   0.002   0.776   3.895
 6510WAT     H119772   0.055   0.759   3.978
 6510WAT     H219773  -0.064   0.703   3.882
 6511WAT      O19774   0.039   1.914   1.532
 6511WAT     H119775   0.104   1.985   1.504
 6511WAT     H219776   0.025   1.850   1.457
 6512WAT      O19777   3.332   5.819   9.020
 6512WAT     H119778   3.268   5.749   8.988
 6512WAT     H219779   3.363   5.874   8.942
 6513WAT      O19780   5.968   0.923   9.661
 6513WAT     H119781   5.886   0.872   9.685
 6513WAT     H219782   6.006   0.965   9.744
 6514WAT      O19783   4.452   9.159   9.120
 6514WAT     H119784   4.528   9.115   9.166
 6514WAT     H219785   4.483   9.243   9.075
 6515WAT      O19786   6.115   1.860   4.408
 6515WAT     H119787   6.107   1.898   4.501
 6515WAT     H219788   6.044   1.900   4.350
 6516WAT      O19789   8.669   6.836   2.960
 6516WAT     H119790   8.646   6.874   2.871
 6516WAT     H219791   8.704   6.743   2.950
 6517WAT      O19792   0.717   3.320   2.063
 6517WAT     H119793   0.619   3.339   2.078
 6517WAT     H219794   0.749   3.371   1.983
 6518WAT      O19795   5.281   1.483   5.517
 6518WAT     H119796   5.218   1.417   5.477
 6518WAT     H219797   5.369   1.479   5.469
 6519WAT      O19798   3.689   3.139   5.564
 6519WAT     H119799   3.641   3.227   5.559
 6519WAT     H219800   3.652   3.076   5.496
 6520WAT      O19801   6.197   1.293   8.559
 6520WAT     H119802   6.224   1.284   8.655
 6520WAT     H219803   6.143   1.377   8.547
 6521WAT      O19804   6.391   2.290   2.373
 6521WAT     H119805   6.408   2.302   2.275
 6521WAT     H219806   6.465   2.333   2.425
 6522WAT      O19807   3.348   6.836   1.891
 6522WAT     H119808   3.399   6.794   1.816
 6522WAT     H219809   3.412   6.867   1.962
 6523WAT      O19810   6.240   0.282   5.166
 6523WAT     H119811   6.332   0.303   5.132
 6523WAT     H219812   6.179   0.263   5.089
 6524WAT      O19813   5.179   8.540   0.478
 6524WAT     H119814   5.088   8.527   0.439
 6524WAT     H219815   5.172   8.556   0.576
 6525WAT      O19816   2.498   2.085   7.467
 6525WAT     H119817   2.547   2.049   7.387
 6525WAT     H219818   2.547   2.058   7.550
 6526WAT      O19819   2.508   3.561   8.593
 6526WAT     H119820   2.577   3.617   8.640
 6526WAT     H219821   2.429   3.550   8.652
 6527WAT      O19822   4.726   1.353   0.216
 6527WAT     H119823   4.711   1.363   0.118
 6527WAT     H219824   4.640   1.329   0.261
 6528WAT      O19825   8.792   4.565   1.059
 6528WAT     H119826   8.793   4.630   1.135
 6528WAT     H219827   8.885   4.556   1.023
 6529WAT      O19828   1.919   4.962   1.814
 6529WAT     H119829   1.921   4.891   1.743
 6529WAT     H219830   1.942   5.050   1.773
 6530WAT      O19831   3.971   3.789   3.801
 6530WAT     H119832   3.874   3.792   3.824
 6530WAT     H219833   4.024   3.839   3.870
 6531WAT      O19834   7.776   5.127   7.322
 6531WAT     H119835   7.716   5.152   7.398
 6531WAT     H219836   7.746   5.039   7.284
 6532WAT      O19837   6.947   7.767   9.158
 6532WAT     H119838   7.011   7.720   9.219
 6532WAT     H219839   6.902   7.841   9.208
 6533WAT      O19840   5.671   5.519   6.323
 6533WAT     H119841   5.698   5.450   6.391
 6533WAT     H219842   5.643   5.473   6.238
 6534WAT      O19843   1.463   3.988   9.062
 6534WAT     H119844   1.371   3.971   9.098
 6534WAT     H219845   1.527   4.002   9.138
 6535WAT      O19846   5.242   2.644   4.965
 6535WAT     H119847   5.157   2.684   4.998
 6535WAT     H219848   5.281   2.702   4.894
 6536WAT      O19849   1.525   9.553   2.323
 6536WAT     H119850   1.467   9.572   2.244
 6536WAT     H219851   1.582   9.633   2.343
 6537WAT      O19852   5.932   9.096   5.986
 6537WAT     H119853   6.005   9.132   6.044
 6537WAT     H219854   5.856   9.161   5.985
 6538WAT      O19855   8.553   7.897   6.748
 6538WAT     H119856   8.572   7.863   6.655
 6538WAT     H219857   8.631   7.877   6.807
 6539WAT      O19858   4.368   6.811   3.005
 6539WAT     H119859   4.322   6.880   3.061
 6539WAT     H219860   4.458   6.845   2.978
 6540WAT      O19861   5.138   0.017   5.376
 6540WAT     H119862   5.112   0.031   5.472
 6540WAT     H219863   5.184   0.098   5.341
 6541WAT      O19864   0.296   8.650   1.541
 6541WAT     H119865   0.289   8.700   1.455
 6541WAT     H219866   0.371   8.584   1.535
 6542WAT      O19867   0.127   7.916   2.090
 6542WAT     H119868   0.092   7.960   2.172
 6542WAT     H219869   0.083   7.955   2.009
 6543WAT      O19870   1.708   6.383   7.675
 6543WAT     H119871   1.679   6.478   7.682
 6543WAT     H219872   1.657   6.327   7.741
 6544WAT      O19873   5.944   5.002   3.067
 6544WAT     H119874   5.895   4.915   3.067
 6544WAT     H219875   5.956   5.033   2.973
 6545WAT      O19876   3.218   8.155   1.451
 6545WAT     H119877   3.304   8.106   1.436
 6545WAT     H219878   3.207   8.225   1.380
 6546WAT      O19879   1.201   3.303   3.298
 6546WAT     H119880   1.260   3.357   3.238
 6546WAT     H219881   1.172   3.359   3.376
 6547WAT      O19882   8.262   3.425   2.508
 6547WAT     H119883   8.305   3.424   2.599
 6547WAT     H219884   8.314   3.485   2.447
 6548WAT      O19885   7.502   2.242   1.865
 6548WAT     H119886   7.438   2.189   1.920
 6548WAT     H219887   7.590   2.248   1.913
 6549WAT      O19888   8.420   9.661   0.921
 6549WAT     H119889   8.366   9.740   0.949
 6549WAT     H219890   8.468   9.682   0.836
 6550WAT      O19891   3.381   2.318   7.616
 6550WAT     H119892   3.461   2.377   7.623
 6550WAT     H219893   3.301   2.363   7.655
 6551WAT      O19894   4.249   5.206   0.574
 6551WAT     H119895   4.261   5.278   0.643
 6551WAT     H219896   4.257   5.116   0.618
 6552WAT      O19897   6.976   4.029   3.771
 6552WAT     H119898   6.888   4.063   3.741
 6552WAT     H219899   7.049   4.084   3.731
 6553WAT      O19900   9.213   4.835   3.386
 6553WAT     H119901   9.300   4.801   3.350
 6553WAT     H219902   9.231   4.891   3.467
 6554WAT      O19903   1.344   1.557   6.139
 6554WAT     H119904   1.367   1.654   6.129
 6554WAT     H219905   1.347   1.513   6.049
 6555WAT      O19906   1.890   0.823   7.246
 6555WAT     H119907   1.923   0.730   7.263
 6555WAT     H219908   1.807   0.840   7.300
 6556WAT      O19909   2.236   4.292   5.413
 6556WAT     H119910   2.249   4.193   5.419
 6556WAT     H219911   2.307   4.339   5.465
 6557WAT      O19912   8.686   0.934   0.638
 6557WAT     H119913   8.735   0.999   0.697
 6557WAT     H219914   8.664   0.852   0.691
 6558WAT      O19915   1.462   6.130   0.017
 6558WAT     H119916   1.401   6.169  -0.053
 6558WAT     H219917   1.411   6.116   0.102
 6559WAT      O19918   1.682   3.876   1.979
 6559WAT     H119919   1.630   3.794   2.002
 6559WAT     H219920   1.666   3.900   1.883
 6560WAT      O19921   3.518   9.125   4.734
 6560WAT     H119922   3.549   9.202   4.678
 6560WAT     H219923   3.446   9.075   4.685
 6561WAT      O19924   3.902   6.493   0.012
 6561WAT     H119925   3.937   6.579   0.049
 6561WAT     H219926   3.851   6.512  -0.072
 6562WAT      O19927   5.054   3.247   6.145
 6562WAT     H119928   5.004   3.328   6.114
 6562WAT     H219929   5.148   3.251   6.111
 6563WAT      O19930   8.609   7.520   5.555
 6563WAT     H119931   8.598   7.439   5.497
 6563WAT     H219932   8.686   7.507   5.618
 6564WAT      O19933   7.518   4.314   2.689
 6564WAT     H119934   7.468   4.386   2.640
 6564WAT     H219935   7.567   4.257   2.623
 6565WAT      O19936   1.048   1.147   0.220
 6565WAT     H119937   0.995   1.063   0.232
 6565WAT     H219938   1.002   1.222   0.269
 6566WAT      O19939   8.832   2.551   4.631
 6566WAT     H119940   8.778   2.498   4.565
 6566WAT     H219941   8.925   2.563   4.597
 6567WAT      O19942   4.033   4.322   9.107
 6567WAT     H119943   4.073   4.410   9.134
 6567WAT     H219944   4.096   4.275   9.045
 6568WAT      O19945   0.268   4.502   8.928
 6568WAT     H119946   0.198   4.431   8.920
 6568WAT     H219947   0.271   4.535   9.022
 6569WAT      O19948   6.750   5.358   3.770
 6569WAT     H119949   6.841   5.399   3.780
 6569WAT     H219950   6.690   5.423   3.724
 6570WAT      O19951   7.003   3.566   9.161
 6570WAT     H119952   7.007   3.468   9.140
 6570WAT     H219953   7.076   3.613   9.111
 6571WAT      O19954   0.725   7.888   6.852
 6571WAT     H119955   0.791   7.815   6.834
 6571WAT     H219956   0.641   7.871   6.801
 6572WAT      O19957   5.604   2.310   6.073
 6572WAT     H119958   5.563   2.398   6.095
 6572WAT     H219959   5.695   2.325   6.034
 6573WAT      O19960   4.216   9.096   4.362
 6573WAT     H119961   4.139   9.042   4.327
 6573WAT     H219962   4.241   9.166   4.295
 6574WAT      O19963   0.280   6.929   6.500
 6574WAT     H119964   0.351   6.906   6.566
 6574WAT     H219965   0.317   6.923   6.408
 6575WAT      O19966   4.214   8.113   5.579
 6575WAT     H119967   4.253   8.021   5.579
 6575WAT     H219968   4.115   8.107   5.561
 6576WAT      O19969   9.267   7.903   2.409
 6576WAT     H119970   9.270   7.949   2.498
 6576WAT     H219971   9.172   7.889   2.382
 6577WAT      O19972   7.180   8.486   0.776
 6577WAT     H119973   7.087   8.501   0.808
 6577WAT     H219974   7.229   8.574   0.773
 6578WAT      O19975   9.839   5.927   9.186
 6578WAT     H119976   9.783   5.846   9.168
 6578WAT     H219977   9.780   6.007   9.193
 6579WAT      O19978   1.934   6.273   9.768
 6579WAT     H119979   1.920   6.195   9.828
 6579WAT     H219980   1.923   6.244   9.673
 6580WAT      O19981   6.021   1.564   4.059
 6580WAT     H119982   5.921   1.562   4.070
 6580WAT     H219983   6.050   1.656   4.034
 6581WAT      O19984   3.190   6.558   5.095
 6581WAT     H119985   3.211   6.631   5.161
 6581WAT     H219986   3.274   6.508   5.073
 6582WAT      O19987   4.205   6.792   1.033
 6582WAT     H119988   4.151   6.835   1.106
 6582WAT     H219989   4.143   6.747   0.968
 6583WAT      O19990   7.890   8.856   2.869
 6583WAT     H119991   7.941   8.854   2.783
 6583WAT     H219992   7.953   8.867   2.945
 6584WAT      O19993   5.587   5.901   9.246
 6584WAT     H119994   5.510   5.900   9.181
 6584WAT     H219995   5.615   5.807   9.266
 6585WAT      O19996   1.095   5.858   1.995
 6585WAT     H119997   1.029   5.881   1.924
 6585WAT     H219998   1.133   5.942   2.034
 6586WAT      O19999   9.287   3.135   3.898
 6586WAT     H120000   9.375   3.168   3.930
 6586WAT     H220001   9.224   3.212   3.888
 6587WAT      O20002   3.941   0.917   7.961
 6587WAT     H120003   4.033   0.946   7.933
 6587WAT     H220004   3.879   0.928   7.883
 6588WAT      O20005   8.032   1.053   3.643
 6588WAT     H120006   8.075   1.012   3.563
 6588WAT     H220007   8.102   1.082   3.708
 6589WAT      O20008   8.250   0.941   6.445
 6589WAT     H120009   8.318   0.969   6.376
 6589WAT     H220010   8.158   0.951   6.407
 6590WAT      O20011   5.239   6.597   5.838
 6590WAT     H120012   5.183   6.641   5.908
 6590WAT     H220013   5.323   6.649   5.825
 6591WAT      O20014   4.492   9.303   0.917
 6591WAT     H120015   4.525   9.313   0.823
 6591WAT     H220016   4.496   9.206   0.943
 6592WAT      O20017   7.219   1.872   9.611
 6592WAT     H120018   7.236   1.892   9.707
 6592WAT     H220019   7.295   1.820   9.573
 6593WAT      O20020   1.415   0.035   1.241
 6593WAT     H120021   1.374  -0.010   1.161
 6593WAT     H220022   1.514   0.029   1.235
 6594WAT      O20023   6.087   8.366   2.400
 6594WAT     H120024   6.085   8.353   2.301
 6594WAT     H220025   6.179   8.348   2.434
 6595WAT      O20026   6.899   0.416   0.611
 6595WAT     H120027   6.906   0.492   0.675
 6595WAT     H220028   6.978   0.355   0.621
 6596WAT      O20029   6.609   3.661   0.564
 6596WAT     H120030   6.701   3.674   0.529
 6596WAT     H220031   6.565   3.750   0.577
 6597WAT      O20032   6.685   6.565   5.547
 6597WAT     H120033   6.657   6.474   5.517
 6597WAT     H220034   6.706   6.621   5.467
 6598WAT      O20035   1.723   7.109   2.629
 6598WAT     H120036   1.788   7.083   2.558
 6598WAT     H220037   1.773   7.134   2.712
 6599WAT      O20038   2.448   3.423   4.779
 6599WAT     H120039   2.401   3.355   4.836
 6599WAT     H220040   2.544   3.429   4.808
 6600WAT      O20041   9.583   1.393   2.528
 6600WAT     H120042   9.591   1.491   2.542
 6600WAT     H220043   9.622   1.368   2.440
 6601WAT      O20044   1.322   5.422   5.023
 6601WAT     H120045   1.362   5.338   5.059
 6601WAT     H220046   1.224   5.425   5.046
 6602WAT      O20047   1.797   7.810   8.532
 6602WAT     H120048   1.797   7.729   8.472
 6602WAT     H220049   1.891   7.840   8.546
 6603WAT      O20050   0.062   9.000   3.550
 6603WAT     H120051  -0.002   8.998   3.626
 6603WAT     H220052   0.111   8.913   3.545
 6604WAT      O20053   1.500   3.110   1.762
 6604WAT     H120054   1.573   3.080   1.701
 6604WAT     H220055   1.530   3.190   1.814
 6605WAT      O20056   6.402   7.374   6.075
 6605WAT     H120057   6.327   7.429   6.111
 6605WAT     H220058   6.374   7.278   6.068
 6606WAT      O20059   4.209   5.927   9.754
 6606WAT     H120060   4.173   5.976   9.675
 6606WAT     H220061   4.179   5.832   9.751
 6607WAT      O20062   2.836   9.057   8.027
 6607WAT     H120063   2.928   9.097   8.026
 6607WAT     H220064   2.826   8.993   7.950
 6608WAT      O20065   0.247   7.052   5.309
 6608WAT     H120066   0.239   7.064   5.408
 6608WAT     H220067   0.300   7.128   5.271
 6609WAT      O20068   2.785   9.339   9.798
 6609WAT     H120069   2.834   9.349   9.885
 6609WAT     H220070   2.826   9.399   9.730
 6610WAT      O20071   9.383   9.456   2.928
 6610WAT     H120072   9.315   9.431   2.997
 6610WAT     H220073   9.454   9.385   2.924
 6611WAT      O20074   3.411   9.440   5.212
 6611WAT     H120075   3.433   9.525   5.163
 6611WAT     H220076   3.330   9.455   5.269
 6612WAT      O20077   1.156   1.159   4.541
 6612WAT     H120078   1.141   1.170   4.639
 6612WAT     H220079   1.068   1.162   4.493
 6613WAT      O20080   3.168   0.631   8.712
 6613WAT     H120081   3.164   0.546   8.659
 6613WAT     H220082   3.262   0.646   8.744
 6614WAT      O20083   5.684   6.071   2.614
 6614WAT     H120084   5.637   6.106   2.694
 6614WAT     H220085   5.636   5.990   2.579
 6615WAT      O20086   7.226   4.474   8.246
 6615WAT     H120087   7.314   4.459   8.201
 6615WAT     H220088   7.206   4.396   8.305
 6616WAT      O20089   7.480   5.765   0.581
 6616WAT     H120090   7.510   5.820   0.503
 6616WAT     H220091   7.548   5.695   0.600
 6617WAT      O20092   6.887   1.555   3.573
 6617WAT     H120093   6.950   1.491   3.617
 6617WAT     H220094   6.874   1.635   3.630
 6618WAT      O20095   0.927   3.448   0.102
 6618WAT     H120096   0.879   3.502   0.171
 6618WAT     H220097   0.879   3.456   0.015
 6619WAT      O20098   5.384   0.428   4.266
 6619WAT     H120099   5.387   0.525   4.242
 6619WAT     H220100   5.312   0.413   4.334
 6620WAT      O20101   4.181   5.765   0.839
 6620WAT     H120102   4.205   5.801   0.929
 6620WAT     H220103   4.164   5.841   0.776
 6621WAT      O20104   6.627   2.011   9.262
 6621WAT     H120105   6.582   2.022   9.174
 6621WAT     H220106   6.579   2.066   9.331
 6622WAT      O20107   0.458   0.743   6.640
 6622WAT     H120108   0.498   0.727   6.731
 6622WAT     H220109   0.488   0.671   6.578
 6623WAT      O20110   2.647   1.025   3.246
 6623WAT     H120111   2.672   1.034   3.150
 6623WAT     H220112   2.576   1.091   3.269
 6624WAT      O20113   2.257   6.541   6.122
 6624WAT     H120114   2.313   6.564   6.202
 6624WAT     H220115   2.193   6.468   6.145
 6625WAT      O20116   6.062   7.827   5.003
 6625WAT     H120117   6.070   7.762   5.079
 6625WAT     H220118   5.980   7.883   5.016
 6626WAT      O20119   1.045   7.719   5.002
 6626WAT     H120120   1.108   7.775   5.055
 6626WAT     H220121   0.960   7.770   4.988
 6627WAT      O20122   5.970   2.655   5.070
 6627WAT     H120123   5.871   2.660   5.081
 6627WAT     H220124   6.000   2.727   5.008
 6628WAT      O20125   5.763   0.728   7.764
 6628WAT     H120126   5.714   0.810   7.736
 6628WAT     H220127   5.790   0.676   7.683
 6629WAT      O20128   2.069   0.763   6.423
 6629WAT     H120129   2.062   0.743   6.521
 6629WAT     H220130   2.092   0.860   6.411
 6630WAT      O20131   0.457   5.381   7.564
 6630WAT     H120132   0.362   5.413   7.563
 6630WAT     H220133   0.474   5.332   7.650
 6631WAT      O20134   5.703   8.197   0.338
 6631WAT     H120135   5.759   8.144   0.401
 6631WAT     H220136   5.653   8.267   0.389
 6632WAT      O20137   0.471   1.690   5.631
 6632WAT     H120138   0.429   1.600   5.620
 6632WAT     H220139   0.429   1.736   5.710
 6633WAT      O20140   3.002   2.669   9.849
 6633WAT     H120141   2.991   2.588   9.908
 6633WAT     H220142   2.933   2.737   9.872
 6634WAT      O20143   2.235   7.807   5.661
 6634WAT     H120144   2.285   7.753   5.728
 6634WAT     H220145   2.154   7.756   5.631
 6635WAT      O20146   2.659   5.658   4.353
 6635WAT     H120147   2.750   5.698   4.343
 6635WAT     H220148   2.665   5.559   4.344
 6636WAT      O20149   1.676   3.157   0.266
 6636WAT     H120150   1.632   3.073   0.236
 6636WAT     H220151   1.683   3.222   0.190
 6637WAT      O20152   4.507   9.380   6.872
 6637WAT     H120153   4.601   9.350   6.891
 6637WAT     H220154   4.507   9.479   6.855
 6638WAT      O20155   7.859   2.436   8.556
 6638WAT     H120156   7.835   2.504   8.624
 6638WAT     H220157   7.786   2.430   8.487
 6639WAT      O20158   0.965   2.947   4.967
 6639WAT     H120159   0.919   2.869   4.924
 6639WAT     H220160   0.903   2.990   5.033
 6640WAT      O20161   7.336   4.706   5.137
 6640WAT     H120162   7.324   4.606   5.135
 6640WAT     H220163   7.257   4.750   5.094
 6641WAT      O20164   5.589   5.746   9.824
 6641WAT     H120165   5.501   5.757   9.869
 6641WAT     H220166   5.643   5.829   9.837
 6642WAT      O20167   5.371   3.674   3.437
 6642WAT     H120168   5.277   3.651   3.459
 6642WAT     H220169   5.380   3.687   3.338
 6643WAT      O20170   3.920   5.524   8.910
 6643WAT     H120171   3.961   5.447   8.961
 6643WAT     H220172   3.903   5.599   8.974
 6644WAT      O20173   8.989   2.074   6.463
 6644WAT     H120174   8.935   2.110   6.539
 6644WAT     H220175   8.928   2.026   6.399
 6645WAT      O20176   0.847   1.372   7.501
 6645WAT     H120177   0.830   1.470   7.491
 6645WAT     H220178   0.801   1.323   7.426
 6646WAT      O20179   0.716   2.607   7.679
 6646WAT     H120180   0.693   2.656   7.596
 6646WAT     H220181   0.724   2.509   7.660
 6647WAT      O20182   8.963   4.609   0.507
 6647WAT     H120183   9.046   4.608   0.563
 6647WAT     H220184   8.986   4.578   0.414
 6648WAT      O20185   2.859   8.763   1.929
 6648WAT     H120186   2.947   8.739   1.888
 6648WAT     H220187   2.814   8.833   1.874
 6649WAT      O20188   8.270   6.242   3.846
 6649WAT     H120189   8.190   6.302   3.840
 6649WAT     H220190   8.353   6.296   3.837
 6650WAT      O20191   1.084   2.868   1.829
 6650WAT     H120192   1.046   2.836   1.743
 6650WAT     H220193   1.052   2.809   1.904
 6651WAT      O20194   0.031   8.389   6.702
 6651WAT     H120195  -0.041   8.409   6.769
 6651WAT     H220196   0.096   8.465   6.699
 6652WAT      O20197   8.988   3.564   8.455
 6652WAT     H120198   8.952   3.579   8.363
 6652WAT     H220199   9.085   3.591   8.457
 6653WAT      O20200   1.949   9.815   3.583
 6653WAT     H120201   2.035   9.766   3.566
 6653WAT     H220202   1.970   9.909   3.611
 6654WAT      O20203   6.725   7.102   1.905
 6654WAT     H120204   6.749   7.030   1.970
 6654WAT     H220205   6.683   7.061   1.824
 6655WAT      O20206   6.812   0.483   2.693
 6655WAT     H120207   6.828   0.581   2.676
 6655WAT     H220208   6.880   0.450   2.758
 6656WAT      O20209   4.079   2.947   6.148
 6656WAT     H120210   4.041   3.027   6.102
 6656WAT     H220211   4.008   2.878   6.161
 6657WAT      O20212   1.794   3.165   2.721
 6657WAT     H120213   1.862   3.112   2.670
 6657WAT     H220214   1.838   3.207   2.801
 6658WAT      O20215   8.057   7.020   3.533
 6658WAT     H120216   8.088   7.114   3.538
 6658WAT     H220217   8.135   6.958   3.538
 6659WAT      O20218   1.410   6.365   2.597
 6659WAT     H120219   1.431   6.314   2.514
 6659WAT     H220220   1.468   6.333   2.672
 6660WAT      O20221   6.294   2.812   4.336
 6660WAT     H120222   6.249   2.779   4.253
 6660WAT     H220223   6.237   2.882   4.380
 6661WAT      O20224   2.372   4.621   3.352
 6661WAT     H120225   2.440   4.635   3.280
 6661WAT     H220226   2.312   4.700   3.357
 6662WAT      O20227   5.262   7.948   1.873
 6662WAT     H120228   5.251   7.856   1.911
 6662WAT     H220229   5.349   7.953   1.823
 6663WAT      O20230   5.937   5.184   1.534
 6663WAT     H120231   5.982   5.150   1.452
 6663WAT     H220232   6.003   5.186   1.610
 6664WAT      O20233   1.699   9.029   7.665
 6664WAT     H120234   1.681   8.941   7.621
 6664WAT     H220235   1.713   9.015   7.763
 6665WAT      O20236   0.516   8.581   0.491
 6665WAT     H120237   0.487   8.674   0.513
 6665WAT     H220238   0.587   8.584   0.421
 6666WAT      O20239   4.510   8.367   6.957
 6666WAT     H120240   4.487   8.353   6.861
 6666WAT     H220241   4.540   8.281   6.998
 6667WAT      O20242   2.819   1.486   1.235
 6667WAT     H120243   2.833   1.546   1.313
 6667WAT     H220244   2.836   1.391   1.262
 6668WAT      O20245   8.244   8.319   4.693
 6668WAT     H120246   8.241   8.408   4.649
 6668WAT     H220247   8.192   8.253   4.639
 6669WAT      O20248   3.966   8.676   1.308
 6669WAT     H120249   3.955   8.592   1.360
 6669WAT     H220250   4.013   8.656   1.222
 6670WAT      O20251   9.309   1.340   0.804
 6670WAT     H120252   9.307   1.314   0.708
 6670WAT     H220253   9.390   1.303   0.848
 6671WAT      O20254   8.342   7.963   7.500
 6671WAT     H120255   8.340   7.982   7.402
 6671WAT     H220256   8.298   8.038   7.550
 6672WAT      O20257   4.640   0.235   7.287
 6672WAT     H120258   4.671   0.140   7.280
 6672WAT     H220259   4.545   0.241   7.256
 6673WAT      O20260   2.747   4.553   1.579
 6673WAT     H120261   2.819   4.620   1.599
 6673WAT     H220262   2.698   4.531   1.664
 6674WAT      O20263   8.714   3.452   7.507
 6674WAT     H120264   8.722   3.540   7.461
 6674WAT     H220265   8.802   3.404   7.504
 6675WAT      O20266   0.279   9.216   1.613
 6675WAT     H120267   0.313   9.126   1.587
 6675WAT     H220268   0.268   9.221   1.713
 6676WAT      O20269   5.432   0.796   5.248
 6676WAT     H120270   5.521   0.751   5.237
 6676WAT     H220271   5.360   0.727   5.256
 6677WAT      O20272   0.434   1.334   3.443
 6677WAT     H120273   0.362   1.343   3.374
 6677WAT     H220274   0.396   1.291   3.525
 6678WAT      O20275   9.659   6.324   1.533
 6678WAT     H120276   9.719   6.403   1.541
 6678WAT     H220277   9.674   6.262   1.609
 6679WAT      O20278   4.279   7.264   8.920
 6679WAT     H120279   4.241   7.172   8.928
 6679WAT     H220280   4.214   7.330   8.958
 6680WAT      O20281   2.866   4.892   8.852
 6680WAT     H120282   2.912   4.809   8.819
 6680WAT     H220283   2.907   4.921   8.938
 6681WAT      O20284   3.237   7.685   6.267
 6681WAT     H120285   3.139   7.707   6.269
 6681WAT     H220286   3.260   7.645   6.178
 6682WAT      O20287   9.665   4.020   1.705
 6682WAT     H120288   9.693   3.986   1.796
 6682WAT     H220289   9.747   4.035   1.649
 6683WAT      O20290   8.128   9.683   6.651
 6683WAT     H120291   8.215   9.661   6.606
 6683WAT     H220292   8.061   9.611   6.631
 6684WAT      O20293   2.221   4.064   0.271
 6684WAT     H120294   2.158   4.103   0.337
 6684WAT     H220295   2.287   4.006   0.319
 6685WAT      O20296   2.117   9.441   6.174
 6685WAT     H120297   2.137   9.536   6.199
 6685WAT     H220298   2.018   9.425   6.180
 6686WAT      O20299   2.104   1.561   5.951
 6686WAT     H120300   2.152   1.524   6.031
 6686WAT     H220301   2.034   1.625   5.982
 6687WAT      O20302   6.514   5.125   4.523
 6687WAT     H120303   6.544   5.123   4.428
 6687WAT     H220304   6.536   5.215   4.563
 6688WAT      O20305   1.770   6.266   2.449
 6688WAT     H120306   1.841   6.284   2.381
 6688WAT     H220307   1.682   6.253   2.402
 6689WAT      O20308   8.771   3.935   2.517
 6689WAT     H120309   8.843   3.894   2.573
 6689WAT     H220310   8.812   4.001   2.454
 6690WAT      O20311   2.439   5.973   1.980
 6690WAT     H120312   2.534   5.973   2.009
 6690WAT     H220313   2.435   5.964   1.880
 6691WAT      O20314   7.815   9.369   8.329
 6691WAT     H120315   7.720   9.378   8.360
 6691WAT     H220316   7.817   9.320   8.241
 6692WAT      O20317   3.393   2.394   4.211
 6692WAT     H120318   3.420   2.490   4.214
 6692WAT     H220319   3.404   2.359   4.118
 6693WAT      O20320   1.206   1.927   6.841
 6693WAT     H120321   1.108   1.941   6.852
 6693WAT     H220322   1.248   2.012   6.810
 6694WAT      O20323   9.030   4.006   8.611
 6694WAT     H120324   9.005   3.920   8.565
 6694WAT     H220325   9.079   3.985   8.696
 6695WAT      O20326   9.805   0.997   4.433
 6695WAT     H120327   9.707   1.014   4.442
 6695WAT     H220328   9.832   0.924   4.496
 6696WAT      O20329   0.275   2.246   8.867
 6696WAT     H120330   0.250   2.151   8.889
 6696WAT     H220331   0.306   2.292   8.950
 6697WAT      O20332   0.082   1.714   7.847
 6697WAT     H120333   0.050   1.632   7.894
 6697WAT     H220334   0.009   1.783   7.848
 6698WAT      O20335   0.658   2.796   4.055
 6698WAT     H120336   0.727   2.839   4.114
 6698WAT     H220337   0.614   2.866   4.000
 6699WAT      O20338   1.397   7.475   6.144
 6699WAT     H120339   1.444   7.481   6.231
 6699WAT     H220340   1.428   7.394   6.094
 6700WAT      O20341   8.409   1.108   3.265
 6700WAT     H120342   8.392   1.203   3.291
 6700WAT     H220343   8.353   1.084   3.186
 6701WAT      O20344   4.175   7.028   8.921
 6701WAT     H120345   4.229   6.958   8.967
 6701WAT     H220346   4.109   6.983   8.859
 6702WAT      O20347   3.491   0.881   5.768
 6702WAT     H120348   3.404   0.860   5.814
 6702WAT     H220349   3.565   0.833   5.815
 6703WAT      O20350   9.389   6.234   5.080
 6703WAT     H120351   9.452   6.310   5.065
 6703WAT     H220352   9.431   6.150   5.045
 6704WAT      O20353   9.283   6.570   5.588
 6704WAT     H120354   9.342   6.644   5.624
 6704WAT     H220355   9.188   6.590   5.611
 6705WAT      O20356   8.723   6.557   2.915
 6705WAT     H120357   8.798   6.514   2.966
 6705WAT     H220358   8.721   6.520   2.822
 6706WAT      O20359   8.251   3.531   2.797
 6706WAT     H120360   8.225   3.598   2.865
 6706WAT     H220361   8.335   3.560   2.751
 6707WAT      O20362   5.023   8.677   3.872
 6707WAT     H120363   5.050   8.630   3.787
 6707WAT     H220364   4.924   8.687   3.874
 6708WAT      O20365   0.886   2.134   5.320
 6708WAT     H120366   0.945   2.055   5.302
 6708WAT     H220367   0.890   2.158   5.417
 6709WAT      O20368   0.921   0.867   5.771
 6709WAT     H120369   0.836   0.816   5.779
 6709WAT     H220370   0.959   0.884   5.863
 6710WAT      O20371   3.778   7.359   0.963
 6710WAT     H120372   3.845   7.371   1.037
 6710WAT     H220373   3.704   7.425   0.974
 6711WAT      O20374   6.664   1.482   1.145
 6711WAT     H120375   6.720   1.430   1.080
 6711WAT     H220376   6.722   1.548   1.193
 6712WAT      O20377  -0.002   3.976   1.529
 6712WAT     H120378  -0.035   3.915   1.457
 6712WAT     H220379   0.067   3.929   1.584
 6713WAT      O20380   6.519   3.769   8.508
 6713WAT     H120381   6.611   3.802   8.490
 6713WAT     H220382   6.485   3.810   8.593
 6714WAT      O20383   9.782   6.968   2.761
 6714WAT     H120384   9.876   6.944   2.738
 6714WAT     H220385   9.727   6.973   2.677
 6715WAT      O20386   8.549   8.006   8.745
 6715WAT     H120387   8.484   7.937   8.712
 6715WAT     H220388   8.509   8.097   8.736
 6716WAT      O20389   9.606   9.047   1.259
 6716WAT     H120390   9.524   9.061   1.204
 6716WAT     H220391   9.634   9.134   1.300
 6717WAT      O20392   4.498   0.150   4.981
 6717WAT     H120393   4.588   0.156   5.024
 6717WAT     H220394   4.509   0.123   4.885
 6718WAT      O20395   3.645   8.275   8.916
 6718WAT     H120396   3.696   8.244   8.836
 6718WAT     H220397   3.682   8.232   8.998
 6719WAT      O20398   7.896   1.574   9.716
 6719WAT     H120399   7.880   1.617   9.628
 6719WAT     H220400   7.819   1.593   9.777
 6720WAT      O20401   9.094   0.406   7.859
 6720WAT     H120402   9.008   0.368   7.892
 6720WAT     H220403   9.158   0.332   7.839
 6721WAT      O20404   8.142   0.998   4.963
 6721WAT     H120405   8.134   1.037   4.871
 6721WAT     H220406   8.164   0.901   4.956
 6722WAT      O20407   7.316   5.467   6.612
 6722WAT     H120408   7.315   5.553   6.664
 6722WAT     H220409   7.360   5.396   6.667
 6723WAT      O20410   9.010   4.094   6.462
 6723WAT     H120411   8.977   4.079   6.556
 6723WAT     H220412   9.065   4.015   6.433
 6724WAT      O20413   3.745   2.041   2.873
 6724WAT     H120414   3.840   2.048   2.843
 6724WAT     H220415   3.703   1.959   2.834
 6725WAT      O20416   3.584   5.978   3.545
 6725WAT     H120417   3.579   6.053   3.611
 6725WAT     H220418   3.678   5.948   3.535
 6726WAT      O20419   6.600   0.214   2.521
 6726WAT     H120420   6.642   0.145   2.580
 6726WAT     H220421   6.671   0.264   2.472
 6727WAT      O20422   5.277   4.608   8.712
 6727WAT     H120423   5.324   4.596   8.624
 6727WAT     H220424   5.190   4.558   8.710
 6728WAT      O20425   9.433   1.068   6.179
 6728WAT     H120426   9.393   0.989   6.225
 6728WAT     H220427   9.434   1.146   6.242
 6729WAT      O20428   6.349   6.373   3.615
 6729WAT     H120429   6.441   6.410   3.627
 6729WAT     H220430   6.331   6.358   3.518
 6730WAT      O20431   2.536   7.169   3.270
 6730WAT     H120432   2.523   7.221   3.355
 6730WAT     H220433   2.450   7.124   3.244
 6731WAT      O20434   7.996   3.911   1.946
 6731WAT     H120435   8.030   3.885   1.856
 6731WAT     H220436   7.924   3.847   1.974
 6732WAT      O20437   9.044   0.313   4.444
 6732WAT     H120438   9.008   0.402   4.415
 6732WAT     H220439   9.020   0.296   4.539
 6733WAT      O20440   3.249   1.074   7.581
 6733WAT     H120441   3.254   0.982   7.543
 6733WAT     H220442   3.225   1.139   7.509
 6734WAT      O20443   5.540   2.834   4.964
 6734WAT     H120444   5.508   2.779   4.887
 6734WAT     H220445   5.617   2.787   5.008
 6735WAT      O20446   3.841   8.816   2.629
 6735WAT     H120447   3.913   8.808   2.560
 6735WAT     H220448   3.850   8.742   2.696
 6736WAT      O20449   4.184   1.038   4.817
 6736WAT     H120450   4.254   0.968   4.828
 6736WAT     H220451   4.104   0.998   4.771
 6737WAT      O20452   9.849   6.764   2.471
 6737WAT     H120453   9.750   6.764   2.452
 6737WAT     H220454   9.867   6.818   2.553
 6738WAT      O20455   8.011   8.496   6.987
 6738WAT     H120456   8.050   8.462   6.901
 6738WAT     H220457   8.066   8.463   7.064
 6739WAT      O20458   7.597   8.282   7.587
 6739WAT     H120459   7.562   8.303   7.678
 6739WAT     H220460   7.610   8.183   7.578
 6740WAT      O20461   3.995   8.719   8.307
 6740WAT     H120462   4.057   8.758   8.238
 6740WAT     H220463   4.047   8.661   8.369
 6741WAT      O20464   0.463   2.868   9.436
 6741WAT     H120465   0.551   2.845   9.477
 6741WAT     H220466   0.467   2.961   9.398
 6742WAT      O20467   3.427   7.320   3.492
 6742WAT     H120468   3.472   7.234   3.467
 6742WAT     H220469   3.462   7.394   3.434
 6743WAT      O20470   8.818   5.714   0.790
 6743WAT     H120471   8.793   5.621   0.763
 6743WAT     H220472   8.887   5.711   0.862
 6744WAT      O20473   9.018   7.226   6.252
 6744WAT     H120474   8.975   7.187   6.333
 6744WAT     H220475   9.036   7.323   6.266
 6745WAT      O20476   0.256   6.745   2.399
 6745WAT     H120477   0.169   6.783   2.429
 6745WAT     H220478   0.329   6.811   2.417
 6746WAT      O20479   8.547   7.438   1.074
 6746WAT     H120480   8.530   7.522   1.024
 6746WAT     H220481   8.461   7.403   1.111
 6747WAT      O20482   2.985   2.089   2.407
 6747WAT     H120483   2.906   2.070   2.349
 6747WAT     H220484   3.066   2.099   2.350
 6748WAT      O20485   9.101   2.616   2.423
 6748WAT     H120486   9.191   2.586   2.391
 6748WAT     H220487   9.041   2.536   2.434
 6749WAT      O20488   8.829   7.554   5.333
 6749WAT     H120489   8.870   7.501   5.258
 6749WAT     H220490   8.736   7.523   5.349
 6750WAT      O20491   5.222   3.957   2.366
 6750WAT     H120492   5.123   3.957   2.383
 6750WAT     H220493   5.270   3.930   2.449
 6751WAT      O20494   7.548   5.417   4.970
 6751WAT     H120495   7.490   5.496   4.985
 6751WAT     H220496   7.560   5.402   4.872
 6752WAT      O20497   0.685   7.132   3.143
 6752WAT     H120498   0.589   7.119   3.166
 6752WAT     H220499   0.724   7.202   3.204
 6753WAT      O20500   4.514   1.585   8.041
 6753WAT     H120501   4.542   1.511   7.979
 6753WAT     H220502   4.591   1.647   8.054
 6754WAT      O20503   8.930   9.037   2.688
 6754WAT     H120504   8.847   9.004   2.643
 6754WAT     H220505   8.934   9.000   2.781
 6755WAT      O20506   7.191   5.130   2.739
 6755WAT     H120507   7.164   5.062   2.670
 6755WAT     H220508   7.117   5.140   2.805
 6756WAT      O20509   6.654   6.020   0.404
 6756WAT     H120510   6.643   5.941   0.465
 6756WAT     H220511   6.751   6.035   0.386
 6757WAT      O20512   6.717   0.241   7.638
 6757WAT     H120513   6.791   0.243   7.705
 6757WAT     H220514   6.638   0.192   7.678
 6758WAT      O20515   6.817   1.029   1.599
 6758WAT     H120516   6.811   1.022   1.698
 6758WAT     H220517   6.910   1.007   1.569
 6759WAT      O20518   9.319   7.760   7.555
 6759WAT     H120519   9.357   7.772   7.464
 6759WAT     H220520   9.390   7.777   7.623
 6760WAT      O20521   4.288   4.772   4.681
 6760WAT     H120522   4.385   4.797   4.677
 6760WAT     H220523   4.233   4.853   4.660
 6761WAT      O20524   8.520   3.432   4.452
 6761WAT     H120525   8.503   3.354   4.392
 6761WAT     H220526   8.483   3.515   4.410
 6762WAT      O20527   3.890   3.469   3.029
 6762WAT     H120528   3.855   3.505   2.942
 6762WAT     H220529   3.887   3.541   3.098
 6763WAT      O20530   8.428   5.227   0.559
 6763WAT     H120531   8.466   5.148   0.607
 6763WAT     H220532   8.339   5.203   0.521
 6764WAT      O20533   5.334   6.859   9.834
 6764WAT     H120534   5.244   6.843   9.795
 6764WAT     H220535   5.352   6.958   9.837
 6765WAT      O20536   9.148   4.249   0.149
 6765WAT     H120537   9.073   4.189   0.177
 6765WAT     H220538   9.113   4.320   0.088
 6766WAT      O20539   0.011   1.112   2.909
 6766WAT     H120540   0.031   1.085   3.003
 6766WAT     H220541   0.051   1.202   2.891
 6767WAT      O20542   5.302   4.991   1.476
 6767WAT     H120543   5.392   4.957   1.505
 6767WAT     H220544   5.306   5.089   1.460
 6768WAT      O20545   9.135   8.655   7.582
 6768WAT     H120546   9.224   8.611   7.590
 6768WAT     H220547   9.063   8.587   7.594
 6769WAT      O20548   6.349   0.643   5.517
 6769WAT     H120549   6.446   0.624   5.501
 6769WAT     H220550   6.339   0.700   5.599
 6770WAT      O20551   8.082   7.296   4.346
 6770WAT     H120552   8.027   7.342   4.416
 6770WAT     H220553   8.023   7.259   4.275
 6771WAT      O20554   3.643   4.887   2.239
 6771WAT     H120555   3.613   4.962   2.179
 6771WAT     H220556   3.701   4.824   2.187
 6772WAT      O20557   5.854   5.540   8.164
 6772WAT     H120558   5.878   5.443   8.165
 6772WAT     H220559   5.755   5.549   8.177
 6773WAT      O20560   3.177   5.498   9.769
 6773WAT     H120561   3.147   5.546   9.687
 6773WAT     H220562   3.277   5.489   9.768
 6774WAT      O20563   1.579   7.485   4.489
 6774WAT     H120564   1.616   7.531   4.408
 6774WAT     H220565   1.654   7.446   4.542
 6775WAT      O20566   1.778   3.239   1.077
 6775WAT     H120567   1.749   3.311   1.014
 6775WAT     H220568   1.811   3.281   1.162
 6776WAT      O20569   4.463   8.272   6.710
 6776WAT     H120570   4.557   8.245   6.692
 6776WAT     H220571   4.441   8.354   6.657
 6777WAT      O20572   3.377   4.814   2.875
 6777WAT     H120573   3.426   4.821   2.961
 6777WAT     H220574   3.401   4.729   2.829
 6778WAT      O20575   1.030   8.941   6.361
 6778WAT     H120576   0.967   9.018   6.351
 6778WAT     H220577   1.097   8.961   6.432
 6779WAT      O20578   6.445   9.058   4.367
 6779WAT     H120579   6.543   9.075   4.383
 6779WAT     H220580   6.417   8.977   4.418
 6780WAT      O20581   0.832   9.543   7.917
 6780WAT     H120582   0.836   9.495   8.005
 6780WAT     H220583   0.746   9.593   7.910
 6781WAT      O20584   2.462   3.379   1.609
 6781WAT     H120585   2.494   3.444   1.678
 6781WAT     H220586   2.379   3.414   1.566
 6782WAT      O20587   0.744   3.418   2.616
 6782WAT     H120588   0.743   3.318   2.606
 6782WAT     H220589   0.655   3.448   2.650
 6783WAT      O20590   3.085   5.214   9.672
 6783WAT     H120591   3.138   5.292   9.706
 6783WAT     H220592   3.042   5.239   9.586
 6784WAT      O20593   4.193   7.701   5.863
 6784WAT     H120594   4.143   7.743   5.939
 6784WAT     H220595   4.197   7.602   5.876
 6785WAT      O20596   7.743   4.463   1.070
 6785WAT     H120597   7.807   4.504   1.134
 6785WAT     H220598   7.748   4.363   1.076
 6786WAT      O20599   1.927   0.838   4.583
 6786WAT     H120600   1.833   0.840   4.548
 6786WAT     H220601   1.985   0.787   4.519
 6787WAT      O20602   3.872   3.223   2.010
 6787WAT     H120603   3.804   3.151   1.995
 6787WAT     H220604   3.950   3.209   1.949
 6788WAT      O20605   9.689   5.856   4.956
 6788WAT     H120606   9.727   5.785   4.896
 6788WAT     H220607   9.727   5.847   5.048
 6789WAT      O20608   8.330   9.778   6.976
 6789WAT     H120609   8.419   9.789   7.019
 6789WAT     H220610   8.328   9.691   6.926
 6790WAT      O20611   5.821   7.516   4.755
 6790WAT     H120612   5.906   7.473   4.786
 6790WAT     H220613   5.843   7.593   4.694
 6791WAT      O20614   7.775   8.603   6.998
 6791WAT     H120615   7.853   8.541   7.003
 6791WAT     H220616   7.770   8.643   6.907
 6792WAT      O20617   7.523   9.214   4.345
 6792WAT     H120618   7.565   9.185   4.259
 6792WAT     H220619   7.524   9.314   4.350
 6793WAT      O20620   0.275   7.510   9.637
 6793WAT     H120621   0.245   7.506   9.542
 6793WAT     H220622   0.220   7.446   9.692
 6794WAT      O20623   6.251   7.591   3.265
 6794WAT     H120624   6.302   7.544   3.336
 6794WAT     H220625   6.267   7.690   3.272
 6795WAT      O20626   8.260   8.288   0.037
 6795WAT     H120627   8.335   8.352   0.017
 6795WAT     H220628   8.183   8.307  -0.023
 6796WAT      O20629   4.013   0.798   2.973
 6796WAT     H120630   3.981   0.757   2.887
 6796WAT     H220631   4.075   0.735   3.019
 6797WAT      O20632   2.878   8.461   7.427
 6797WAT     H120633   2.896   8.548   7.381
 6797WAT     H220634   2.798   8.418   7.385
 6798WAT      O20635   9.769   8.970   7.130
 6798WAT     H120636   9.826   9.040   7.174
 6798WAT     H220637   9.826   8.895   7.099
 6799WAT      O20638   8.054   8.388   7.506
 6799WAT     H120639   7.990   8.445   7.455
 6799WAT     H220640   8.070   8.428   7.596
 6800WAT      O20641   2.474   4.007   7.720
 6800WAT     H120642   2.559   4.038   7.764
 6800WAT     H220643   2.396   4.051   7.764
 6801WAT      O20644   4.956   4.810   3.349
 6801WAT     H120645   5.036   4.819   3.289
 6801WAT     H220646   4.968   4.731   3.409
 6802WAT      O20647   0.523   3.653   9.185
 6802WAT     H120648   0.503   3.744   9.221
 6802WAT     H220649   0.520   3.656   9.085
 6803WAT      O20650   6.625   3.857   7.299
 6803WAT     H120651   6.569   3.924   7.250
 6803WAT     H220652   6.711   3.843   7.249
 6804WAT      O20653   6.022   4.392   0.766
 6804WAT     H120654   6.047   4.296   0.766
 6804WAT     H220655   5.927   4.403   0.795
 6805WAT      O20656   5.112   1.631   7.159
 6805WAT     H120657   5.117   1.552   7.099
 6805WAT     H220658   5.156   1.709   7.115
 6806WAT      O20659   3.395   9.642   5.018
 6806WAT     H120660   3.484   9.654   4.973
 6806WAT     H220661   3.339   9.724   5.003
 6807WAT      O20662   5.279   3.203   8.801
 6807WAT     H120663   5.278   3.303   8.804
 6807WAT     H220664   5.224   3.167   8.877
 6808WAT      O20665   4.250   4.453   8.868
 6808WAT     H120666   4.335   4.425   8.823
 6808WAT     H220667   4.256   4.432   8.965
 6809WAT      O20668   6.966   3.477   5.570
 6809WAT     H120669   7.061   3.507   5.576
 6809WAT     H220670   6.957   3.404   5.502
 6810WAT      O20671   2.513   4.242   9.240
 6810WAT     H120672   2.440   4.187   9.200
 6810WAT     H220673   2.601   4.217   9.199
 6811WAT      O20674   0.613   4.322   9.082
 6811WAT     H120675   0.652   4.385   9.015
 6811WAT     H220676   0.686   4.271   9.126
 6812WAT      O20677   1.880   6.595   3.520
 6812WAT     H120678   1.880   6.565   3.424
 6812WAT     H220679   1.790   6.578   3.560
 6813WAT      O20680   8.099   3.879   3.497
 6813WAT     H120681   8.193   3.852   3.521
 6813WAT     H220682   8.077   3.964   3.545
 6814WAT      O20683   1.359   8.777   9.327
 6814WAT     H120684   1.272   8.817   9.297
 6814WAT     H220685   1.366   8.782   9.427
 6815WAT      O20686   6.861   1.763   5.964
 6815WAT     H120687   6.925   1.725   6.031
 6815WAT     H220688   6.769   1.729   5.984
 6816WAT      O20689   5.821   6.511   1.267
 6816WAT     H120690   5.870   6.598   1.265
 6816WAT     H220691   5.877   6.442   1.313
 6817WAT      O20692   3.062   6.826   9.411
 6817WAT     H120693   2.976   6.855   9.370
 6817WAT     H220694   3.104   6.756   9.354
 6818WAT      O20695   5.555   5.526   5.855
 6818WAT     H120696   5.611   5.455   5.898
 6818WAT     H220697   5.458   5.506   5.871
 6819WAT      O20698   0.998   7.232   9.284
 6819WAT     H120699   0.923   7.249   9.348
 6819WAT     H220700   1.020   7.135   9.282
 6820WAT      O20701   7.913   9.581   3.295
 6820WAT     H120702   7.976   9.508   3.269
 6820WAT     H220703   7.951   9.670   3.268
 6821WAT      O20704   3.914   8.858   3.137
 6821WAT     H120705   3.975   8.929   3.172
 6821WAT     H220706   3.945   8.768   3.167
 6822WAT      O20707   8.518   8.279   4.704
 6822WAT     H120708   8.547   8.195   4.659
 6822WAT     H220709   8.420   8.292   4.692
 6823WAT      O20710   0.563   4.560   7.392
 6823WAT     H120711   0.590   4.465   7.374
 6823WAT     H220712   0.552   4.573   7.491
 6824WAT      O20713   9.756   6.477   3.196
 6824WAT     H120714   9.850   6.479   3.230
 6824WAT     H220715   9.740   6.555   3.136
 6825WAT      O20716   3.842   2.523   9.067
 6825WAT     H120717   3.805   2.601   9.118
 6825WAT     H220718   3.862   2.552   8.973
 6826WAT      O20719   8.580   4.410   1.901
 6826WAT     H120720   8.503   4.348   1.884
 6826WAT     H220721   8.663   4.372   1.859
 6827WAT      O20722   4.961   9.018   7.929
 6827WAT     H120723   4.991   9.096   7.985
 6827WAT     H220724   4.898   9.050   7.859
 6828WAT      O20725   1.068   8.476   4.945
 6828WAT     H120726   1.106   8.448   5.033
 6828WAT     H220727   1.023   8.565   4.955
 6829WAT      O20728   7.456   6.359   9.254
 6829WAT     H120729   7.534   6.348   9.315
 6829WAT     H220730   7.486   6.406   9.170
 6830WAT      O20731   9.236   9.757   2.144
 6830WAT     H120732   9.210   9.688   2.211
 6830WAT     H220733   9.189   9.739   2.057
 6831WAT      O20734   7.998   1.492   6.383
 6831WAT     H120735   8.003   1.403   6.430
 6831WAT     H220736   8.083   1.542   6.397
 6832WAT      O20737   7.651   8.340   0.992
 6832WAT     H120738   7.551   8.340   0.981
 6832WAT     H220739   7.693   8.391   0.917
 6833WAT      O20740   6.417   8.967   5.811
 6833WAT     H120741   6.401   8.939   5.905
 6833WAT     H220742   6.487   8.908   5.770
 6834WAT      O20743   4.747   3.105   0.620
 6834WAT     H120744   4.694   3.140   0.697
 6834WAT     H220745   4.803   3.178   0.581
 6835WAT      O20746   9.439   1.285   6.647
 6835WAT     H120747   9.451   1.290   6.548
 6835WAT     H220748   9.370   1.216   6.669
 6836WAT      O20749   7.760   5.858   9.788
 6836WAT     H120750   7.768   5.833   9.692
 6836WAT     H220751   7.757   5.957   9.797
 6837WAT      O20752   3.534   5.565   0.796
 6837WAT     H120753   3.523   5.623   0.877
 6837WAT     H220754   3.480   5.482   0.807
 6838WAT      O20755   3.318   8.115   7.722
 6838WAT     H120756   3.361   8.138   7.810
 6838WAT     H220757   3.287   8.020   7.725
 6839WAT      O20758   0.052   8.285   0.261
 6839WAT     H120759   0.070   8.309   0.166
 6839WAT     H220760   0.105   8.203   0.285
 6840WAT      O20761   2.990   0.095   3.366
 6840WAT     H120762   3.081   0.130   3.344
 6840WAT     H220763   2.933   0.170   3.399
 6841WAT      O20764   1.768   8.393   3.162
 6841WAT     H120765   1.856   8.350   3.143
 6841WAT     H220766   1.769   8.487   3.127
 6842WAT      O20767   1.456   6.238   2.373
 6842WAT     H120768   1.440   6.140   2.365
 6842WAT     H220769   1.422   6.284   2.291
 6843WAT      O20770   9.745   1.429   5.883
 6843WAT     H120771   9.667   1.404   5.940
 6843WAT     H220772   9.768   1.353   5.823
 6844WAT      O20773   3.785   4.225   0.398
 6844WAT     H120774   3.717   4.195   0.464
 6844WAT     H220775   3.844   4.149   0.373
 6845WAT      O20776   5.130   8.925   6.683
 6845WAT     H120777   5.101   8.983   6.607
 6845WAT     H220778   5.128   8.829   6.654
 6846WAT      O20779   7.487   2.401   8.938
 6846WAT     H120780   7.455   2.485   8.983
 6846WAT     H220781   7.510   2.332   9.007
 6847WAT      O20782   5.377   4.226   6.891
 6847WAT     H120783   5.287   4.223   6.849
 6847WAT     H220784   5.447   4.231   6.820
 6848WAT      O20785   3.278   0.050   4.624
 6848WAT     H120786   3.340  -0.015   4.580
 6848WAT     H220787   3.294   0.142   4.588
 6849WAT      O20788   4.309   7.849   8.329
 6849WAT     H120789   4.331   7.927   8.270
 6849WAT     H220790   4.215   7.820   8.311
 6850WAT      O20791   3.950   5.344   0.352
 6850WAT     H120792   4.039   5.378   0.323
 6850WAT     H220793   3.961   5.257   0.401
 6851WAT      O20794   5.324   5.111   3.239
 6851WAT     H120795   5.230   5.085   3.260
 6851WAT     H220796   5.338   5.105   3.140
 6852WAT      O20797   3.271   1.866   2.980
 6852WAT     H120798   3.187   1.817   3.003
 6852WAT     H220799   3.336   1.802   2.938
 6853WAT      O20800   8.016   2.716   2.953
 6853WAT     H120801   8.101   2.713   3.006
 6853WAT     H220802   8.024   2.783   2.880
 6854WAT      O20803   8.409   3.418   9.663
 6854WAT     H120804   8.408   3.508   9.706
 6854WAT     H220805   8.480   3.361   9.706
 6855WAT      O20806   7.574   6.194   1.415
 6855WAT     H120807   7.514   6.170   1.338
 6855WAT     H220808   7.524   6.253   1.479
 6856WAT      O20809   7.657   2.062   0.786
 6856WAT     H120810   7.612   1.985   0.831
 6856WAT     H220811   7.695   2.032   0.698
 6857WAT      O20812   0.038   1.877   3.436
 6857WAT     H120813   0.020   1.915   3.526
 6857WAT     H220814  -0.020   1.798   3.420
 6858WAT      O20815   1.494   9.654   6.276
 6858WAT     H120816   1.565   9.706   6.325
 6858WAT     H220817   1.409   9.707   6.274
 6859WAT      O20818   9.364   2.290   1.474
 6859WAT     H120819   9.387   2.387   1.466
 6859WAT     H220820   9.326   2.272   1.565
 6860WAT      O20821   3.504   9.560   8.926
 6860WAT     H120822   3.593   9.532   8.962
 6860WAT     H220823   3.486   9.654   8.953
 6861WAT      O20824   2.108   4.654   3.125
 6861WAT     H120825   2.056   4.587   3.072
 6861WAT     H220826   2.077   4.654   3.220
 6862WAT      O20827   9.345   9.533   4.777
 6862WAT     H120828   9.368   9.512   4.872
 6862WAT     H220829   9.270   9.474   4.747
 6863WAT      O20830   9.806   5.632   8.969
 6863WAT     H120831   9.759   5.697   9.029
 6863WAT     H220832   9.904   5.651   8.970
 6864WAT      O20833   1.509   6.880   2.233
 6864WAT     H120834   1.512   6.976   2.262
 6864WAT     H220835   1.546   6.873   2.140
 6865WAT      O20836   6.670   7.478   6.634
 6865WAT     H120837   6.736   7.528   6.577
 6865WAT     H220838   6.582   7.525   6.632
 6866WAT      O20839   7.637   5.700   7.772
 6866WAT     H120840   7.561   5.657   7.823
 6866WAT     H220841   7.659   5.788   7.813
 6867WAT      O20842   8.699   1.703   9.289
 6867WAT     H120843   8.727   1.660   9.375
 6867WAT     H220844   8.732   1.649   9.212
 6868WAT      O20845   4.402   3.336   3.456
 6868WAT     H120846   4.349   3.333   3.541
 6868WAT     H220847   4.343   3.313   3.379
 6869WAT      O20848   1.401   5.492   7.034
 6869WAT     H120849   1.455   5.557   7.087
 6869WAT     H220850   1.439   5.484   6.942
 6870WAT      O20851   2.699   4.616   3.732
 6870WAT     H120852   2.738   4.651   3.817
 6870WAT     H220853   2.772   4.578   3.675
 6871WAT      O20854   3.214   5.062   8.171
 6871WAT     H120855   3.163   5.051   8.256
 6871WAT     H220856   3.182   5.144   8.123
 6872WAT      O20857   1.043   5.266   6.168
 6872WAT     H120858   1.109   5.341   6.176
 6872WAT     H220859   0.952   5.299   6.190
 6873WAT      O20860   7.455   8.123   1.492
 6873WAT     H120861   7.415   8.091   1.578
 6873WAT     H220862   7.555   8.115   1.497
 6874WAT      O20863   5.304   0.066   6.079
 6874WAT     H120864   5.315   0.162   6.054
 6874WAT     H220865   5.213   0.034   6.050
 6875WAT      O20866   6.485   2.976   9.132
 6875WAT     H120867   6.551   3.052   9.135
 6875WAT     H220868   6.400   3.008   9.090
 6876WAT      O20869   1.666   2.687   4.428
 6876WAT     H120870   1.654   2.611   4.365
 6876WAT     H220871   1.761   2.719   4.423
 6877WAT      O20872   2.675   8.354   7.282
 6877WAT     H120873   2.602   8.288   7.266
 6877WAT     H220874   2.664   8.432   7.219
 6878WAT      O20875   0.712   1.200   0.279
 6878WAT     H120876   0.679   1.287   0.316
 6878WAT     H220877   0.636   1.152   0.236
 6879WAT      O20878   4.423   3.231   6.301
 6879WAT     H120879   4.468   3.146   6.277
 6879WAT     H220880   4.489   3.306   6.299
 6880WAT      O20881   1.314   3.625   6.849
 6880WAT     H120882   1.256   3.639   6.769
 6880WAT     H220883   1.396   3.574   6.822
 6881WAT      O20884   4.562   7.167   2.686
 6881WAT     H120885   4.636   7.114   2.730
 6881WAT     H220886   4.551   7.254   2.734
 6882WAT      O20887   3.986   3.568   6.670
 6882WAT     H120888   4.043   3.509   6.727
 6882WAT     H220889   4.033   3.587   6.584
 6883WAT      O20890   1.486   0.222   0.679
 6883WAT     H120891   1.407   0.171   0.715
 6883WAT     H220892   1.570   0.175   0.706
 6884WAT      O20893   2.939   4.801   2.502
 6884WAT     H120894   3.027   4.756   2.514
 6884WAT     H220895   2.953   4.897   2.478
 6885WAT      O20896   4.249   5.058   7.563
 6885WAT     H120897   4.260   4.966   7.527
 6885WAT     H220898   4.189   5.056   7.643
 6886WAT      O20899   9.256   2.558   0.063
 6886WAT     H120900   9.166   2.532   0.029
 6886WAT     H220901   9.313   2.476   0.072
 6887WAT      O20902   0.789   0.117   6.197
 6887WAT     H120903   0.844   0.119   6.113
 6887WAT     H220904   0.849   0.131   6.276
 6888WAT      O20905   1.329   5.629   6.156
 6888WAT     H120906   1.272   5.691   6.103
 6888WAT     H220907   1.410   5.677   6.188
 6889WAT      O20908   6.639   8.417   6.652
 6889WAT     H120909   6.643   8.330   6.700
 6889WAT     H220910   6.717   8.473   6.677
 6890WAT      O20911   3.329   9.454   5.611
 6890WAT     H120912   3.361   9.543   5.642
 6890WAT     H220913   3.239   9.435   5.651
 6891WAT      O20914   7.140   0.335   3.804
 6891WAT     H120915   7.055   0.387   3.796
 6891WAT     H220916   7.217   0.392   3.774
 6892WAT      O20917   2.539   9.128   3.821
 6892WAT     H120918   2.466   9.062   3.841
 6892WAT     H220919   2.499   9.214   3.790
 6893WAT      O20920   1.627   3.506   0.204
 6893WAT     H120921   1.529   3.521   0.193
 6893WAT     H220922   1.661   3.452   0.127
 6894WAT      O20923   4.887   7.440   7.688
 6894WAT     H120924   4.958   7.451   7.757
 6894WAT     H220925   4.913   7.489   7.605
 6895WAT      O20926   3.348   3.978   9.829
 6895WAT     H120927   3.447   3.988   9.840
 6895WAT     H220928   3.326   3.882   9.812
 6896WAT      O20929   7.107   3.255   4.125
 6896WAT     H120930   7.192   3.208   4.103
 6896WAT     H220931   7.127   3.347   4.157
 6897WAT      O20932   6.805   2.494   2.854
 6897WAT     H120933   6.798   2.396   2.835
 6897WAT     H220934   6.761   2.514   2.942
 6898WAT      O20935   3.999   8.157   8.280
 6898WAT     H120936   4.096   8.177   8.267
 6898WAT     H220937   3.989   8.087   8.351
 6899WAT      O20938   9.296   8.048   9.683
 6899WAT     H120939   9.288   7.972   9.618
 6899WAT     H220940   9.391   8.054   9.715
 6900WAT      O20941   1.411   2.003   8.621
 6900WAT     H120942   1.508   2.013   8.641
 6900WAT     H220943   1.393   2.030   8.526
 6901WAT      O20944   3.964   8.011   8.652
 6901WAT     H120945   3.922   7.926   8.619
 6901WAT     H220946   4.055   8.021   8.613
 6902WAT      O20947   5.590   9.508   7.221
 6902WAT     H120948   5.557   9.577   7.156
 6902WAT     H220949   5.571   9.538   7.314
 6903WAT      O20950   3.769   5.699   0.696
 6903WAT     H120951   3.674   5.673   0.712
 6903WAT     H220952   3.783   5.718   0.599
 6904WAT      O20953   5.569   7.096   8.248
 6904WAT     H120954   5.625   7.014   8.241
 6904WAT     H220955   5.560   7.121   8.344
 6905WAT      O20956   9.189   7.485   5.446
 6905WAT     H120957   9.115   7.450   5.503
 6905WAT     H220958   9.269   7.505   5.503
 6906WAT      O20959   5.056   2.303   4.176
 6906WAT     H120960   5.089   2.285   4.268
 6906WAT     H220961   4.963   2.340   4.180
 6907WAT      O20962   6.314   6.287   5.852
 6907WAT     H120963   6.337   6.194   5.823
 6907WAT     H220964   6.262   6.284   5.937
 6908WAT      O20965   8.544   1.546   6.221
 6908WAT     H120966   8.461   1.495   6.246
 6908WAT     H220967   8.589   1.579   6.304
 6909WAT      O20968   9.383   6.321   1.553
 6909WAT     H120969   9.482   6.338   1.547
 6909WAT     H220970   9.339   6.346   1.467
 6910WAT      O20971   7.218   6.403   0.063
 6910WAT     H120972   7.183   6.494   0.039
 6910WAT     H220973   7.311   6.411   0.099
 6911WAT      O20974   9.544   5.329   6.939
 6911WAT     H120975   9.601   5.309   6.860
 6911WAT     H220976   9.473   5.395   6.913
 6912WAT      O20977   6.350   0.081   3.481
 6912WAT     H120978   6.284   0.102   3.409
 6912WAT     H220979   6.303   0.080   3.570
 6913WAT      O20980   7.710   7.610   7.287
 6913WAT     H120981   7.660   7.555   7.354
 6913WAT     H220982   7.788   7.655   7.331
 6914WAT      O20983   6.746   0.751   6.130
 6914WAT     H120984   6.809   0.737   6.054
 6914WAT     H220985   6.792   0.728   6.216
 6915WAT      O20986   9.736   3.111   0.195
 6915WAT     H120987   9.827   3.139   0.165
 6915WAT     H220988   9.739   3.084   0.291
 6916WAT      O20989   3.862   9.017   9.303
 6916WAT     H120990   3.913   9.063   9.375
 6916WAT     H220991   3.862   8.918   9.319
 6917WAT      O20992   2.388   7.535   4.889
 6917WAT     H120993   2.393   7.502   4.983
 6917WAT     H220994   2.303   7.504   4.847
 6918WAT      O20995   5.792   0.912   3.001
 6918WAT     H120996   5.751   0.858   2.928
 6918WAT     H220997   5.881   0.946   2.972
 6919WAT      O20998   5.182   7.725   8.777
 6919WAT     H120999   5.268   7.690   8.813
 6919WAT     H221000   5.122   7.751   8.852
 6920WAT      O21001   4.924   7.611   0.253
 6920WAT     H121002   4.949   7.515   0.271
 6920WAT     H221003   4.951   7.635   0.160
 6921WAT      O21004   9.769   3.927   6.728
 6921WAT     H121005   9.746   3.844   6.780
 6921WAT     H221006   9.717   4.005   6.765
 6922WAT      O21007   6.779   0.483   9.360
 6922WAT     H121008   6.839   0.490   9.281
 6922WAT     H221009   6.696   0.537   9.344
 6923WAT      O21010   9.244   8.377   1.510
 6923WAT     H121011   9.245   8.356   1.412
 6923WAT     H221012   9.154   8.355   1.548
 6924WAT      O21013   3.367   4.498   5.318
 6924WAT     H121014   3.392   4.594   5.306
 6924WAT     H221015   3.274   4.483   5.283
 6925WAT      O21016   2.532   6.431   6.713
 6925WAT     H121017   2.565   6.468   6.800
 6925WAT     H221018   2.599   6.451   6.641
 6926WAT      O21019   4.891   2.633   9.314
 6926WAT     H121020   4.966   2.591   9.367
 6926WAT     H221021   4.842   2.698   9.372
 6927WAT      O21022   5.965   7.596   9.550
 6927WAT     H121023   6.000   7.584   9.643
 6927WAT     H221024   5.880   7.650   9.554
 6928WAT      O21025   7.130   9.106   3.647
 6928WAT     H121026   7.140   9.205   3.658
 6928WAT     H221027   7.199   9.072   3.584
 6929WAT      O21028   6.130   4.915   1.913
 6929WAT     H121029   6.188   4.929   1.994
 6929WAT     H221030   6.105   5.004   1.875
 6930WAT      O21031   1.517   8.718   5.062
 6930WAT     H121032   1.535   8.746   4.967
 6930WAT     H221033   1.537   8.620   5.071
 6931WAT      O21034   9.802   4.944   8.926
 6931WAT     H121035   9.856   4.956   9.010
 6931WAT     H221036   9.775   4.848   8.919
 6932WAT      O21037   3.214   5.918   0.619
 6932WAT     H121038   3.305   5.919   0.662
 6932WAT     H221039   3.190   6.011   0.591
 6933WAT      O21040   7.808   2.197   4.962
 6933WAT     H121041   7.708   2.192   4.958
 6933WAT     H221042   7.837   2.292   4.946
 6934WAT      O21043   6.886   0.623   1.025
 6934WAT     H121044   6.979   0.616   1.062
 6934WAT     H221045   6.842   0.533   1.030
 6935WAT      O21046   5.634   6.157   9.794
 6935WAT     H121047   5.551   6.123   9.749
 6935WAT     H221048   5.694   6.079   9.815
 6936WAT      O21049   1.043   6.994   5.705
 6936WAT     H121050   1.111   6.971   5.636
 6936WAT     H221051   0.971   7.049   5.664
 6937WAT      O21052   5.276   4.611   0.870
 6937WAT     H121053   5.351   4.677   0.881
 6937WAT     H221054   5.230   4.597   0.958
 6938WAT      O21055   8.823   9.042   8.933
 6938WAT     H121056   8.735   9.077   8.963
 6938WAT     H221057   8.814   8.949   8.900
 6939WAT      O21058   1.081   2.206   5.735
 6939WAT     H121059   1.055   2.282   5.794
 6939WAT     H221060   1.105   2.242   5.644
 6940WAT      O21061   0.691   8.068   8.607
 6940WAT     H121062   0.730   8.108   8.690
 6940WAT     H221063   0.758   8.070   8.533
 6941WAT      O21064   1.459   6.279   4.132
 6941WAT     H121065   1.372   6.265   4.178
 6941WAT     H221066   1.521   6.329   4.192
 6942WAT      O21067   9.157   3.687   7.114
 6942WAT     H121068   9.078   3.683   7.053
 6942WAT     H221069   9.170   3.598   7.157
 6943WAT      O21070   7.595   6.648   9.486
 6943WAT     H121071   7.661   6.692   9.548
 6943WAT     H221072   7.585   6.552   9.511
 6944WAT      O21073   1.326   9.766   4.005
 6944WAT     H121074   1.420   9.735   4.020
 6944WAT     H221075   1.294   9.815   4.086
 6945WAT      O21076   0.931   3.556   2.032
 6945WAT     H121077   0.942   3.492   2.108
 6945WAT     H221078   0.925   3.505   1.946
 6946WAT      O21079   7.936   5.242   2.424
 6946WAT     H121080   7.946   5.143   2.418
 6946WAT     H221081   7.985   5.275   2.505
 6947WAT      O21082   3.930   0.445   7.434
 6947WAT     H121083   3.847   0.444   7.378
 6947WAT     H221084   3.960   0.351   7.452
 6948WAT      O21085   9.399   0.567   5.078
 6948WAT     H121086   9.475   0.589   5.016
 6948WAT     H221087   9.430   0.575   5.172
 6949WAT      O21088   0.864   5.778   4.881
 6949WAT     H121089   0.886   5.830   4.963
 6949WAT     H221090   0.913   5.818   4.803
 6950WAT      O21091   2.611   8.602   2.714
 6950WAT     H121092   2.695   8.601   2.660
 6950WAT     H221093   2.632   8.618   2.810
 6951WAT      O21094   3.707   1.926   8.972
 6951WAT     H121095   3.692   2.025   8.977
 6951WAT     H221096   3.619   1.880   8.969
 6952WAT      O21097   2.026   3.500   5.350
 6952WAT     H121098   2.036   3.487   5.252
 6952WAT     H221099   2.083   3.577   5.380
 6953WAT      O21100   3.606   0.393   3.704
 6953WAT     H121101   3.664   0.440   3.770
 6953WAT     H221102   3.594   0.449   3.623
 6954WAT      O21103   1.557   6.521   1.477
 6954WAT     H121104   1.507   6.577   1.410
 6954WAT     H221105   1.652   6.512   1.449
 6955WAT      O21106   8.044   9.059   9.103
 6955WAT     H121107   7.954   9.095   9.076
 6955WAT     H221108   8.056   8.967   9.065
 6956WAT      O21109   1.322   3.493   0.433
 6956WAT     H121110   1.384   3.551   0.485
 6956WAT     H221111   1.229   3.528   0.441
 6957WAT      O21112   6.347   2.571   7.450
 6957WAT     H121113   6.429   2.603   7.497
 6957WAT     H221114   6.293   2.514   7.511
 6958WAT      O21115   8.000   7.141   2.087
 6958WAT     H121116   7.903   7.130   2.107
 6958WAT     H221117   8.011   7.184   1.998
 6959WAT      O21118   9.258   5.774   6.313
 6959WAT     H121119   9.269   5.811   6.221
 6959WAT     H221120   9.299   5.683   6.318
 6960WAT      O21121   0.047   9.545   8.532
 6960WAT     H121122  -0.047   9.576   8.521
 6960WAT     H221123   0.108   9.602   8.478
 6961WAT      O21124   8.744   6.901   6.928
 6961WAT     H121125   8.703   6.841   6.998
 6961WAT     H221126   8.821   6.855   6.886
 6962WAT      O21127   0.298   4.759   2.899
 6962WAT     H121128   0.396   4.777   2.899
 6962WAT     H221129   0.271   4.720   2.987
 6963WAT      O21130   4.043   4.904   8.597
 6963WAT     H121131   4.057   4.805   8.600
 6963WAT     H221132   4.091   4.942   8.518
 6964WAT      O21133   0.652   1.060   5.743
 6964WAT     H121134   0.563   1.075   5.700
 6964WAT     H221135   0.656   0.967   5.780
 6965WAT      O21136   1.869   3.718   2.120
 6965WAT     H121137   1.956   3.765   2.107
 6965WAT     H221138   1.798   3.767   2.069
 6966WAT      O21139   3.496   0.242   4.489
 6966WAT     H121140   3.537   0.259   4.399
 6966WAT     H221141   3.556   0.183   4.542
 6967WAT      O21142   7.424   9.566   2.102
 6967WAT     H121143   7.385   9.626   2.173
 6967WAT     H221144   7.370   9.575   2.018
 6968WAT      O21145   1.557   3.856   5.984
 6968WAT     H121146   1.597   3.764   5.983
 6968WAT     H221147   1.473   3.856   5.929
 6969WAT      O21148   9.165   6.875   2.005
 6969WAT     H121149   9.152   6.777   1.992
 6969WAT     H221150   9.124   6.924   1.929
 6970WAT      O21151   3.349   7.268   4.743
 6970WAT     H121152   3.397   7.283   4.657
 6970WAT     H221153   3.412   7.285   4.819
 6971WAT      O21154   2.766   9.172   9.095
 6971WAT     H121155   2.828   9.159   9.172
 6971WAT     H221156   2.700   9.244   9.117
 6972WAT      O21157   8.393   7.167   0.777
 6972WAT     H121158   8.485   7.138   0.752
 6972WAT     H221159   8.356   7.228   0.707
 6973WAT      O21160   2.395   3.644   2.746
 6973WAT     H121161   2.410   3.681   2.654
 6973WAT     H221162   2.301   3.660   2.774
 6974WAT      O21163   9.829   6.579   5.070
 6974WAT     H121164   9.772   6.652   5.109
 6974WAT     H221165   9.802   6.563   4.975
 6975WAT      O21166   2.880   5.251   8.127
 6975WAT     H121167   2.789   5.290   8.116
 6975WAT     H221168   2.920   5.282   8.213
 6976WAT      O21169   9.816   2.051   8.024
 6976WAT     H121170   9.803   2.009   7.935
 6976WAT     H221171   9.910   2.082   8.034
 6977WAT      O21172   7.595   4.709   1.844
 6977WAT     H121173   7.587   4.751   1.934
 6977WAT     H221174   7.688   4.675   1.831
 6978WAT      O21175   8.798   0.141   5.072
 6978WAT     H121176   8.813   0.223   5.017
 6978WAT     H221177   8.880   0.122   5.126
 6979WAT      O21178   2.538   7.761   3.354
 6979WAT     H121179   2.444   7.762   3.389
 6979WAT     H221180   2.536   7.755   3.254
 6980WAT      O21181   6.446   4.587   5.748
 6980WAT     H121182   6.487   4.669   5.707
 6980WAT     H221183   6.346   4.591   5.739
 6981WAT      O21184   3.388   2.323   6.755
 6981WAT     H121185   3.373   2.245   6.694
 6981WAT     H221186   3.396   2.291   6.849
 6982WAT      O21187   1.118   1.378   3.160
 6982WAT     H121188   1.161   1.292   3.130
 6982WAT     H221189   1.177   1.455   3.134
 6983WAT      O21190   5.652   7.121   7.263
 6983WAT     H121191   5.734   7.065   7.269
 6983WAT     H221192   5.670   7.210   7.306
 6984WAT      O21193   1.389   9.356   1.070
 6984WAT     H121194   1.345   9.271   1.101
 6984WAT     H221195   1.387   9.360   0.970
 6985WAT      O21196   6.728   7.785   1.458
 6985WAT     H121197   6.691   7.794   1.365
 6985WAT     H221198   6.664   7.734   1.515
 6986WAT      O21199   7.142   3.332   2.059
 6986WAT     H121200   7.102   3.254   2.107
 6986WAT     H221201   7.106   3.417   2.098
 6987WAT      O21202   7.825   3.573   8.628
 6987WAT     H121203   7.863   3.580   8.535
 6987WAT     H221204   7.729   3.545   8.622
 6988WAT      O21205   6.507   6.037   9.108
 6988WAT     H121206   6.550   5.953   9.075
 6988WAT     H221207   6.458   6.019   9.193
 6989WAT      O21208   1.858   4.720   8.450
 6989WAT     H121209   1.792   4.686   8.383
 6989WAT     H221210   1.866   4.656   8.525
 6990WAT      O21211   6.570   3.051   6.325
 6990WAT     H121212   6.477   3.085   6.306
 6990WAT     H221213   6.571   2.952   6.319
 6991WAT      O21214   1.731   6.770   4.062
 6991WAT     H121215   1.828   6.791   4.047
 6991WAT     H221216   1.714   6.675   4.038
 6992WAT      O21217   4.167   4.581   7.802
 6992WAT     H121218   4.255   4.536   7.819
 6992WAT     H221219   4.159   4.662   7.860
 6993WAT      O21220   9.403   4.213   8.122
 6993WAT     H121221   9.327   4.254   8.173
 6993WAT     H221222   9.426   4.124   8.163
 6994WAT      O21223   2.919   0.063   0.840
 6994WAT     H121224   3.011   0.076   0.877
 6994WAT     H221225   2.883   0.151   0.808
 6995WAT      O21226   8.652   0.891   7.748
 6995WAT     H121227   8.733   0.923   7.797
 6995WAT     H221228   8.651   0.791   7.749
 6996WAT      O21229   9.168   4.235   0.613
 6996WAT     H121230   9.218   4.252   0.529
 6996WAT     H221231   9.204   4.292   0.686
 6997WAT      O21232   6.192   6.842   5.845
 6997WAT     H121233   6.196   6.742   5.845
 6997WAT     H221234   6.285   6.879   5.847
 6998WAT      O21235   2.684   5.440   5.670
 6998WAT     H121236   2.707   5.537   5.680
 6998WAT     H221237   2.642   5.424   5.580
 6999WAT      O21238   4.970   2.856   8.647
 6999WAT     H121239   4.984   2.852   8.548
 6999WAT     H221240   4.881   2.897   8.666
 7000WAT      O21241   8.676   7.807   8.563
 7000WAT     H121242   8.659   7.881   8.629
 7000WAT     H221243   8.696   7.846   8.473
 7001WAT      O21244   4.855   5.125   3.826
 7001WAT     H121245   4.856   5.106   3.924
 7001WAT     H221246   4.769   5.092   3.787
 7002WAT      O21247   7.168   5.583   5.910
 7002WAT     H121248   7.249   5.641   5.916
 7002WAT     H221249   7.127   5.592   5.819
 7003WAT      O21250   5.167   0.777   4.926
 7003WAT     H121251   5.119   0.756   4.841
 7003WAT     H221252   5.209   0.693   4.961
 7004WAT      O21253   8.877   4.709   1.892
 7004WAT     H121254   8.926   4.761   1.963
 7004WAT     H221255   8.780   4.733   1.893
 7005WAT      O21256   2.165   7.619   3.238
 7005WAT     H121257   2.174   7.520   3.233
 7005WAT     H221258   2.207   7.653   3.322
 7006WAT      O21259   0.756   9.131   7.864
 7006WAT     H121260   0.776   9.156   7.958
 7006WAT     H221261   0.673   9.179   7.833
 7007WAT      O21262   9.506   2.892   1.038
 7007WAT     H121263   9.548   2.892   1.129
 7007WAT     H221264   9.494   2.798   1.007
 7008WAT      O21265   2.757   7.167   7.502
 7008WAT     H121266   2.686   7.114   7.549
 7008WAT     H221267   2.752   7.150   7.404
 7009WAT      O21268   7.139   4.899   7.692
 7009WAT     H121269   7.164   4.802   7.696
 7009WAT     H221270   7.050   4.913   7.735
 7010WAT      O21271   3.937   0.699   0.553
 7010WAT     H121272   3.864   0.677   0.618
 7010WAT     H221273   3.901   0.757   0.480
 7011WAT      O21274   3.472   4.703   9.337
 7011WAT     H121275   3.564   4.720   9.372
 7011WAT     H221276   3.469   4.722   9.239
 7012WAT      O21277   6.312   8.668   7.736
 7012WAT     H121278   6.383   8.726   7.775
 7012WAT     H221279   6.301   8.586   7.793
 7013WAT      O21280   8.755   5.934   0.253
 7013WAT     H121281   8.724   6.029   0.251
 7013WAT     H221282   8.678   5.873   0.236
 7014WAT      O21283   4.456   5.792   1.501
 7014WAT     H121284   4.481   5.799   1.404
 7014WAT     H221285   4.421   5.880   1.532
 7015WAT      O21286   8.681   1.140   3.672
 7015WAT     H121287   8.653   1.045   3.676
 7015WAT     H221288   8.639   1.191   3.747
 7016WAT      O21289   8.140   8.468   2.363
 7016WAT     H121290   8.106   8.535   2.429
 7016WAT     H221291   8.219   8.420   2.402
 7017WAT      O21292   6.773   6.014   6.175
 7017WAT     H121293   6.694   6.053   6.222
 7017WAT     H221294   6.775   6.046   6.080
 7018WAT      O21295   6.697   1.087   5.877
 7018WAT     H121296   6.716   1.185   5.874
 7018WAT     H221297   6.781   1.036   5.857
 7019WAT      O21298   3.026   8.580   5.554
 7019WAT     H121299   2.990   8.630   5.632
 7019WAT     H221300   3.120   8.610   5.536
 7020WAT      O21301   6.060   1.830   4.032
 7020WAT     H121302   6.110   1.887   4.097
 7020WAT     H221303   5.965   1.859   4.029
 7021WAT      O21304   3.509   6.203   6.223
 7021WAT     H121305   3.580   6.138   6.197
 7021WAT     H221306   3.477   6.252   6.142
 7022WAT      O21307   7.767   1.840   4.684
 7022WAT     H121308   7.823   1.815   4.763
 7022WAT     H221309   7.679   1.793   4.690
 7023WAT      O21310   7.627   0.171   0.139
 7023WAT     H121311   7.688   0.248   0.124
 7023WAT     H221312   7.610   0.124   0.052
 7024WAT      O21313   3.593   7.942   7.561
 7024WAT     H121314   3.543   8.027   7.550
 7024WAT     H221315   3.685   7.962   7.595
 7025WAT      O21316   8.643   3.431   8.043
 7025WAT     H121317   8.659   3.471   8.134
 7025WAT     H221318   8.712   3.466   7.980
 7026WAT      O21319   6.724   8.598   9.225
 7026WAT     H121320   6.649   8.650   9.265
 7026WAT     H221321   6.800   8.660   9.205
 7027WAT      O21322   3.461   3.527   6.964
 7027WAT     H121323   3.491   3.508   6.871
 7027WAT     H221324   3.402   3.453   6.996
 7028WAT      O21325   5.677   7.871   7.656
 7028WAT     H121326   5.580   7.870   7.635
 7028WAT     H221327   5.690   7.860   7.755
 7029WAT      O21328   8.911   8.150   9.426
 7029WAT     H121329   8.862   8.228   9.387
 7029WAT     H221330   8.881   8.134   9.520
 7030WAT      O21331   0.957   9.141   1.757
 7030WAT     H121332   1.031   9.156   1.821
 7030WAT     H221333   0.994   9.133   1.664
 7031WAT      O21334   6.848   4.568   2.648
 7031WAT     H121335   6.854   4.668   2.653
 7031WAT     H221336   6.753   4.540   2.662
 7032WAT      O21337   8.830   7.023   5.735
 7032WAT     H121338   8.909   6.970   5.705
 7032WAT     H221339   8.788   6.978   5.813
 7033WAT      O21340   2.686   2.925   1.177
 7033WAT     H121341   2.674   3.023   1.192
 7033WAT     H221342   2.608   2.888   1.127
 7034WAT      O21343   1.725   1.728   1.628
 7034WAT     H121344   1.792   1.686   1.567
 7034WAT     H221345   1.762   1.732   1.721
 7035WAT      O21346   6.933   3.336   0.548
 7035WAT     H121347   7.019   3.324   0.497
 7035WAT     H221348   6.863   3.373   0.487
 7036WAT      O21349   3.992   3.631   6.105
 7036WAT     H121350   3.947   3.717   6.083
 7036WAT     H221351   3.925   3.565   6.138
 7037WAT      O21352   2.890   3.116   8.488
 7037WAT     H121353   2.916   3.190   8.551
 7037WAT     H221354   2.904   3.028   8.533
 7038WAT      O21355   8.488   3.040   5.562
 7038WAT     H121356   8.490   2.951   5.516
 7038WAT     H221357   8.421   3.099   5.517
 7039WAT      O21358   8.367   6.786   9.707
 7039WAT     H121359   8.352   6.796   9.805
 7039WAT     H221360   8.429   6.857   9.674
 7040WAT      O21361   5.157   5.463   3.443
 7040WAT     H121362   5.186   5.483   3.349
 7040WAT     H221363   5.065   5.425   3.442
 7041WAT      O21364   2.912   5.524   4.584
 7041WAT     H121365   2.981   5.536   4.655
 7041WAT     H221366   2.905   5.427   4.559
 7042WAT      O21367   5.779   8.142   6.658
 7042WAT     H121368   5.722   8.061   6.668
 7042WAT     H221369   5.847   8.126   6.587
 7043WAT      O21370   5.879   1.507   1.735
 7043WAT     H121371   5.948   1.475   1.670
 7043WAT     H221372   5.874   1.607   1.731
 7044WAT      O21373   9.511   2.524   9.214
 7044WAT     H121374   9.425   2.541   9.262
 7044WAT     H221375   9.522   2.425   9.201
 7045WAT      O21376   2.159   2.123   1.440
 7045WAT     H121377   2.082   2.164   1.393
 7045WAT     H221378   2.212   2.193   1.487
 7046WAT      O21379   5.642   1.802   5.152
 7046WAT     H121380   5.653   1.879   5.215
 7046WAT     H221381   5.728   1.752   5.145
 7047WAT      O21382   3.741   0.596   4.506
 7047WAT     H121383   3.700   0.682   4.475
 7047WAT     H221384   3.687   0.558   4.581
 7048WAT      O21385   5.182   1.359   1.766
 7048WAT     H121386   5.147   1.289   1.828
 7048WAT     H221387   5.272   1.331   1.732
 7049WAT      O21388   7.862   4.487   8.606
 7049WAT     H121389   7.896   4.428   8.532
 7049WAT     H221390   7.763   4.499   8.596
 7050WAT      O21391   7.507   4.061   2.068
 7050WAT     H121392   7.510   4.106   1.979
 7050WAT     H221393   7.422   4.009   2.076
 7051WAT      O21394   9.862   7.992   7.194
 7051WAT     H121395   9.868   7.957   7.100
 7051WAT     H221396   9.766   8.007   7.218
 7052WAT      O21397   1.459   1.414   4.115
 7052WAT     H121398   1.523   1.465   4.172
 7052WAT     H221399   1.458   1.452   4.023
 7053WAT      O21400   2.907   4.067   9.290
 7053WAT     H121401   2.829   4.006   9.303
 7053WAT     H221402   2.877   4.162   9.305
 7054WAT      O21403   0.264   1.333   5.817
 7054WAT     H121404   0.295   1.255   5.871
 7054WAT     H221405   0.236   1.407   5.878
 7055WAT      O21406   8.807   0.371   0.921
 7055WAT     H121407   8.865   0.426   0.860
 7055WAT     H221408   8.835   0.386   1.016
 7056WAT      O21409   2.836   8.520   1.266
 7056WAT     H121410   2.897   8.492   1.192
 7056WAT     H221411   2.890   8.559   1.341
 7057WAT      O21412   8.305   1.000   4.579
 7057WAT     H121413   8.368   1.077   4.584
 7057WAT     H221414   8.322   0.949   4.495
 7058WAT      O21415   8.105   9.186   2.581
 7058WAT     H121416   8.035   9.209   2.513
 7058WAT     H221417   8.141   9.270   2.622
 7059WAT      O21418   4.572   8.789   0.193
 7059WAT     H121419   4.514   8.833   0.261
 7059WAT     H221420   4.595   8.855   0.121
 7060WAT      O21421   4.552   2.098   2.770
 7060WAT     H121422   4.563   2.197   2.767
 7060WAT     H221423   4.454   2.075   2.770
 7061WAT      O21424   6.533   2.008   2.081
 7061WAT     H121425   6.563   1.919   2.117
 7061WAT     H221426   6.504   1.997   1.986
 7062WAT      O21427   7.710   1.047   3.490
 7062WAT     H121428   7.705   0.948   3.482
 7062WAT     H221429   7.717   1.073   3.586
 7063WAT      O21430   3.918   1.292   8.644
 7063WAT     H121431   4.016   1.298   8.626
 7063WAT     H221432   3.899   1.327   8.737
 7064WAT      O21433   1.515   6.480   9.876
 7064WAT     H121434   1.502   6.434   9.788
 7064WAT     H221435   1.433   6.532   9.899
 7065WAT      O21436   5.669   6.619   5.897
 7065WAT     H121437   5.762   6.595   5.925
 7065WAT     H221438   5.603   6.567   5.952
 7066WAT      O21439   8.239   4.444   3.234
 7066WAT     H121440   8.261   4.355   3.273
 7066WAT     H221441   8.315   4.477   3.178
 7067WAT      O21442   6.166   3.325   9.009
 7067WAT     H121443   6.098   3.326   9.081
 7067WAT     H221444   6.193   3.230   8.991
 7068WAT      O21445   9.120   1.319   2.879
 7068WAT     H121446   9.084   1.291   2.789
 7068WAT     H221447   9.215   1.289   2.887
 7069WAT      O21448   1.845   6.521   3.264
 7069WAT     H121449   1.896   6.595   3.219
 7069WAT     H221450   1.748   6.530   3.242
 7070WAT      O21451   6.384   6.325   9.318
 7070WAT     H121452   6.395   6.375   9.404
 7070WAT     H221453   6.341   6.236   9.337
 7071WAT      O21454   4.651   4.556   4.607
 7071WAT     H121455   4.730   4.516   4.561
 7071WAT     H221456   4.583   4.485   4.626
 7072WAT      O21457   1.738   7.585   6.747
 7072WAT     H121458   1.749   7.499   6.797
 7072WAT     H221459   1.803   7.652   6.782
 7073WAT      O21460   7.782   1.144   4.874
 7073WAT     H121461   7.784   1.194   4.787
 7073WAT     H221462   7.687   1.124   4.898
 7074WAT      O21463   3.533   3.823   2.611
 7074WAT     H121464   3.612   3.766   2.589
 7074WAT     H221465   3.466   3.769   2.662
 7075WAT      O21466   3.430   0.457   6.838
 7075WAT     H121467   3.356   0.470   6.905
 7075WAT     H221468   3.449   0.359   6.829
 7076WAT      O21469   9.045   0.940   6.296
 7076WAT     H121470   9.092   0.956   6.383
 7076WAT     H221471   8.979   0.865   6.307
 7077WAT      O21472   1.160   8.870   6.111
 7077WAT     H121473   1.106   8.898   6.191
 7077WAT     H221474   1.233   8.808   6.141
 7078WAT      O21475   6.855   5.092   4.831
 7078WAT     H121476   6.864   4.998   4.863
 7078WAT     H221477   6.872   5.155   4.906
 7079WAT      O21478   8.802   7.394   1.560
 7079WAT     H121479   8.806   7.347   1.472
 7079WAT     H221480   8.709   7.391   1.596
 7080WAT      O21481   1.226   8.024   6.367
 7080WAT     H121482   1.262   8.049   6.456
 7080WAT     H221483   1.278   8.070   6.295
 7081WAT      O21484   0.647   7.173   4.791
 7081WAT     H121485   0.740   7.153   4.760
 7081WAT     H221486   0.595   7.088   4.799
 7082WAT      O21487   8.718   2.577   2.747
 7082WAT     H121488   8.684   2.618   2.662
 7082WAT     H221489   8.642   2.540   2.800
 7083WAT      O21490   1.724   6.301   3.584
 7083WAT     H121491   1.715   6.398   3.602
 7083WAT     H221492   1.635   6.256   3.593
 7084WAT      O21493   0.543   2.254   8.123
 7084WAT     H121494   0.528   2.250   8.024
 7084WAT     H221495   0.613   2.322   8.143
 7085WAT      O21496   3.938   1.838   8.865
 7085WAT     H121497   3.984   1.831   8.953
 7085WAT     H221498   3.841   1.857   8.878
 7086WAT      O21499   0.262   7.837   7.867
 7086WAT     H121500   0.304   7.867   7.782
 7086WAT     H221501   0.227   7.917   7.917
 7087WAT      O21502   7.883   3.136   9.703
 7087WAT     H121503   7.940   3.167   9.780
 7087WAT     H221504   7.844   3.047   9.725
 7088WAT      O21505   3.574   2.986   3.245
 7088WAT     H121506   3.526   2.923   3.184
 7088WAT     H221507   3.592   3.072   3.196
 7089WAT      O21508   3.387   2.284   6.237
 7089WAT     H121509   3.369   2.361   6.298
 7089WAT     H221510   3.447   2.314   6.163
 7090WAT      O21511   7.026   5.483   8.427
 7090WAT     H121512   7.117   5.522   8.424
 7090WAT     H221513   7.033   5.383   8.437
 7091WAT      O21514   2.941   6.709   7.049
 7091WAT     H121515   3.034   6.701   7.085
 7091WAT     H221516   2.894   6.786   7.092
 7092WAT      O21517   0.837   1.499   9.253
 7092WAT     H121518   0.786   1.511   9.168
 7092WAT     H221519   0.921   1.448   9.235
 7093WAT      O21520   2.939   0.720   3.061
 7093WAT     H121521   2.863   0.757   3.114
 7093WAT     H221522   2.957   0.626   3.089
 7094WAT      O21523   4.577   8.321   1.536
 7094WAT     H121524   4.483   8.343   1.509
 7094WAT     H221525   4.630   8.405   1.544
 7095WAT      O21526   9.420   2.957   6.952
 7095WAT     H121527   9.512   2.994   6.941
 7095WAT     H221528   9.407   2.879   6.891
 7096WAT      O21529   5.339   7.751   4.336
 7096WAT     H121530   5.318   7.809   4.415
 7096WAT     H221531   5.425   7.702   4.353
 7097WAT      O21532   1.350   8.776   1.454
 7097WAT     H121533   1.281   8.748   1.521
 7097WAT     H221534   1.381   8.695   1.404
 7098WAT      O21535   2.950   9.053   8.348
 7098WAT     H121536   2.862   9.047   8.394
 7098WAT     H221537   2.938   9.033   8.251
 7099WAT      O21538   9.630   2.442   4.085
 7099WAT     H121539   9.627   2.342   4.084
 7099WAT     H221540   9.722   2.473   4.107
 7100WAT      O21541   9.004   6.733   7.807
 7100WAT     H121542   8.999   6.833   7.806
 7100WAT     H221543   9.000   6.701   7.902
 7101WAT      O21544   7.346   7.187   1.076
 7101WAT     H121545   7.437   7.195   1.118
 7101WAT     H221546   7.355   7.163   0.980
 7102WAT      O21547   1.920   6.256   9.472
 7102WAT     H121548   1.878   6.333   9.423
 7102WAT     H221549   1.851   6.186   9.489
 7103WAT      O21550   2.504   0.466   4.218
 7103WAT     H121551   2.457   0.509   4.141
 7103WAT     H221552   2.601   0.453   4.196
 7104WAT      O21553   6.389   2.379   0.953
 7104WAT     H121554   6.480   2.391   0.993
 7104WAT     H221555   6.378   2.285   0.921
 7105WAT      O21556   6.686   4.611   9.702
 7105WAT     H121557   6.626   4.598   9.623
 7105WAT     H221558   6.715   4.706   9.706
 7106WAT      O21559   1.468   0.531   6.596
 7106WAT     H121560   1.419   0.505   6.513
 7106WAT     H221561   1.406   0.528   6.674
 7107WAT      O21562   9.056   3.642   0.762
 7107WAT     H121563   9.039   3.549   0.730
 7107WAT     H221564   9.137   3.679   0.717
 7108WAT      O21565   1.886   8.194   7.075
 7108WAT     H121566   1.822   8.203   7.151
 7108WAT     H221567   1.855   8.252   6.999
 7109WAT      O21568   7.008   0.517   2.935
 7109WAT     H121569   7.012   0.419   2.955
 7109WAT     H221570   7.079   0.541   2.869
 7110WAT      O21571   7.593   2.879   6.739
 7110WAT     H121572   7.691   2.876   6.758
 7110WAT     H221573   7.546   2.929   6.811
 7111WAT      O21574   6.587   7.250   6.524
 7111WAT     H121575   6.621   7.330   6.572
 7111WAT     H221576   6.517   7.278   6.458
 7112WAT      O21577   8.858   1.880   7.594
 7112WAT     H121578   8.899   1.847   7.679
 7112WAT     H221579   8.789   1.949   7.615
 7113WAT      O21580   1.047   3.066   8.367
 7113WAT     H121581   0.975   3.127   8.332
 7113WAT     H221582   1.083   3.102   8.452
 7114WAT      O21583   5.724   9.010   4.881
 7114WAT     H121584   5.697   9.068   4.957
 7114WAT     H221585   5.703   8.915   4.902
 7115WAT      O21586   0.937   9.166   5.639
 7115WAT     H121587   0.924   9.171   5.738
 7115WAT     H221588   0.847   9.159   5.594
 7116WAT      O21589   0.502   9.595   8.542
 7116WAT     H121590   0.439   9.520   8.558
 7116WAT     H221591   0.505   9.616   8.444
 7117WAT      O21592   0.480   5.082   3.000
 7117WAT     H121593   0.528   5.026   3.068
 7117WAT     H221594   0.518   5.065   2.910
 7118WAT      O21595   1.948   3.564   4.229
 7118WAT     H121596   1.886   3.622   4.281
 7118WAT     H221597   1.896   3.512   4.162
 7119WAT      O21598   2.517   2.131   8.156
 7119WAT     H121599   2.523   2.208   8.094
 7119WAT     H221600   2.572   2.149   8.238
 7120WAT      O21601   7.468   2.096   1.199
 7120WAT     H121602   7.404   2.046   1.257
 7120WAT     H221603   7.512   2.168   1.252
 7121WAT      O21604   0.552   7.623   7.568
 7121WAT     H121605   0.608   7.633   7.485
 7121WAT     H221606   0.597   7.671   7.643
 7122WAT      O21607   0.609   7.476   0.161
 7122WAT     H121608   0.590   7.426   0.246
 7122WAT     H221609   0.606   7.413   0.084
 7123WAT      O21610   7.070   9.708   1.045
 7123WAT     H121611   7.166   9.718   1.072
 7123WAT     H221612   7.012   9.710   1.127
 7124WAT      O21613   2.517   5.600   8.357
 7124WAT     H121614   2.555   5.674   8.413
 7124WAT     H221615   2.574   5.587   8.275
 7125WAT      O21616   4.816   4.604   0.767
 7125WAT     H121617   4.735   4.545   0.764
 7125WAT     H221618   4.831   4.635   0.861
 7126WAT      O21619   2.865   4.007   9.700
 7126WAT     H121620   2.955   4.048   9.686
 7126WAT     H221621   2.861   3.918   9.655
 7127WAT      O21622   0.809   7.691   4.411
 7127WAT     H121623   0.774   7.764   4.470
 7127WAT     H221624   0.777   7.602   4.444
 7128WAT      O21625   0.269   5.310   9.698
 7128WAT     H121626   0.287   5.213   9.684
 7128WAT     H221627   0.225   5.348   9.617
 7129WAT      O21628   8.892   1.055   5.776
 7129WAT     H121629   8.983   1.095   5.763
 7129WAT     H221630   8.836   1.117   5.832
 7130WAT      O21631   2.829   3.287   4.455
 7130WAT     H121632   2.744   3.288   4.508
 7130WAT     H221633   2.826   3.361   4.387
 7131WAT      O21634   2.243   3.262   5.840
 7131WAT     H121635   2.291   3.186   5.797
 7131WAT     H221636   2.196   3.316   5.770
 7132WAT      O21637   6.528   7.462   9.740
 7132WAT     H121638   6.606   7.520   9.763
 7132WAT     H221639   6.558   7.386   9.683
 7133WAT      O21640   4.825   4.502   1.243
 7133WAT     H121641   4.770   4.563   1.300
 7133WAT     H221642   4.922   4.515   1.264
 7134WAT      O21643   4.634   6.773   2.778
 7134WAT     H121644   4.641   6.872   2.773
 7134WAT     H221645   4.702   6.738   2.843
 7135WAT      O21646   3.755   8.008   3.724
 7135WAT     H121647   3.725   8.068   3.650
 7135WAT     H221648   3.844   7.969   3.702
 7136WAT      O21649   2.289   0.105   8.376
 7136WAT     H121650   2.363   0.083   8.313
 7136WAT     H221651   2.325   0.113   8.469
 7137WAT      O21652   4.741   5.024   0.309
 7137WAT     H121653   4.681   5.030   0.388
 7137WAT     H221654   4.687   5.032   0.225
 7138WAT      O21655   7.217   2.943   6.083
 7138WAT     H121656   7.309   2.971   6.108
 7138WAT     H221657   7.152   3.016   6.107
 7139WAT      O21658   3.827   1.936   0.967
 7139WAT     H121659   3.904   1.904   1.023
 7139WAT     H221660   3.808   2.032   0.987
 7140WAT      O21661   8.322   8.868   1.103
 7140WAT     H121662   8.367   8.790   1.058
 7140WAT     H221663   8.243   8.835   1.154
 7141WAT      O21664   3.054   3.188   1.812
 7141WAT     H121665   3.086   3.279   1.841
 7141WAT     H221666   3.133   3.133   1.783
 7142WAT      O21667   3.099   8.152   6.511
 7142WAT     H121668   3.056   8.127   6.424
 7142WAT     H221669   3.161   8.078   6.540
 7143WAT      O21670   5.385   5.993   7.721
 7143WAT     H121671   5.478   5.972   7.691
 7143WAT     H221672   5.319   5.947   7.661
 7144WAT      O21673   9.234   2.644   8.289
 7144WAT     H121674   9.161   2.622   8.224
 7144WAT     H221675   9.275   2.559   8.322
 7145WAT      O21676   9.239   8.370   1.202
 7145WAT     H121677   9.265   8.463   1.231
 7145WAT     H221678   9.195   8.375   1.112
 7146WAT      O21679   0.948   3.565   4.311
 7146WAT     H121680   1.000   3.630   4.365
 7146WAT     H221681   0.982   3.473   4.326
 7147WAT      O21682   7.693   2.516   1.539
 7147WAT     H121683   7.615   2.506   1.477
 7147WAT     H221684   7.702   2.611   1.567
 7148WAT      O21685   8.799   4.158   4.117
 7148WAT     H121686   8.816   4.199   4.028
 7148WAT     H221687   8.848   4.211   4.187
 7149WAT      O21688   2.881   6.655   8.641
 7149WAT     H121689   2.844   6.704   8.562
 7149WAT     H221690   2.931   6.574   8.610
 7150WAT      O21691   6.876   1.430   2.452
 7150WAT     H121692   6.929   1.346   2.459
 7150WAT     H221693   6.804   1.429   2.522
 7151WAT      O21694   8.426   0.838   9.037
 7151WAT     H121695   8.489   0.809   8.965
 7151WAT     H221696   8.342   0.785   9.032
 7152WAT      O21697   4.482   8.083   2.577
 7152WAT     H121698   4.495   8.044   2.668
 7152WAT     H221699   4.515   8.177   2.575
 7153WAT      O21700   1.266   5.135   3.427
 7153WAT     H121701   1.212   5.087   3.496
 7153WAT     H221702   1.355   5.159   3.465
 7154WAT      O21703   4.761   8.684   3.957
 7154WAT     H121704   4.703   8.733   4.022
 7154WAT     H221705   4.785   8.594   3.994
 7155WAT      O21706   2.637   9.623   2.687
 7155WAT     H121707   2.702   9.558   2.727
 7155WAT     H221708   2.686   9.683   2.624
 7156WAT      O21709   5.149   4.362   4.432
 7156WAT     H121710   5.165   4.266   4.407
 7156WAT     H221711   5.229   4.416   4.408
 7157WAT      O21712   6.397   9.334   8.920
 7157WAT     H121713   6.353   9.319   8.831
 7157WAT     H221714   6.429   9.429   8.926
 7158WAT      O21715   8.410   2.979   0.173
 7158WAT     H121716   8.388   3.051   0.239
 7158WAT     H221717   8.503   2.992   0.139
 7159WAT      O21718   4.695   3.956   3.293
 7159WAT     H121719   4.723   4.052   3.290
 7159WAT     H221720   4.692   3.925   3.388
 7160WAT      O21721   1.305   5.435   1.379
 7160WAT     H121722   1.315   5.359   1.315
 7160WAT     H221723   1.389   5.489   1.380
 7161WAT      O21724   1.055   1.497   3.565
 7161WAT     H121725   1.046   1.401   3.539
 7161WAT     H221726   1.056   1.554   3.483
 7162WAT      O21727   6.648   0.042   2.091
 7162WAT     H121728   6.594   0.022   2.009
 7162WAT     H221729   6.596   0.102   2.152
 7163WAT      O21730   8.698   6.917   8.608
 7163WAT     H121731   8.677   6.961   8.695
 7163WAT     H221732   8.776   6.964   8.565
 7164WAT      O21733   7.312   6.004   1.468
 7164WAT     H121734   7.386   6.000   1.536
 7164WAT     H221735   7.227   6.031   1.513
 7165WAT      O21736   5.145   2.619   7.012
 7165WAT     H121737   5.186   2.529   6.996
 7165WAT     H221738   5.046   2.609   7.025
 7166WAT      O21739   8.095   1.385   8.677
 7166WAT     H121740   8.074   1.474   8.638
 7166WAT     H221741   8.101   1.393   8.777
 7167WAT      O21742   9.341   2.404   4.055
 7167WAT     H121743   9.316   2.476   3.990
 7167WAT     H221744   9.438   2.413   4.079
 7168WAT      O21745   8.758   2.567   7.767
 7168WAT     H121746   8.770   2.623   7.685
 7168WAT     H221747   8.704   2.618   7.834
 7169WAT      O21748   2.114   3.687   7.070
 7169WAT     H121749   2.024   3.724   7.045
 7169WAT     H221750   2.104   3.593   7.102
 7170WAT      O21751   1.574   0.478   1.672
 7170WAT     H121752   1.594   0.460   1.575
 7170WAT     H221753   1.658   0.470   1.725
 7171WAT      O21754   7.849   8.111   6.463
 7171WAT     H121755   7.938   8.065   6.468
 7171WAT     H221756   7.839   8.155   6.373
 7172WAT      O21757   2.817   1.267   9.117
 7172WAT     H121758   2.808   1.169   9.098
 7172WAT     H221759   2.838   1.280   9.214
 7173WAT      O21760   7.258   1.689   7.464
 7173WAT     H121761   7.189   1.682   7.391
 7173WAT     H221762   7.230   1.634   7.542
 7174WAT      O21763   4.912   8.941   3.396
 7174WAT     H121764   4.934   8.965   3.302
 7174WAT     H221765   4.984   8.882   3.433
 7175WAT      O21766   4.121   4.420   3.309
 7175WAT     H121767   4.150   4.492   3.245
 7175WAT     H221768   4.133   4.331   3.266
 7176WAT      O21769   4.591   7.620   4.842
 7176WAT     H121770   4.561   7.546   4.781
 7176WAT     H221771   4.677   7.594   4.885
 7177WAT      O21772   6.562   0.796   5.013
 7177WAT     H121773   6.507   0.787   4.930
 7177WAT     H221774   6.552   0.888   5.050
 7178WAT      O21775   2.946   2.023   9.629
 7178WAT     H121776   2.883   1.981   9.564
 7178WAT     H221777   3.040   2.004   9.602
 7179WAT      O21778   5.467   9.365   4.890
 7179WAT     H121779   5.466   9.282   4.945
 7179WAT     H221780   5.378   9.410   4.896
 7180WAT      O21781   9.629   3.844   9.289
 7180WAT     H121782   9.712   3.794   9.316
 7180WAT     H221783   9.651   3.907   9.215
 7181WAT      O21784   4.289   1.413   6.569
 7181WAT     H121785   4.267   1.342   6.503
 7181WAT     H221786   4.350   1.480   6.526
 7182WAT      O21787   2.385   4.313   6.713
 7182WAT     H121788   2.351   4.251   6.784
 7182WAT     H221789   2.309   4.342   6.655
 7183WAT      O21790   7.159   6.417   8.951
 7183WAT     H121791   7.144   6.415   8.852
 7183WAT     H221792   7.170   6.512   8.981
 7184WAT      O21793   7.870   1.860   6.713
 7184WAT     H121794   7.869   1.768   6.753
 7184WAT     H221795   7.958   1.904   6.733
 7185WAT      O21796   5.453   3.171   2.827
 7185WAT     H121797   5.435   3.177   2.728
 7185WAT     H221798   5.549   3.147   2.841
 7186WAT      O21799   8.038   8.203   4.371
 7186WAT     H121800   7.974   8.213   4.294
 7186WAT     H221801   7.988   8.212   4.457
 7187WAT      O21802   8.377   3.072   0.467
 7187WAT     H121803   8.394   3.150   0.407
 7187WAT     H221804   8.280   3.069   0.491
 7188WAT      O21805   4.628   3.603   6.516
 7188WAT     H121806   4.672   3.515   6.496
 7188WAT     H221807   4.655   3.633   6.608
 7189WAT      O21808   0.656   2.173   5.957
 7189WAT     H121809   0.652   2.136   5.865
 7189WAT     H221810   0.740   2.143   6.002
 7190WAT      O21811   5.079   4.399   2.038
 7190WAT     H121812   5.128   4.339   2.100
 7190WAT     H221813   5.141   4.431   1.966
 7191WAT      O21814   2.605   3.453   6.382
 7191WAT     H121815   2.690   3.500   6.361
 7191WAT     H221816   2.571   3.406   6.301
 7192WAT      O21817   3.109   8.734   7.991
 7192WAT     H121818   3.069   8.714   8.081
 7192WAT     H221819   3.155   8.822   7.994
 7193WAT      O21820   1.382   2.265   6.369
 7193WAT     H121821   1.335   2.340   6.415
 7193WAT     H221822   1.459   2.234   6.426
 7194WAT      O21823   7.387   1.865   7.137
 7194WAT     H121824   7.408   1.796   7.207
 7194WAT     H221825   7.394   1.823   7.047
 7195WAT      O21826   7.836   7.690   1.587
 7195WAT     H121827   7.845   7.590   1.585
 7195WAT     H221828   7.750   7.715   1.630
 7196WAT      O21829   4.159   8.293   7.552
 7196WAT     H121830   4.136   8.375   7.605
 7196WAT     H221831   4.198   8.224   7.613
 7197WAT      O21832   5.744   3.436   2.363
 7197WAT     H121833   5.702   3.504   2.301
 7197WAT     H221834   5.685   3.423   2.442
 7198WAT      O21835   2.847   4.511   5.310
 7198WAT     H121836   2.867   4.543   5.403
 7198WAT     H221837   2.906   4.433   5.289
 7199WAT      O21838   8.157   7.043   8.782
 7199WAT     H121839   8.067   7.022   8.820
 7199WAT     H221840   8.159   7.138   8.751
 7200WAT      O21841   3.566   4.098   3.658
 7200WAT     H121842   3.602   4.167   3.720
 7200WAT     H221843   3.630   4.083   3.583
 7201WAT      O21844   0.874   7.463   1.612
 7201WAT     H121845   0.825   7.541   1.650
 7201WAT     H221846   0.972   7.476   1.627
 7202WAT      O21847   1.991   6.723   8.570
 7202WAT     H121848   2.002   6.768   8.659
 7202WAT     H221849   2.031   6.781   8.499
 7203WAT      O21850   6.254   2.264   6.492
 7203WAT     H121851   6.187   2.191   6.482
 7203WAT     H221852   6.281   2.271   6.589
 7204WAT      O21853   2.411   2.619   5.335
 7204WAT     H121854   2.352   2.574   5.269
 7204WAT     H221855   2.477   2.553   5.373
 7205WAT      O21856   2.374   3.163   2.593
 7205WAT     H121857   2.441   3.235   2.613
 7205WAT     H221858   2.413   3.099   2.527
 7206WAT      O21859   6.897   8.292   0.840
 7206WAT     H121860   6.810   8.280   0.792
 7206WAT     H221861   6.906   8.220   0.909
 7207WAT      O21862   8.267   3.038   4.695
 7207WAT     H121863   8.355   3.003   4.725
 7207WAT     H221864   8.216   3.072   4.775
 7208WAT      O21865   6.397   1.369   6.013
 7208WAT     H121866   6.443   1.426   5.945
 7208WAT     H221867   6.298   1.379   6.004
 7209WAT      O21868   5.344   5.852   9.431
 7209WAT     H121869   5.440   5.877   9.417
 7209WAT     H221870   5.286   5.933   9.421
 7210WAT      O21871   8.747   1.517   0.758
 7210WAT     H121872   8.652   1.500   0.730
 7210WAT     H221873   8.748   1.568   0.844
 7211WAT      O21874   9.813   8.739   1.771
 7211WAT     H121875   9.907   8.715   1.795
 7211WAT     H221876   9.787   8.691   1.687
 7212WAT      O21877   8.670   0.637   1.495
 7212WAT     H121878   8.755   0.617   1.446
 7212WAT     H221879   8.615   0.554   1.502
 7213WAT      O21880   5.398   7.539   2.447
 7213WAT     H121881   5.481   7.499   2.406
 7213WAT     H221882   5.419   7.631   2.481
 7214WAT      O21883   0.575   0.877   7.410
 7214WAT     H121884   0.484   0.835   7.411
 7214WAT     H221885   0.645   0.806   7.411
 7215WAT      O21886   8.311   0.934   0.154
 7215WAT     H121887   8.233   0.909   0.096
 7215WAT     H221888   8.352   1.018   0.119
 7216WAT      O21889   9.211   5.032   1.137
 7216WAT     H121890   9.124   5.054   1.093
 7216WAT     H221891   9.260   5.116   1.158
 7217WAT      O21892   0.462   7.840   1.036
 7217WAT     H121893   0.424   7.773   0.972
 7217WAT     H221894   0.388   7.890   1.081
 7218WAT      O21895   6.258   0.449   4.146
 7218WAT     H121896   6.295   0.356   4.149
 7218WAT     H221897   6.158   0.445   4.153
 7219WAT      O21898   8.333   9.353   4.476
 7219WAT     H121899   8.304   9.413   4.402
 7219WAT     H221900   8.377   9.272   4.439
 7220WAT      O21901   1.592   4.137   0.282
 7220WAT     H121902   1.553   4.045   0.287
 7220WAT     H221903   1.631   4.151   0.191
 7221WAT      O21904   3.126   2.314   4.159
 7221WAT     H121905   3.134   2.236   4.096
 7221WAT     H221906   3.216   2.335   4.197
 7222WAT      O21907   1.279   4.881   8.308
 7222WAT     H121908   1.346   4.812   8.281
 7222WAT     H221909   1.191   4.837   8.327
 7223WAT      O21910   7.926   7.496   5.535
 7223WAT     H121911   7.901   7.408   5.494
 7223WAT     H221912   7.905   7.495   5.633
 7224WAT      O21913   6.859   2.812   3.191
 7224WAT     H121914   6.810   2.824   3.104
 7224WAT     H221915   6.955   2.835   3.178
 7225WAT      O21916   5.138   0.644   5.804
 7225WAT     H121917   5.062   0.675   5.746
 7225WAT     H221918   5.102   0.592   5.881
 7226WAT      O21919   5.360   3.524   6.711
 7226WAT     H121920   5.365   3.505   6.613
 7226WAT     H221921   5.275   3.486   6.748
 7227WAT      O21922   4.952   8.430   0.316
 7227WAT     H121923   4.876   8.393   0.262
 7227WAT     H221924   5.038   8.411   0.268
 7228WAT      O21925   5.432   6.912   1.023
 7228WAT     H121926   5.416   6.872   1.113
 7228WAT     H221927   5.464   6.841   0.960
 7229WAT      O21928   1.012   2.585   1.681
 7229WAT     H121929   0.999   2.652   1.608
 7229WAT     H221930   0.936   2.593   1.747
 7230WAT      O21931   1.742   7.772   9.159
 7230WAT     H121932   1.797   7.826   9.223
 7230WAT     H221933   1.777   7.785   9.066
 7231WAT      O21934   5.550   2.100   7.088
 7231WAT     H121935   5.506   2.105   6.998
 7231WAT     H221936   5.638   2.149   7.084
 7232WAT      O21937   0.389   9.529   4.455
 7232WAT     H121938   0.396   9.627   4.474
 7232WAT     H221939   0.296   9.498   4.474
 7233WAT      O21940   5.871   3.044   0.521
 7233WAT     H121941   5.793   3.092   0.563
 7233WAT     H221942   5.845   2.951   0.499
 7234WAT      O21943   1.441   0.073   3.794
 7234WAT     H121944   1.471   0.131   3.870
 7234WAT     H221945   1.402  -0.012   3.831
 7235WAT      O21946   6.673   2.457   8.447
 7235WAT     H121947   6.597   2.514   8.414
 7235WAT     H221948   6.721   2.417   8.369
 7236WAT      O21949   0.818   0.998   7.561
 7236WAT     H121950   0.913   0.987   7.533
 7236WAT     H221951   0.775   0.909   7.573
 7237WAT      O21952   0.404   6.077   2.552
 7237WAT     H121953   0.389   6.072   2.454
 7237WAT     H221954   0.497   6.106   2.571
 7238WAT      O21955   4.887   5.839   0.119
 7238WAT     H121956   4.916   5.931   0.092
 7238WAT     H221957   4.788   5.830   0.106
 7239WAT      O21958   1.828   7.971   8.021
 7239WAT     H121959   1.915   7.927   8.041
 7239WAT     H221960   1.762   7.903   7.991
 7240WAT      O21961   8.321   0.561   4.671
 7240WAT     H121962   8.357   0.569   4.764
 7240WAT     H221963   8.246   0.626   4.658
 7241WAT      O21964   7.870   7.630   1.100
 7241WAT     H121965   7.858   7.709   1.160
 7241WAT     H221966   7.961   7.633   1.058
 7242WAT      O21967   2.909   1.332   9.377
 7242WAT     H121968   2.845   1.342   9.453
 7242WAT     H221969   2.952   1.420   9.358
 7243WAT      O21970   6.338   0.436   1.248
 7243WAT     H121971   6.316   0.363   1.313
 7243WAT     H221972   6.283   0.517   1.270
 7244WAT      O21973   6.176   2.630   5.245
 7244WAT     H121974   6.099   2.651   5.185
 7244WAT     H221975   6.256   2.683   5.216
 7245WAT      O21976   1.222   6.737   3.649
 7245WAT     H121977   1.162   6.660   3.625
 7245WAT     H221978   1.296   6.704   3.708
 7246WAT      O21979   4.479   5.240   0.929
 7246WAT     H121980   4.446   5.158   0.881
 7246WAT     H221981   4.410   5.312   0.922
 7247WAT      O21982   8.065   2.822   2.087
 7247WAT     H121983   7.996   2.847   2.019
 7247WAT     H221984   8.071   2.893   2.157
 7248WAT      O21985   0.793   6.193   1.080
 7248WAT     H121986   0.739   6.118   1.044
 7248WAT     H221987   0.880   6.199   1.029
 7249WAT      O21988   9.242   1.949   3.259
 7249WAT     H121989   9.262   1.905   3.172
 7249WAT     H221990   9.158   1.912   3.297
 7250WAT      O21991   8.821   9.389   5.252
 7250WAT     H121992   8.917   9.410   5.234
 7250WAT     H221993   8.772   9.382   5.165
 7251WAT      O21994   3.044   0.625   7.028
 7251WAT     H121995   3.057   0.717   6.991
 7251WAT     H221996   2.956   0.621   7.076
 7252WAT      O21997   5.790   4.340   3.385
 7252WAT     H121998   5.826   4.247   3.380
 7252WAT     H221999   5.863   4.401   3.417
 7253WAT      O22000   6.890   6.134   4.734
 7253WAT     H122001   6.923   6.227   4.718
 7253WAT     H222002   6.902   6.080   4.650
 7254WAT      O22003   2.328   4.875   5.760
 7254WAT     H122004   2.305   4.882   5.662
 7254WAT     H222005   2.384   4.793   5.774
 7255WAT      O22006   4.194   7.385   2.351
 7255WAT     H122007   4.277   7.334   2.372
 7255WAT     H222008   4.132   7.380   2.429
 7256WAT      O22009   0.030   9.237   2.826
 7256WAT     H122010   0.027   9.159   2.764
 7256WAT     H222011   0.124   9.248   2.860
 7257WAT      O22012   5.888   6.319   9.227
 7257WAT     H122013   5.945   6.288   9.150
 7257WAT     H222014   5.872   6.417   9.218
 7258WAT      O22015   7.437   3.467   6.249
 7258WAT     H122016   7.440   3.550   6.194
 7258WAT     H222017   7.525   3.420   6.243
 7259WAT      O22018   9.767   0.853   1.661
 7259WAT     H122019   9.817   0.793   1.599
 7259WAT     H222020   9.700   0.907   1.609
 7260WAT      O22021   8.992   0.658   1.485
 7260WAT     H122022   8.925   0.732   1.484
 7260WAT     H222023   8.960   0.583   1.428
 7261WAT      O22024   0.767   7.129   1.877
 7261WAT     H122025   0.811   7.163   1.794
 7261WAT     H222026   0.822   7.055   1.916
 7262WAT      O22027   3.266   5.337   1.371
 7262WAT     H122028   3.253   5.412   1.306
 7262WAT     H222029   3.269   5.374   1.464
 7263WAT      O22030   7.979   3.115   1.745
 7263WAT     H122031   7.911   3.109   1.672
 7263WAT     H222032   8.064   3.073   1.714
 7264WAT      O22033   0.807   9.807   7.724
 7264WAT     H122034   0.748   9.768   7.794
 7264WAT     H222035   0.772   9.785   7.633
 7265WAT      O22036   7.182   4.030   7.474
 7265WAT     H122037   7.123   4.029   7.393
 7265WAT     H222038   7.127   4.016   7.556
 7266WAT      O22039   1.782   0.668   0.618
 7266WAT     H122040   1.881   0.655   0.614
 7266WAT     H222041   1.739   0.585   0.655
 7267WAT      O22042   3.745   4.301   5.893
 7267WAT     H122043   3.676   4.261   5.832
 7267WAT     H222044   3.803   4.228   5.930
 7268WAT      O22045   6.732   7.542   2.302
 7268WAT     H122046   6.733   7.639   2.325
 7268WAT     H222047   6.648   7.500   2.337
 7269WAT      O22048   9.768   7.637   4.699
 7269WAT     H122049   9.798   7.555   4.649
 7269WAT     H222050   9.827   7.714   4.674
 7270WAT      O22051   1.396   5.429   0.140
 7270WAT     H122052   1.426   5.467   0.228
 7270WAT     H222053   1.464   5.362   0.108
 7271WAT      O22054   3.643   5.390   2.826
 7271WAT     H122055   3.618   5.391   2.923
 7271WAT     H222056   3.581   5.328   2.777
 7272WAT      O22057   5.913   2.941   2.918
 7272WAT     H122058   5.956   2.907   3.002
 7272WAT     H222059   5.971   2.920   2.840
 7273WAT      O22060   8.821   5.948   0.653
 7273WAT     H122061   8.726   5.961   0.625
 7273WAT     H222062   8.828   5.864   0.708
 7274WAT      O22063   7.575   9.404   0.074
 7274WAT     H122064   7.570   9.504   0.078
 7274WAT     H222065   7.629   9.370   0.150
 7275WAT      O22066   4.861   6.782   9.079
 7275WAT     H122067   4.811   6.809   9.162
 7275WAT     H222068   4.959   6.775   9.099
 7276WAT      O22069   1.241   1.215   5.768
 7276WAT     H122070   1.155   1.256   5.796
 7276WAT     H222071   1.237   1.192   5.671
 7277WAT      O22072   5.927   6.706   2.321
 7277WAT     H122073   5.882   6.617   2.319
 7277WAT     H222074   5.989   6.710   2.399
 7278WAT      O22075   5.991   4.991   6.277
 7278WAT     H122076   6.081   4.947   6.283
 7278WAT     H222077   5.991   5.057   6.202
 7279WAT      O22078   4.617   9.573   7.326
 7279WAT     H122079   4.634   9.475   7.324
 7279WAT     H222080   4.624   9.609   7.233
 7280WAT      O22081   5.967   3.759   4.612
 7280WAT     H122082   5.904   3.837   4.614
 7280WAT     H222083   6.060   3.790   4.634
 7281WAT      O22084   9.103   8.310   4.453
 7281WAT     H122085   9.148   8.393   4.419
 7281WAT     H222086   9.087   8.319   4.551
 7282WAT      O22087   9.657   5.599   7.306
 7282WAT     H122088   9.593   5.578   7.380
 7282WAT     H222089   9.734   5.651   7.343
 7283WAT      O22090   6.646   0.399   4.045
 7283WAT     H122091   6.574   0.379   3.978
 7283WAT     H222092   6.604   0.423   4.132
 7284WAT      O22093   8.383   2.823   9.218
 7284WAT     H122094   8.313   2.814   9.290
 7284WAT     H222095   8.443   2.743   9.220
 7285WAT      O22096   9.084   2.427   3.260
 7285WAT     H122097   9.174   2.390   3.284
 7285WAT     H222098   9.072   2.516   3.303
 7286WAT      O22099   6.687   3.093   3.374
 7286WAT     H122100   6.589   3.084   3.354
 7286WAT     H222101   6.726   3.002   3.389
 7287WAT      O22102   9.001   8.461   2.555
 7287WAT     H122103   9.051   8.478   2.640
 7287WAT     H222104   9.047   8.508   2.479
 7288WAT      O22105   9.604   4.652   6.114
 7288WAT     H122106   9.515   4.609   6.131
 7288WAT     H222107   9.647   4.675   6.201
 7289WAT      O22108   2.524   8.593   1.645
 7289WAT     H122109   2.549   8.543   1.562
 7289WAT     H222110   2.549   8.539   1.725
 7290WAT      O22111   8.748   5.911   2.472
 7290WAT     H122112   8.684   5.979   2.508
 7290WAT     H222113   8.755   5.834   2.536
 7291WAT      O22114   2.706   7.612   6.696
 7291WAT     H122115   2.691   7.529   6.750
 7291WAT     H222116   2.801   7.616   6.666
 7292WAT      O22117   0.965   3.070   7.760
 7292WAT     H122118   0.947   2.973   7.745
 7292WAT     H222119   0.930   3.097   7.850
 7293WAT      O22120   8.387   1.691   8.478
 7293WAT     H122121   8.392   1.686   8.379
 7293WAT     H222122   8.393   1.599   8.517
 7294WAT      O22123   1.571   0.020   9.531
 7294WAT     H122124   1.527   0.093   9.582
 7294WAT     H222125   1.509  -0.012   9.459
 7295WAT      O22126   7.857   6.103   8.428
 7295WAT     H122127   7.905   6.015   8.421
 7295WAT     H222128   7.890   6.153   8.508
 7296WAT      O22129   3.829   1.903   0.477
 7296WAT     H122130   3.859   1.879   0.569
 7296WAT     H222131   3.846   1.827   0.415
 7297WAT      O22132   7.601   9.137   1.154
 7297WAT     H122133   7.683   9.083   1.136
 7297WAT     H222134   7.605   9.222   1.102
 7298WAT      O22135   8.805   9.782   7.421
 7298WAT     H122136   8.795   9.685   7.441
 7298WAT     H222137   8.749   9.805   7.341
 7299WAT      O22138   7.395   4.467   0.419
 7299WAT     H122139   7.423   4.563   0.414
 7299WAT     H222140   7.295   4.461   0.422
 7300WAT      O22141   5.848   9.579   3.655
 7300WAT     H122142   5.792   9.645   3.705
 7300WAT     H222143   5.863   9.498   3.712
 7301WAT      O22144   1.424   7.092   2.008
 7301WAT     H122145   1.454   7.107   2.102
 7301WAT     H222146   1.453   7.169   1.951
 7302WAT      O22147   8.762   7.984   3.619
 7302WAT     H122148   8.745   7.941   3.530
 7302WAT     H222149   8.718   8.074   3.622
 7303WAT      O22150   1.944   3.864   4.615
 7303WAT     H122151   2.031   3.891   4.575
 7303WAT     H222152   1.869   3.887   4.553
 7304WAT      O22153   0.296   0.983   7.117
 7304WAT     H122154   0.266   1.078   7.115
 7304WAT     H222155   0.379   0.972   7.063
 7305WAT      O22156   0.243   8.364   0.740
 7305WAT     H122157   0.280   8.455   0.757
 7305WAT     H222158   0.166   8.371   0.676
 7306WAT      O22159   6.125   3.188   7.041
 7306WAT     H122160   6.133   3.235   7.129
 7306WAT     H222161   6.216   3.171   7.004
 7307WAT      O22162   5.239   4.505   7.357
 7307WAT     H122163   5.154   4.545   7.325
 7307WAT     H222164   5.242   4.408   7.332
 7308WAT      O22165   7.412   6.476   9.606
 7308WAT     H122166   7.365   6.507   9.523
 7308WAT     H222167   7.381   6.383   9.629
 7309WAT      O22168   4.328   2.914   8.570
 7309WAT     H122169   4.341   2.941   8.665
 7309WAT     H222170   4.317   2.814   8.564
 7310WAT      O22171   1.829   7.274   1.082
 7310WAT     H122172   1.797   7.340   1.150
 7310WAT     H222173   1.771   7.280   1.000
 7311WAT      O22174   5.563   2.321   1.874
 7311WAT     H122175   5.519   2.233   1.856
 7311WAT     H222176   5.629   2.310   1.948
 7312WAT      O22177   1.253   4.558   2.074
 7312WAT     H122178   1.330   4.523   2.020
 7312WAT     H222179   1.225   4.647   2.036
 7313WAT      O22180   5.085   4.706   2.292
 7313WAT     H122181   5.110   4.610   2.283
 7313WAT     H222182   5.094   4.752   2.204
 7314WAT      O22183   0.863   7.251   6.369
 7314WAT     H122184   0.865   7.256   6.468
 7314WAT     H222185   0.776   7.212   6.339
 7315WAT      O22186   6.837   8.208   3.375
 7315WAT     H122187   6.750   8.250   3.397
 7315WAT     H222188   6.907   8.241   3.439
 7316WAT      O22189   9.486   3.238   6.249
 7316WAT     H122190   9.542   3.185   6.186
 7316WAT     H222191   9.392   3.241   6.216
 7317WAT      O22192   4.696   2.628   1.804
 7317WAT     H122193   4.771   2.572   1.838
 7317WAT     H222194   4.705   2.721   1.839
 7318WAT      O22195   4.536   7.189   1.941
 7318WAT     H122196   4.592   7.107   1.927
 7318WAT     H222197   4.470   7.173   2.015
 7319WAT      O22198   2.331   5.016   1.410
 7319WAT     H122199   2.309   4.994   1.315
 7319WAT     H222200   2.421   5.060   1.414
 7320WAT      O22201   7.042   7.707   2.646
 7320WAT     H122202   7.075   7.794   2.683
 7320WAT     H222203   7.079   7.632   2.701
 7321WAT      O22204   4.281   1.992   1.921
 7321WAT     H122205   4.331   2.050   1.985
 7321WAT     H222206   4.310   1.897   1.933
 7322WAT      O22207   9.699   0.119   1.664
 7322WAT     H122208   9.734   0.188   1.727
 7322WAT     H222209   9.705   0.029   1.706
 7323WAT      O22210   4.112   0.787   4.092
 7323WAT     H122211   4.175   0.835   4.153
 7323WAT     H222212   4.093   0.696   4.127
 7324WAT      O22213   5.977   2.746   8.146
 7324WAT     H122214   5.890   2.709   8.115
 7324WAT     H222215   5.963   2.802   8.228
 7325WAT      O22216   8.618   5.711   9.764
 7325WAT     H122217   8.658   5.643   9.826
 7325WAT     H222218   8.658   5.800   9.782
 7326WAT      O22219   7.351   9.650   5.883
 7326WAT     H122220   7.304   9.635   5.970
 7326WAT     H222221   7.426   9.714   5.896
 7327WAT      O22222   2.040   4.092   6.739
 7327WAT     H122223   2.076   4.005   6.703
 7327WAT     H222224   2.038   4.160   6.666
 7328WAT      O22225   6.517   0.088   7.751
 7328WAT     H122226   6.532   0.055   7.845
 7328WAT     H222227   6.454   0.026   7.704
 7329WAT      O22228   4.189   6.488   6.678
 7329WAT     H122229   4.096   6.473   6.711
 7329WAT     H222230   4.233   6.400   6.659
 7330WAT      O22231   3.827   3.580   3.283
 7330WAT     H122232   3.757   3.623   3.226
 7330WAT     H222233   3.787   3.503   3.332
 7331WAT      O22234   4.261   4.088   2.402
 7331WAT     H122235   4.349   4.089   2.354
 7331WAT     H222236   4.275   4.120   2.496
 7332WAT      O22237   3.246   8.181   9.690
 7332WAT     H122238   3.306   8.117   9.738
 7332WAT     H222239   3.222   8.143   9.601
 7333WAT      O22240   7.025   0.697   4.026
 7333WAT     H122241   7.117   0.685   4.065
 7333WAT     H222242   6.983   0.608   4.010
 7334WAT      O22243   4.660   5.478   0.820
 7334WAT     H122244   4.648   5.419   0.899
 7334WAT     H222245   4.576   5.530   0.804
 7335WAT      O22246   8.163   2.734   8.841
 7335WAT     H122247   8.101   2.656   8.832
 7335WAT     H222248   8.186   2.747   8.938
 7336WAT      O22249   3.290   5.377   7.586
 7336WAT     H122250   3.320   5.420   7.501
 7336WAT     H222251   3.323   5.282   7.588
 7337WAT      O22252   0.925   5.512   6.992
 7337WAT     H122253   0.892   5.434   7.045
 7337WAT     H222254   1.025   5.516   6.998
 7338WAT      O22255   8.037   3.752   7.499
 7338WAT     H122256   8.104   3.824   7.482
 7338WAT     H222257   8.038   3.686   7.423
 7339WAT      O22258   1.166   3.173   7.490
 7339WAT     H122259   1.195   3.080   7.511
 7339WAT     H222260   1.082   3.194   7.540
 7340WAT      O22261   2.489   3.327   7.422
 7340WAT     H122262   2.471   3.336   7.324
 7340WAT     H222263   2.577   3.367   7.444
 7341WAT      O22264   8.547   6.065   2.588
 7341WAT     H122265   8.482   5.997   2.554
 7341WAT     H222266   8.505   6.116   2.663
 7342WAT      O22267   2.821   3.364   7.922
 7342WAT     H122268   2.809   3.451   7.875
 7342WAT     H222269   2.858   3.381   8.014
 7343WAT      O22270   3.569   5.639   9.080
 7343WAT     H122271   3.555   5.563   9.142
 7343WAT     H222272   3.481   5.680   9.056
 7344WAT      O22273   7.224   3.670   2.901
 7344WAT     H122274   7.255   3.676   2.806
 7344WAT     H222275   7.296   3.630   2.957
 7345WAT      O22276   8.021   0.583   4.832
 7345WAT     H122277   7.925   0.608   4.837
 7345WAT     H222278   8.063   0.622   4.750
 7346WAT      O22279   4.006   3.730   5.716
 7346WAT     H122280   4.066   3.780   5.779
 7346WAT     H222281   4.031   3.753   5.622
 7347WAT      O22282   4.564   3.011   2.430
 7347WAT     H122283   4.475   3.042   2.396
 7347WAT     H222284   4.577   3.044   2.523
 7348WAT      O22285   2.518   8.979   7.682
 7348WAT     H122286   2.462   8.920   7.624
 7348WAT     H222287   2.567   9.045   7.625
 7349WAT      O22288   3.844   6.046   3.357
 7349WAT     H122289   3.848   5.947   3.375
 7349WAT     H222290   3.878   6.095   3.437
 7350WAT      O22291   4.012   2.088   4.020
 7350WAT     H122292   4.037   2.042   4.105
 7350WAT     H222293   4.006   2.187   4.035
 7351WAT      O22294   0.130   1.547   1.978
 7351WAT     H122295   0.127   1.487   2.058
 7351WAT     H222296   0.202   1.615   1.991
 7352WAT      O22297   7.544   6.171   0.289
 7352WAT     H122298   7.621   6.133   0.238
 7352WAT     H222299   7.528   6.265   0.259
 7353WAT      O22300   3.046   9.464   1.037
 7353WAT     H122301   2.991   9.521   1.099
 7353WAT     H222302   3.069   9.378   1.083
 7354WAT      O22303   4.782   1.568   4.844
 7354WAT     H122304   4.777   1.472   4.818
 7354WAT     H222305   4.776   1.576   4.944
 7355WAT      O22306   2.025   3.909   0.507
 7355WAT     H122307   1.986   3.910   0.599
 7355WAT     H222308   2.015   4.000   0.465
 7356WAT      O22309   7.645   7.746   4.916
 7356WAT     H122310   7.617   7.826   4.863
 7356WAT     H222311   7.573   7.677   4.912
 7357WAT      O22312   6.147   7.880   3.881
 7357WAT     H122313   6.155   7.790   3.924
 7357WAT     H222314   6.074   7.932   3.925
 7358WAT      O22315   9.728   4.247   5.183
 7358WAT     H122316   9.634   4.256   5.218
 7358WAT     H222317   9.793   4.267   5.257
 7359WAT      O22318   1.707   8.305   4.019
 7359WAT     H122319   1.764   8.374   3.974
 7359WAT     H222320   1.764   8.252   4.082
 7360WAT      O22321   5.624   0.253   2.488
 7360WAT     H122322   5.594   0.233   2.395
 7360WAT     H222323   5.618   0.351   2.505
 7361WAT      O22324   6.015   9.395   8.368
 7361WAT     H122325   6.002   9.333   8.446
 7361WAT     H222326   6.110   9.427   8.367
 7362WAT      O22327   8.435   2.525   6.165
 7362WAT     H122328   8.348   2.486   6.196
 7362WAT     H222329   8.463   2.480   6.081
 7363WAT      O22330   4.933   5.418   6.963
 7363WAT     H122331   4.887   5.413   6.874
 7363WAT     H222332   4.875   5.377   7.033
 7364WAT      O22333   7.054   6.982   8.130
 7364WAT     H122334   7.016   7.047   8.196
 7364WAT     H222335   6.980   6.949   8.071
 7365WAT      O22336   3.619   7.494   8.574
 7365WAT     H122337   3.554   7.478   8.499
 7365WAT     H222338   3.708   7.457   8.548
 7366WAT      O22339   0.379   3.272   2.466
 7366WAT     H122340   0.293   3.307   2.430
 7366WAT     H222341   0.442   3.348   2.481
 7367WAT      O22342   2.425   5.133   2.982
 7367WAT     H122343   2.436   5.231   2.999
 7367WAT     H222344   2.329   5.113   2.965
 7368WAT      O22345   7.391   6.503   8.740
 7368WAT     H122346   7.300   6.517   8.702
 7368WAT     H222347   7.433   6.591   8.762
 7369WAT      O22348   1.207   0.222   4.808
 7369WAT     H122349   1.158   0.307   4.789
 7369WAT     H222350   1.305   0.235   4.789
 7370WAT      O22351   9.879   6.155   3.185
 7370WAT     H122352   9.809   6.203   3.238
 7370WAT     H222353   9.905   6.211   3.105
 7371WAT      O22354   6.248   0.574   1.990
 7371WAT     H122355   6.236   0.645   1.920
 7371WAT     H222356   6.346   0.559   2.006
 7372WAT      O22357   7.952   1.551   2.070
 7372WAT     H122358   8.004   1.473   2.034
 7372WAT     H222359   7.856   1.525   2.081
 7373WAT      O22360   0.781   8.314   3.709
 7373WAT     H122361   0.808   8.410   3.723
 7373WAT     H222362   0.708   8.310   3.640
 7374WAT      O22363   3.355   3.329   8.592
 7374WAT     H122364   3.434   3.389   8.605
 7374WAT     H222365   3.371   3.270   8.513
 7375WAT      O22366   6.928   8.081   6.225
 7375WAT     H122367   7.016   8.117   6.193
 7375WAT     H222368   6.939   8.048   6.319
 7376WAT      O22369   9.886   6.221   7.201
 7376WAT     H122370   9.968   6.262   7.162
 7376WAT     H222371   9.831   6.180   7.129
 7377WAT      O22372   9.479   1.059   1.743
 7377WAT     H122373   9.547   1.129   1.765
 7377WAT     H222374   9.507   1.010   1.660
 7378WAT      O22375   6.128   6.964   1.073
 7378WAT     H122376   6.113   6.869   1.046
 7378WAT     H222377   6.088   7.025   1.004
 7379WAT      O22378   4.394   5.639   8.439
 7379WAT     H122379   4.466   5.661   8.373
 7379WAT     H222380   4.423   5.562   8.495
 7380WAT      O22381   3.956   8.976   2.260
 7380WAT     H122382   3.964   9.055   2.199
 7380WAT     H222383   3.870   8.929   2.241
 7381WAT      O22384   2.153   2.561   7.771
 7381WAT     H122385   2.067   2.609   7.756
 7381WAT     H222386   2.185   2.579   7.864
 7382WAT      O22387   6.650   2.891   0.575
 7382WAT     H122388   6.628   2.929   0.485
 7382WAT     H222389   6.725   2.826   0.566
 7383WAT      O22390   5.517   4.876   8.743
 7383WAT     H122391   5.546   4.954   8.689
 7383WAT     H222392   5.428   4.843   8.711
 7384WAT      O22393   5.317   0.303   9.063
 7384WAT     H122394   5.226   0.272   9.036
 7384WAT     H222395   5.343   0.382   9.008
 7385WAT      O22396   2.386   0.024   6.547
 7385WAT     H122397   2.321   0.036   6.622
 7385WAT     H222398   2.477   0.003   6.584
 7386WAT      O22399   0.183   7.737   6.891
 7386WAT     H122400   0.131   7.714   6.809
 7386WAT     H222401   0.146   7.821   6.931
 7387WAT      O22402   4.029   3.469   9.825
 7387WAT     H122403   4.100   3.483   9.894
 7387WAT     H222404   4.058   3.397   9.762
 7388WAT      O22405   0.896   3.466   3.089
 7388WAT     H122406   0.906   3.385   3.146
 7388WAT     H222407   0.984   3.512   3.080
 7389WAT      O22408   5.646   9.645   9.629
 7389WAT     H122409   5.652   9.738   9.667
 7389WAT     H222410   5.555   9.607   9.648
 7390WAT      O22411   0.449   9.604   9.329
 7390WAT     H122412   0.482   9.513   9.353
 7390WAT     H222413   0.519   9.652   9.276
 7391WAT      O22414   4.161   8.730   8.654
 7391WAT     H122415   4.216   8.814   8.648
 7391WAT     H222416   4.087   8.744   8.720
 7392WAT      O22417   1.275   9.518   7.724
 7392WAT     H122418   1.307   9.551   7.813
 7392WAT     H222419   1.180   9.547   7.711
 7393WAT      O22420   2.030   5.931   0.982
 7393WAT     H122421   2.089   5.940   1.062
 7393WAT     H222422   1.938   5.961   1.006
 7394WAT      O22423   6.143   7.266   3.739
 7394WAT     H122424   6.060   7.214   3.759
 7394WAT     H222425   6.193   7.281   3.824
 7395WAT      O22426   9.200   8.036   5.543
 7395WAT     H122427   9.151   8.079   5.468
 7395WAT     H222428   9.263   8.102   5.584
 7396WAT      O22429   8.446   9.157   3.281
 7396WAT     H122430   8.410   9.249   3.297
 7396WAT     H222431   8.469   9.114   3.368
 7397WAT      O22432   8.272   1.667   8.958
 7397WAT     H122433   8.270   1.651   9.057
 7397WAT     H222434   8.240   1.759   8.939
 7398WAT      O22435   1.194   4.575   4.779
 7398WAT     H122436   1.095   4.585   4.787
 7398WAT     H222437   1.215   4.498   4.719
 7399WAT      O22438   5.498   0.923   4.251
 7399WAT     H122439   5.511   0.970   4.164
 7399WAT     H222440   5.445   0.981   4.313
 7400WAT      O22441   5.969   4.069   6.685
 7400WAT     H122442   6.058   4.066   6.640
 7400WAT     H222443   5.905   4.121   6.629
 7401WAT      O22444   0.898   3.629   3.358
 7401WAT     H122445   0.810   3.610   3.401
 7401WAT     H222446   0.910   3.569   3.279
 7402WAT      O22447   2.661   6.566   6.132
 7402WAT     H122448   2.589   6.559   6.200
 7402WAT     H222449   2.632   6.521   6.047
 7403WAT      O22450   2.010   1.302   8.322
 7403WAT     H122451   1.982   1.241   8.396
 7403WAT     H222452   2.095   1.347   8.347
 7404WAT      O22453   4.903   6.833   7.381
 7404WAT     H122454   4.885   6.840   7.479
 7404WAT     H222455   4.831   6.880   7.331
 7405WAT      O22456   1.658   0.914   0.197
 7405WAT     H122457   1.655   0.896   0.296
 7405WAT     H222458   1.734   0.864   0.156
 7406WAT      O22459   0.488   9.500   1.390
 7406WAT     H122460   0.555   9.522   1.460
 7406WAT     H222461   0.465   9.582   1.338
 7407WAT      O22462   1.691   8.762   6.460
 7407WAT     H122463   1.626   8.837   6.470
 7407WAT     H222464   1.658   8.682   6.510
 7408WAT      O22465   9.424   6.372   4.685
 7408WAT     H122466   9.450   6.455   4.735
 7408WAT     H222467   9.471   6.293   4.725
 7409WAT      O22468   3.655   5.729   6.410
 7409WAT     H122469   3.730   5.723   6.476
 7409WAT     H222470   3.689   5.763   6.323
 7410WAT      O22471   2.568   2.863   9.681
 7410WAT     H122472   2.626   2.942   9.700
 7410WAT     H222473   2.537   2.822   9.766
 7411WAT      O22474   4.915   9.006   2.198
 7411WAT     H122475   4.819   9.018   2.223
 7411WAT     H222476   4.951   8.925   2.245
 7412WAT      O22477   5.054   8.657   9.717
 7412WAT     H122478   5.077   8.589   9.787
 7412WAT     H222479   5.084   8.624   9.628
 7413WAT      O22480   9.335   8.012   3.722
 7413WAT     H122481   9.383   8.023   3.809
 7413WAT     H222482   9.380   8.067   3.651
 7414WAT      O22483   9.303   4.797   6.217
 7414WAT     H122484   9.356   4.864   6.269
 7414WAT     H222485   9.282   4.718   6.275
 7415WAT      O22486   1.956   9.378   1.044
 7415WAT     H122487   1.857   9.382   1.057
 7415WAT     H222488   2.001   9.439   1.108
 7416WAT      O22489   8.276   1.602   1.970
 7416WAT     H122490   8.332   1.598   1.887
 7416WAT     H222491   8.220   1.519   1.976
 7417WAT      O22492   2.766   3.630   5.313
 7417WAT     H122493   2.818   3.695   5.256
 7417WAT     H222494   2.784   3.648   5.409
 7418WAT      O22495   2.611   7.323   4.243
 7418WAT     H122496   2.659   7.261   4.181
 7418WAT     H222497   2.631   7.418   4.217
 7419WAT      O22498   3.328   4.319   3.974
 7419WAT     H122499   3.384   4.267   4.039
 7419WAT     H222500   3.274   4.387   4.023
 7420WAT      O22501   8.587   0.483   8.119
 7420WAT     H122502   8.497   0.453   8.150
 7420WAT     H222503   8.658   0.426   8.161
 7421WAT      O22504   8.595   1.314   6.974
 7421WAT     H122505   8.555   1.356   7.055
 7421WAT     H222506   8.691   1.341   6.967
 7422WAT      O22507   3.706   4.839   5.306
 7422WAT     H122508   3.691   4.920   5.363
 7422WAT     H222509   3.630   4.829   5.242
 7423WAT      O22510   7.474   1.213   1.090
 7423WAT     H122511   7.425   1.286   1.138
 7423WAT     H222512   7.564   1.199   1.132
 7424WAT      O22513   4.254   0.439   1.313
 7424WAT     H122514   4.334   0.383   1.334
 7424WAT     H222515   4.175   0.403   1.362
 7425WAT      O22516   4.825   5.277   1.851
 7425WAT     H122517   4.764   5.355   1.859
 7425WAT     H222518   4.906   5.293   1.907
 7426WAT      O22519   8.975   3.213   5.693
 7426WAT     H122520   8.880   3.186   5.681
 7426WAT     H222521   9.011   3.176   5.779
 7427WAT      O22522   3.246   4.527   7.726
 7427WAT     H122523   3.195   4.483   7.652
 7427WAT     H222524   3.235   4.473   7.810
 7428WAT      O22525   0.618   7.230   9.891
 7428WAT     H122526   0.528   7.186   9.889
 7428WAT     H222527   0.635   7.276   9.804
 7429WAT      O22528   1.892   7.626   3.236
 7429WAT     H122529   1.853   7.718   3.234
 7429WAT     H222530   1.992   7.632   3.228
 7430WAT      O22531   7.473   3.088   0.287
 7430WAT     H122532   7.535   3.167   0.292
 7430WAT     H222533   7.447   3.061   0.380
 7431WAT      O22534   8.696   9.462   2.626
 7431WAT     H122535   8.765   9.426   2.689
 7431WAT     H222536   8.735   9.472   2.535
 7432WAT      O22537   1.257   8.237   6.787
 7432WAT     H122538   1.316   8.205   6.713
 7432WAT     H222539   1.294   8.208   6.875
 7433WAT      O22540   8.682   1.369   6.575
 7433WAT     H122541   8.766   1.316   6.563
 7433WAT     H222542   8.616   1.315   6.627
 7434WAT      O22543   1.346   9.419   6.261
 7434WAT     H122544   1.401   9.341   6.290
 7434WAT     H222545   1.396   9.504   6.278
 7435WAT      O22546   3.212   9.835   6.953
 7435WAT     H122547   3.309   9.861   6.951
 7435WAT     H222548   3.190   9.795   7.042
 7436WAT      O22549   2.937   3.963   2.199
 7436WAT     H122550   2.963   4.060   2.199
 7436WAT     H222551   2.870   3.946   2.271
 7437WAT      O22552   1.639   0.484   6.827
 7437WAT     H122553   1.621   0.562   6.887
 7437WAT     H222554   1.585   0.494   6.743
 7438WAT      O22555   4.481   7.707   8.085
 7438WAT     H122556   4.568   7.755   8.085
 7438WAT     H222557   4.406   7.773   8.083
 7439WAT      O22558   1.673   6.617   0.820
 7439WAT     H122559   1.619   6.640   0.739
 7439WAT     H222560   1.757   6.671   0.821
 7440WAT      O22561   2.564   8.931   6.201
 7440WAT     H122562   2.566   8.940   6.301
 7440WAT     H222563   2.589   9.018   6.160
 7441WAT      O22564   2.307   8.225   3.752
 7441WAT     H122565   2.405   8.202   3.753
 7441WAT     H222566   2.253   8.143   3.734
 7442WAT      O22567   2.592   1.465   5.526
 7442WAT     H122568   2.613   1.371   5.552
 7442WAT     H222569   2.646   1.528   5.581
 7443WAT      O22570   1.776   5.406   4.395
 7443WAT     H122571   1.851   5.370   4.451
 7443WAT     H222572   1.714   5.331   4.370
 7444WAT      O22573   7.792   7.166   7.835
 7444WAT     H122574   7.844   7.094   7.881
 7444WAT     H222575   7.723   7.202   7.898
 7445WAT      O22576   6.783   5.384   7.098
 7445WAT     H122577   6.834   5.301   7.074
 7445WAT     H222578   6.839   5.464   7.077
 7446WAT      O22579   8.709   3.500   0.270
 7446WAT     H122580   8.788   3.559   0.256
 7446WAT     H222581   8.739   3.406   0.286
 7447WAT      O22582   9.659   7.295   6.632
 7447WAT     H122583   9.575   7.243   6.640
 7447WAT     H222584   9.727   7.259   6.696
 7448WAT      O22585   1.093   3.017   0.885
 7448WAT     H122586   1.061   2.968   0.804
 7448WAT     H222587   1.057   3.110   0.885
 7449WAT      O22588   4.878   2.612   8.860
 7449WAT     H122589   4.855   2.704   8.829
 7449WAT     H222590   4.822   2.587   8.939
 7450WAT      O22591   0.813   9.124   7.190
 7450WAT     H122592   0.805   9.083   7.281
 7450WAT     H222593   0.783   9.219   7.194
 7451WAT      O22594   6.101   6.554   6.840
 7451WAT     H122595   6.187   6.602   6.858
 7451WAT     H222596   6.109   6.460   6.871
 7452WAT      O22597   6.838   6.430   5.880
 7452WAT     H122598   6.754   6.377   5.881
 7452WAT     H222599   6.857   6.466   5.971
 7453WAT      O22600   2.907   7.583   8.263
 7453WAT     H122601   2.999   7.546   8.254
 7453WAT     H222602   2.881   7.630   8.179
 7454WAT      O22603   6.900   5.588   3.535
 7454WAT     H122604   6.927   5.504   3.489
 7454WAT     H222605   6.814   5.622   3.496
 7455WAT      O22606   7.778   9.775   6.122
 7455WAT     H122607   7.760   9.751   6.026
 7455WAT     H222608   7.730   9.712   6.182
 7456WAT      O22609   2.596   3.526   7.731
 7456WAT     H122610   2.523   3.591   7.711
 7456WAT     H222611   2.582   3.486   7.821
 7457WAT      O22612   5.419   7.358   1.568
 7457WAT     H122613   5.502   7.366   1.512
 7457WAT     H222614   5.342   7.332   1.510
 7458WAT      O22615   2.817   1.094   5.773
 7458WAT     H122616   2.735   1.076   5.827
 7458WAT     H222617   2.794   1.158   5.699
 7459WAT      O22618   3.279   1.652   8.938
 7459WAT     H122619   3.304   1.599   9.019
 7459WAT     H222620   3.180   1.671   8.941
 7460WAT      O22621   6.658   4.995   8.318
 7460WAT     H122622   6.726   4.977   8.390
 7460WAT     H222623   6.662   5.091   8.292
 7461WAT      O22624   0.096   0.610   6.580
 7461WAT     H122625   0.103   0.633   6.677
 7461WAT     H222626   0.142   0.680   6.525
 7462WAT      O22627   6.651   7.880   4.452
 7462WAT     H122628   6.616   7.963   4.408
 7462WAT     H222629   6.701   7.905   4.535
 7463WAT      O22630   3.250   5.097   9.359
 7463WAT     H122631   3.175   5.160   9.379
 7463WAT     H222632   3.256   5.030   9.433
 7464WAT      O22633   5.633   3.843   1.156
 7464WAT     H122634   5.576   3.781   1.210
 7464WAT     H222635   5.586   3.866   1.071
 7465WAT      O22636   9.648   3.173   5.617
 7465WAT     H122637   9.747   3.186   5.623
 7465WAT     H222638   9.624   3.082   5.653
 7466WAT      O22639   6.537   3.158   2.814
 7466WAT     H122640   6.627   3.199   2.798
 7466WAT     H222641   6.533   3.123   2.908
 7467WAT      O22642   9.038   9.238   0.516
 7467WAT     H122643   9.103   9.242   0.592
 7467WAT     H222644   8.970   9.311   0.527
 7468WAT      O22645   0.668   0.596   9.664
 7468WAT     H122646   0.614   0.575   9.583
 7468WAT     H222647   0.751   0.541   9.664
 7469WAT      O22648   8.930   4.095   0.259
 7469WAT     H122649   8.885   4.006   0.251
 7469WAT     H222650   8.904   4.138   0.345
 7470WAT      O22651   4.805   0.314   5.762
 7470WAT     H122652   4.764   0.366   5.686
 7470WAT     H222653   4.858   0.238   5.725
 7471WAT      O22654   5.028   8.263   6.375
 7471WAT     H122655   4.981   8.351   6.364
 7471WAT     H222656   4.976   8.191   6.330
 7472WAT      O22657   7.034   2.875   1.275
 7472WAT     H122658   6.945   2.842   1.244
 7472WAT     H222659   7.046   2.970   1.248
 7473WAT      O22660   8.889   0.081   7.166
 7473WAT     H122661   8.977   0.128   7.176
 7473WAT     H222662   8.902  -0.017   7.177
 7474WAT      O22663   4.723   2.263   2.121
 7474WAT     H122664   4.764   2.339   2.170
 7474WAT     H222665   4.761   2.177   2.155
 7475WAT      O22666   7.079   5.301   3.610
 7475WAT     H122667   7.016   5.223   3.599
 7475WAT     H222668   7.068   5.364   3.533
 7476WAT      O22669   9.193   1.513   0.969
 7476WAT     H122670   9.223   1.454   0.894
 7476WAT     H222671   9.236   1.603   0.960
 7477WAT      O22672   1.552   1.661   7.145
 7477WAT     H122673   1.614   1.697   7.216
 7477WAT     H222674   1.578   1.566   7.125
 7478WAT      O22675   8.833   4.260   1.614
 7478WAT     H122676   8.912   4.315   1.638
 7478WAT     H222677   8.795   4.291   1.527
 7479WAT      O22678   4.451   3.497   0.817
 7479WAT     H122679   4.376   3.544   0.863
 7479WAT     H222680   4.534   3.503   0.873
 7480WAT      O22681   6.156   5.870   2.391
 7480WAT     H122682   6.194   5.961   2.405
 7480WAT     H222683   6.176   5.813   2.470
 7481WAT      O22684   2.727   2.074   0.802
 7481WAT     H122685   2.659   2.001   0.794
 7481WAT     H222686   2.684   2.162   0.779
 7482WAT      O22687   8.232   6.965   4.157
 7482WAT     H122688   8.142   6.952   4.115
 7482WAT     H222689   8.302   6.936   4.093
 7483WAT      O22690   9.221   9.268   0.709
 7483WAT     H122691   9.284   9.342   0.687
 7483WAT     H222692   9.164   9.295   0.787
 7484WAT      O22693   1.057   2.355   6.554
 7484WAT     H122694   1.153   2.371   6.530
 7484WAT     H222695   1.035   2.403   6.638
 7485WAT      O22696   8.783   2.489   2.468
 7485WAT     H122697   8.753   2.585   2.463
 7485WAT     H222698   8.801   2.466   2.563
 7486WAT      O22699   5.948   9.444   1.871
 7486WAT     H122700   5.980   9.446   1.966
 7486WAT     H222701   5.889   9.365   1.858
 7487WAT      O22702   4.966   2.117   4.486
 7487WAT     H122703   4.978   2.024   4.453
 7487WAT     H222704   5.048   2.171   4.466
 7488WAT      O22705   0.521   9.430   9.002
 7488WAT     H122706   0.455   9.505   9.014
 7488WAT     H222707   0.611   9.468   8.980
 7489WAT      O22708   1.952   2.708   5.784
 7489WAT     H122709   2.040   2.662   5.799
 7489WAT     H222710   1.953   2.797   5.830
 7490WAT      O22711   7.976   4.588   7.297
 7490WAT     H122712   8.032   4.648   7.240
 7490WAT     H222713   7.934   4.517   7.240
 7491WAT      O22714   0.062   2.900   4.662
 7491WAT     H122715   0.090   2.806   4.678
 7491WAT     H222716   0.021   2.908   4.571
 7492WAT      O22717   5.618   9.091   4.549
 7492WAT     H122718   5.568   9.148   4.485
 7492WAT     H222719   5.558   9.064   4.624
 7493WAT      O22720   4.276   1.245   4.357
 7493WAT     H122721   4.208   1.235   4.430
 7493WAT     H222722   4.234   1.222   4.269
 7494WAT      O22723   5.149   8.850   6.356
 7494WAT     H122724   5.098   8.842   6.270
 7494WAT     H222725   5.090   8.890   6.426
 7495WAT      O22726   7.550   3.968   9.280
 7495WAT     H122727   7.493   3.887   9.292
 7495WAT     H222728   7.585   3.970   9.186
 7496WAT      O22729   4.219   1.055   2.957
 7496WAT     H122730   4.151   0.987   2.987
 7496WAT     H222731   4.208   1.139   3.011
 7497WAT      O22732   9.519   7.547   9.491
 7497WAT     H122733   9.522   7.612   9.415
 7497WAT     H222734   9.611   7.535   9.528
 7498WAT      O22735   2.611   1.270   8.402
 7498WAT     H122736   2.601   1.262   8.501
 7498WAT     H222737   2.532   1.227   8.358
 7499WAT      O22738   0.995   8.242   6.397
 7499WAT     H122739   1.019   8.334   6.368
 7499WAT     H222740   1.056   8.176   6.354
 7500WAT      O22741   2.760   0.991   5.465
 7500WAT     H122742   2.856   0.969   5.484
 7500WAT     H222743   2.751   1.021   5.370
 7501WAT      O22744   9.034   3.596   4.600
 7501WAT     H122745   9.083   3.636   4.678
 7501WAT     H222746   9.101   3.559   4.535
 7502WAT      O22747   3.100   6.462   9.656
 7502WAT     H122748   3.066   6.496   9.744
 7502WAT     H222749   3.187   6.506   9.635
 7503WAT      O22750   7.369   8.922   6.157
 7503WAT     H122751   7.298   8.863   6.118
 7503WAT     H222752   7.352   8.934   6.255
 7504WAT      O22753   1.498   7.669   5.109
 7504WAT     H122754   1.398   7.658   5.105
 7504WAT     H222755   1.539   7.622   5.030
 7505WAT      O22756   4.208   3.258   7.502
 7505WAT     H122757   4.126   3.290   7.549
 7505WAT     H222758   4.206   3.288   7.407
 7506WAT      O22759   6.858   2.510   3.932
 7506WAT     H122760   6.848   2.508   4.031
 7506WAT     H222761   6.944   2.467   3.906
 7507WAT      O22762   0.164   8.963   1.046
 7507WAT     H122763   0.181   8.980   1.143
 7507WAT     H222764   0.129   9.046   1.003
 7508WAT      O22765   8.697   1.168   2.802
 7508WAT     H122766   8.686   1.106   2.880
 7508WAT     H222767   8.613   1.168   2.748
 7509WAT      O22768   8.213   4.172   9.310
 7509WAT     H122769   8.215   4.263   9.269
 7509WAT     H222770   8.143   4.169   9.381
 7510WAT      O22771   0.446   5.640   6.395
 7510WAT     H122772   0.477   5.591   6.476
 7510WAT     H222773   0.346   5.647   6.397
 7511WAT      O22774   2.161   8.627   1.152
 7511WAT     H122775   2.107   8.590   1.228
 7511WAT     H222776   2.166   8.726   1.160
 7512WAT      O22777   6.387   8.665   0.608
 7512WAT     H122778   6.308   8.623   0.563
 7512WAT     H222779   6.356   8.711   0.692
 7513WAT      O22780   4.968   7.412   9.566
 7513WAT     H122781   4.882   7.452   9.601
 7513WAT     H222782   5.036   7.412   9.639
 7514WAT      O22783   9.598   8.148   1.500
 7514WAT     H122784   9.694   8.138   1.471
 7514WAT     H222785   9.538   8.134   1.421
 7515WAT      O22786   9.436   3.109   5.019
 7515WAT     H122787   9.378   3.190   5.026
 7515WAT     H222788   9.382   3.032   4.986
 7516WAT      O22789   5.089   1.781   0.527
 7516WAT     H122790   5.043   1.724   0.459
 7516WAT     H222791   5.182   1.747   0.542
 7517WAT      O22792   4.962   4.951   1.052
 7517WAT     H122793   5.045   4.961   1.107
 7517WAT     H222794   4.883   4.986   1.103
 7518WAT      O22795   1.078   8.811   9.574
 7518WAT     H122796   1.097   8.903   9.540
 7518WAT     H222797   1.163   8.769   9.606
 7519WAT      O22798   0.539   6.023   3.276
 7519WAT     H122799   0.459   5.990   3.326
 7519WAT     H222800   0.517   6.107   3.227
 7520WAT      O22801   7.152   9.841   6.226
 7520WAT     H122802   7.166   9.811   6.320
 7520WAT     H222803   7.233   9.892   6.195
 7521WAT      O22804   1.267   5.467   7.927
 7521WAT     H122805   1.280   5.368   7.932
 7521WAT     H222806   1.277   5.497   7.832
 7522WAT      O22807   5.711   7.213   9.558
 7522WAT     H122808   5.767   7.254   9.485
 7522WAT     H222809   5.724   7.264   9.643
 7523WAT      O22810   9.441   1.386   4.553
 7523WAT     H122811   9.399   1.449   4.488
 7523WAT     H222812   9.531   1.357   4.519
 7524WAT      O22813   6.071   2.910   7.109
 7524WAT     H122814   6.058   3.001   7.069
 7524WAT     H222815   6.093   2.920   7.206
 7525WAT      O22816   3.793   2.661   2.720
 7525WAT     H122817   3.726   2.586   2.726
 7525WAT     H222818   3.804   2.687   2.624
 7526WAT      O22819   6.003   9.820   3.571
 7526WAT     H122820   5.974   9.731   3.607
 7526WAT     H222821   6.010   9.885   3.646
 7527WAT      O22822   1.426   0.505   6.067
 7527WAT     H122823   1.513   0.523   6.020
 7527WAT     H222824   1.404   0.582   6.127
 7528WAT      O22825   9.345   8.910   0.083
 7528WAT     H122826   9.432   8.884   0.124
 7528WAT     H222827   9.329   8.855   0.000
 7529WAT      O22828   3.724   2.776   4.195
 7529WAT     H122829   3.696   2.872   4.182
 7529WAT     H222830   3.802   2.756   4.136
 7530WAT      O22831   4.363   5.773   6.704
 7530WAT     H122832   4.401   5.681   6.716
 7530WAT     H222833   4.426   5.829   6.650
 7531WAT      O22834   6.063   8.444   9.731
 7531WAT     H122835   6.131   8.517   9.721
 7531WAT     H222836   5.979   8.470   9.682
 7532WAT      O22837   0.620   4.097   7.520
 7532WAT     H122838   0.613   4.024   7.451
 7532WAT     H222839   0.529   4.124   7.549
 7533WAT      O22840   9.192   4.169   9.642
 7533WAT     H122841   9.262   4.175   9.571
 7533WAT     H222842   9.231   4.127   9.724
 7534WAT      O22843   3.585   4.210   4.774
 7534WAT     H122844   3.613   4.158   4.855
 7534WAT     H222845   3.637   4.179   4.695
 7535WAT      O22846   7.615   5.968   8.301
 7535WAT     H122847   7.521   6.002   8.304
 7535WAT     H222848   7.673   6.026   8.359
 7536WAT      O22849   9.239   9.821   6.740
 7536WAT     H122850   9.178   9.831   6.661
 7536WAT     H222851   9.212   9.886   6.811
 7537WAT      O22852   5.859   6.117   0.290
 7537WAT     H122853   5.885   6.138   0.383
 7537WAT     H222854   5.761   6.136   0.277
 7538WAT      O22855   7.918   6.049   5.689
 7538WAT     H122856   7.931   6.148   5.687
 7538WAT     H222857   7.887   6.017   5.599
 7539WAT      O22858   9.092   5.643   2.970
 7539WAT     H122859   9.041   5.578   2.913
 7539WAT     H222860   9.042   5.659   3.055
 7540WAT      O22861   5.928   1.975   1.005
 7540WAT     H122862   5.831   1.983   0.981
 7540WAT     H222863   5.974   1.916   0.938
 7541WAT      O22864   2.918   0.713   7.655
 7541WAT     H122865   2.928   0.792   7.716
 7541WAT     H222866   2.900   0.746   7.562
 7542WAT      O22867   2.428   8.210   8.560
 7542WAT     H122868   2.338   8.230   8.522
 7542WAT     H222869   2.481   8.156   8.494
 7543WAT      O22870   8.415   2.911   8.954
 7543WAT     H122871   8.463   2.827   8.928
 7543WAT     H222872   8.388   2.906   9.050
 7544WAT      O22873   0.024   4.784   1.612
 7544WAT     H122874   0.010   4.783   1.711
 7544WAT     H222875   0.095   4.717   1.588
 7545WAT      O22876   5.115   8.196   4.372
 7545WAT     H122877   5.126   8.148   4.285
 7545WAT     H222878   5.123   8.295   4.357
 7546WAT      O22879   2.789   5.636   0.502
 7546WAT     H122880   2.874   5.594   0.470
 7546WAT     H222881   2.801   5.735   0.509
 7547WAT      O22882   2.444   3.663   6.477
 7547WAT     H122883   2.456   3.696   6.571
 7547WAT     H222884   2.502   3.583   6.462
 7548WAT      O22885   1.957   4.007   2.888
 7548WAT     H122886   1.919   3.915   2.896
 7548WAT     H222887   1.882   4.072   2.876
 7549WAT      O22888   2.278   3.085   1.174
 7549WAT     H122889   2.328   3.018   1.120
 7549WAT     H222890   2.205   3.039   1.225
 7550WAT      O22891   6.843   3.324   9.574
 7550WAT     H122892   6.856   3.403   9.512
 7550WAT     H222893   6.922   3.318   9.635
 7551WAT      O22894   3.046   9.255   3.815
 7551WAT     H122895   3.060   9.354   3.822
 7551WAT     H222896   2.953   9.232   3.845
 7552WAT      O22897   3.160   9.449   3.184
 7552WAT     H122898   3.061   9.444   3.172
 7552WAT     H222899   3.191   9.544   3.177
 7553WAT      O22900   3.916   5.335   9.297
 7553WAT     H122901   3.840   5.274   9.321
 7553WAT     H222902   3.979   5.287   9.235
 7554WAT      O22903   8.390   1.877   0.145
 7554WAT     H122904   8.341   1.794   0.172
 7554WAT     H222905   8.427   1.865   0.052
 7555WAT      O22906   0.646   2.075   0.607
 7555WAT     H122907   0.714   2.018   0.652
 7555WAT     H222908   0.688   2.120   0.528
 7556WAT      O22909   7.020   8.442   7.500
 7556WAT     H122910   7.057   8.350   7.490
 7556WAT     H222911   7.040   8.495   7.417
 7557WAT      O22912   5.463   7.431   9.262
 7557WAT     H122913   5.511   7.444   9.348
 7557WAT     H222914   5.375   7.478   9.266
 7558WAT      O22915   2.546   9.577   6.245
 7558WAT     H122916   2.453   9.590   6.281
 7558WAT     H222917   2.602   9.656   6.269
 7559WAT      O22918   0.010   7.298   0.172
 7559WAT     H122919  -0.065   7.275   0.234
 7559WAT     H222920   0.010   7.396   0.154
 7560WAT      O22921   1.608   9.641   4.882
 7560WAT     H122922   1.614   9.738   4.857
 7560WAT     H222923   1.588   9.633   4.980
 7561WAT      O22924   3.180   1.266   2.657
 7561WAT     H122925   3.230   1.187   2.622
 7561WAT     H222926   3.120   1.238   2.731
 7562WAT      O22927   9.657   9.365   9.016
 7562WAT     H122928   9.645   9.382   8.918
 7562WAT     H222929   9.743   9.405   9.047
 7563WAT      O22930   9.350   9.235   2.326
 7563WAT     H122931   9.313   9.290   2.251
 7563WAT     H222932   9.446   9.216   2.309
 7564WAT      O22933   1.626   8.256   6.727
 7564WAT     H122934   1.703   8.249   6.790
 7564WAT     H222935   1.568   8.334   6.754
 7565WAT      O22936   0.122   8.697   5.906
 7565WAT     H122937   0.117   8.627   5.977
 7565WAT     H222938   0.036   8.699   5.854
 7566WAT      O22939   8.839   6.681   1.620
 7566WAT     H122940   8.850   6.780   1.619
 7566WAT     H222941   8.850   6.648   1.714
 7567WAT      O22942   6.723   6.204   9.552
 7567WAT     H122943   6.726   6.275   9.482
 7567WAT     H222944   6.745   6.116   9.511
 7568WAT      O22945   4.672   9.636   5.163
 7568WAT     H122946   4.747   9.648   5.228
 7568WAT     H222947   4.703   9.665   5.072
 7569WAT      O22948   5.030   7.572   5.807
 7569WAT     H122949   4.998   7.585   5.713
 7569WAT     H222950   4.960   7.604   5.871
 7570WAT      O22951   2.742   3.687   8.755
 7570WAT     H122952   2.823   3.695   8.812
 7570WAT     H222953   2.660   3.689   8.813
 7571WAT      O22954   2.809   2.576   3.869
 7571WAT     H122955   2.736   2.514   3.900
 7571WAT     H222956   2.863   2.605   3.947
 7572WAT      O22957   3.071   2.326   0.998
 7572WAT     H122958   3.071   2.344   1.097
 7572WAT     H222959   3.157   2.360   0.958
 7573WAT      O22960   4.859   5.802   0.548
 7573WAT     H122961   4.823   5.762   0.464
 7573WAT     H222962   4.843   5.740   0.625
 7574WAT      O22963   7.522   8.622   0.712
 7574WAT     H122964   7.428   8.658   0.717
 7574WAT     H222965   7.520   8.531   0.673
 7575WAT      O22966   8.718   9.715   6.565
 7575WAT     H122967   8.674   9.794   6.523
 7575WAT     H222968   8.810   9.740   6.595
 7576WAT      O22969   3.074   4.610   7.201
 7576WAT     H122970   3.166   4.649   7.196
 7576WAT     H222971   3.060   4.567   7.290
 7577WAT      O22972   4.478   7.284   4.489
 7577WAT     H122973   4.493   7.204   4.432
 7577WAT     H222974   4.458   7.364   4.432
 7578WAT      O22975   3.864   5.266   8.182
 7578WAT     H122976   3.937   5.323   8.219
 7578WAT     H222977   3.794   5.325   8.142
 7579WAT      O22978   1.780   9.013   1.030
 7579WAT     H122979   1.849   9.078   1.061
 7579WAT     H222980   1.737   8.968   1.108
 7580WAT      O22981   6.528   7.389   2.390
 7580WAT     H122982   6.439   7.419   2.425
 7580WAT     H222983   6.564   7.316   2.448
 7581WAT      O22984   9.117   0.003   8.021
 7581WAT     H122985   9.154   0.067   7.953
 7581WAT     H222986   9.094  -0.083   7.977
 7582WAT      O22987   3.597   9.323   4.567
 7582WAT     H122988   3.643   9.337   4.480
 7582WAT     H222989   3.510   9.371   4.567
 7583WAT      O22990   5.652   7.821   4.635
 7583WAT     H122991   5.606   7.779   4.713
 7583WAT     H222992   5.623   7.917   4.627
 7584WAT      O22993   0.107   9.684   4.881
 7584WAT     H122994   0.047   9.759   4.906
 7584WAT     H222995   0.059   9.597   4.893
 7585WAT      O22996   0.859   5.171   7.387
 7585WAT     H122997   0.783   5.118   7.425
 7585WAT     H222998   0.943   5.148   7.435
 7586WAT      O22999   7.004   6.553   7.657
 7586WAT     H123000   7.023   6.539   7.560
 7586WAT     H223001   7.046   6.481   7.711
 7587WAT      O23002   2.647   5.971   4.244
 7587WAT     H123003   2.567   6.030   4.239
 7587WAT     H223004   2.624   5.879   4.212
 7588WAT      O23005   9.553   0.375   6.358
 7588WAT     H123006   9.472   0.434   6.364
 7588WAT     H223007   9.547   0.318   6.276
 7589WAT      O23008   2.920   7.787   8.915
 7589WAT     H123009   3.017   7.794   8.939
 7589WAT     H223010   2.865   7.826   8.989
 7590WAT      O23011   9.565   7.631   0.122
 7590WAT     H123012   9.492   7.646   0.189
 7590WAT     H223013   9.590   7.534   0.122
 7591WAT      O23014   2.720   7.422   5.049
 7591WAT     H123015   2.748   7.465   5.135
 7591WAT     H223016   2.789   7.440   4.979
 7592WAT      O23017   9.474   0.114   1.503
 7592WAT     H123018   9.382   0.087   1.531
 7592WAT     H223019   9.530   0.132   1.584
 7593WAT      O23020   7.860   8.802   0.043
 7593WAT     H123021   7.771   8.809   0.088
 7593WAT     H223022   7.921   8.873   0.079
 7594WAT      O23023   2.063   4.553   9.327
 7594WAT     H123024   2.138   4.509   9.375
 7594WAT     H223025   1.976   4.528   9.370
 7595WAT      O23026   3.695   2.587   5.828
 7595WAT     H123027   3.742   2.503   5.854
 7595WAT     H223028   3.756   2.646   5.776
 7596WAT      O23029   6.588   2.182   6.739
 7596WAT     H123030   6.584   2.116   6.664
 7596WAT     H223031   6.585   2.275   6.702
 7597WAT      O23032   8.545   2.727   7.913
 7597WAT     H123033   8.543   2.643   7.968
 7597WAT     H223034   8.453   2.748   7.880
 7598WAT      O23035   1.312   1.146   0.254
 7598WAT     H123036   1.214   1.131   0.243
 7598WAT     H223037   1.334   1.240   0.228
 7599WAT      O23038   9.514   5.685   4.280
 7599WAT     H123039   9.461   5.764   4.309
 7599WAT     H223040   9.558   5.705   4.192
 7600WAT      O23041   1.533   6.741   3.390
 7600WAT     H123042   1.570   6.831   3.367
 7600WAT     H223043   1.543   6.680   3.312
 7601WAT      O23044   5.919   4.865   0.291
 7601WAT     H123045   5.863   4.833   0.367
 7601WAT     H223046   6.014   4.875   0.321
 7602WAT      O23047   9.821   5.639   4.865
 7602WAT     H123048   9.785   5.570   4.928
 7602WAT     H223049   9.843   5.595   4.778
 7603WAT      O23050   0.529   3.399   4.231
 7603WAT     H123051   0.600   3.448   4.282
 7603WAT     H223052   0.571   3.348   4.156
 7604WAT      O23053   1.909   5.490   3.636
 7604WAT     H123054   1.927   5.397   3.602
 7604WAT     H223055   1.992   5.529   3.675
 7605WAT      O23056   5.949   5.136   4.614
 7605WAT     H123057   5.981   5.113   4.522
 7605WAT     H223058   5.999   5.081   4.681
 7606WAT      O23059   7.908   9.829   2.984
 7606WAT     H123060   7.813   9.796   2.987
 7606WAT     H223061   7.947   9.808   2.894
 7607WAT      O23062   8.971   9.096   4.115
 7607WAT     H123063   8.963   9.001   4.086
 7607WAT     H223064   8.944   9.157   4.040
 7608WAT      O23065   4.769   4.064   4.627
 7608WAT     H123066   4.794   4.028   4.537
 7608WAT     H223067   4.674   4.040   4.647
 7609WAT      O23068   3.462   3.484   3.625
 7609WAT     H123069   3.381   3.435   3.657
 7609WAT     H223070   3.437   3.578   3.602
 7610WAT      O23071   9.442   5.067   3.812
 7610WAT     H123072   9.376   5.140   3.827
 7610WAT     H223073   9.488   5.044   3.898
 7611WAT      O23074   5.764   7.124   0.052
 7611WAT     H123075   5.855   7.118   0.011
 7611WAT     H223076   5.732   7.033   0.078
 7612WAT      O23077   0.991   2.780   5.811
 7612WAT     H123078   1.042   2.796   5.727
 7612WAT     H223079   0.932   2.700   5.799
 7613WAT      O23080   9.103   2.697   6.848
 7613WAT     H123081   9.048   2.775   6.818
 7613WAT     H223082   9.076   2.616   6.796
 7614WAT      O23083   0.923   7.187   5.225
 7614WAT     H123084   0.868   7.235   5.157
 7614WAT     H223085   0.981   7.253   5.273
 7615WAT      O23086   2.266   0.763   6.156
 7615WAT     H123087   2.228   0.793   6.068
 7615WAT     H223088   2.230   0.673   6.179
 7616WAT      O23089   3.329   5.763   6.752
 7616WAT     H123090   3.388   5.820   6.695
 7616WAT     H223091   3.239   5.756   6.709
 7617WAT      O23092   7.147   3.584   8.767
 7617WAT     H123093   7.065   3.599   8.712
 7617WAT     H223094   7.155   3.488   8.791
 7618WAT      O23095   0.538   0.539   9.436
 7618WAT     H123096   0.620   0.583   9.399
 7618WAT     H223097   0.458   0.569   9.384
 7619WAT      O23098   6.359   1.257   3.815
 7619WAT     H123099   6.382   1.253   3.912
 7619WAT     H223100   6.295   1.184   3.793
 7620WAT      O23101   6.981   3.426   6.643
 7620WAT     H123102   7.033   3.501   6.685
 7620WAT     H223103   6.883   3.444   6.655
 7621WAT      O23104   2.746   0.389   4.630
 7621WAT     H123105   2.826   0.330   4.635
 7621WAT     H223106   2.709   0.402   4.722
 7622WAT      O23107   3.394   5.693   3.925
 7622WAT     H123108   3.435   5.691   4.016
 7622WAT     H223109   3.295   5.680   3.933
 7623WAT      O23110   9.086   9.694   4.162
 7623WAT     H123111   9.171   9.716   4.115
 7623WAT     H223112   9.050   9.777   4.205
 7624WAT      O23113   4.133   5.191   9.203
 7624WAT     H123114   4.130   5.129   9.281
 7624WAT     H223115   4.196   5.267   9.222
 7625WAT      O23116   7.375   7.714   7.865
 7625WAT     H123117   7.306   7.784   7.885
 7625WAT     H223118   7.381   7.650   7.942
 7626WAT      O23119   6.063   6.290   0.209
 7626WAT     H123120   6.121   6.301   0.290
 7626WAT     H223121   5.987   6.228   0.230
 7627WAT      O23122   5.463   8.967   0.603
 7627WAT     H123123   5.364   8.982   0.598
 7627WAT     H223124   5.499   8.954   0.511
 7628WAT      O23125   6.243   8.998   1.309
 7628WAT     H123126   6.149   9.031   1.300
 7628WAT     H223127   6.250   8.939   1.390
 7629WAT      O23128   9.323   3.336   0.102
 7629WAT     H123129   9.228   3.366   0.109
 7629WAT     H223130   9.347   3.326   0.005
 7630WAT      O23131   9.665   2.994   9.235
 7630WAT     H123132   9.757   3.013   9.202
 7630WAT     H223133   9.655   2.897   9.254
 7631WAT      O23134   8.743   9.642   0.004
 7631WAT     H123135   8.754   9.727   0.056
 7631WAT     H223136   8.788   9.567   0.053
 7632WAT      O23137   7.860   8.400   8.495
 7632WAT     H123138   7.774   8.354   8.475
 7632WAT     H223139   7.842   8.489   8.536
 7633WAT      O23140   3.433   0.482   8.906
 7633WAT     H123141   3.432   0.538   8.823
 7633WAT     H223142   3.481   0.531   8.979
 7634WAT      O23143   1.422   9.261   3.424
 7634WAT     H123144   1.446   9.189   3.490
 7634WAT     H223145   1.358   9.325   3.468
 7635WAT      O23146   2.964   6.309   7.853
 7635WAT     H123147   2.912   6.245   7.796
 7635WAT     H223148   2.900   6.359   7.912
 7636WAT      O23149   3.797   6.431   9.114
 7636WAT     H123150   3.792   6.350   9.056
 7636WAT     H223151   3.889   6.470   9.110
 7637WAT      O23152   5.266   5.562   2.909
 7637WAT     H123153   5.300   5.470   2.889
 7637WAT     H223154   5.194   5.585   2.843
 7638WAT      O23155   2.867   6.663   7.686
 7638WAT     H123156   2.945   6.666   7.749
 7638WAT     H223157   2.823   6.573   7.693
 7639WAT      O23158   6.022   8.523   1.694
 7639WAT     H123159   5.977   8.549   1.609
 7639WAT     H223160   6.120   8.518   1.680
 7640WAT      O23161   8.277   4.788   1.304
 7640WAT     H123162   8.334   4.743   1.373
 7640WAT     H223163   8.206   4.842   1.349
 7641WAT      O23164   2.299   5.265   7.786
 7641WAT     H123165   2.317   5.242   7.690
 7641WAT     H223166   2.237   5.197   7.825
 7642WAT      O23167   2.879   5.217   2.597
 7642WAT     H123168   2.911   5.152   2.527
 7642WAT     H223169   2.886   5.175   2.687
 7643WAT      O23170   7.331   7.369   6.452
 7643WAT     H123171   7.235   7.344   6.443
 7643WAT     H223172   7.380   7.343   6.368
 7644WAT      O23173   0.112   1.503   6.341
 7644WAT     H123174   0.023   1.516   6.387
 7644WAT     H223175   0.105   1.427   6.277
 7645WAT      O23176   6.832   6.017   2.600
 7645WAT     H123177   6.749   6.046   2.553
 7645WAT     H223178   6.839   6.064   2.688
 7646WAT      O23179   8.451   4.284   5.814
 7646WAT     H123180   8.418   4.378   5.812
 7646WAT     H223181   8.534   4.277   5.758
 7647WAT      O23182   9.311   2.360   3.417
 7647WAT     H123183   9.301   2.320   3.508
 7647WAT     H223184   9.348   2.453   3.425
 7648WAT      O23185   3.933   3.393   6.406
 7648WAT     H123186   4.027   3.364   6.387
 7648WAT     H223187   3.881   3.314   6.441
 7649WAT      O23188   0.246   2.291   4.630
 7649WAT     H123189   0.320   2.356   4.614
 7649WAT     H223190   0.163   2.340   4.657
 7650WAT      O23191   5.068   6.392   1.567
 7650WAT     H123192   4.982   6.351   1.536
 7650WAT     H223193   5.111   6.441   1.490
 7651WAT      O23194   7.792   4.463   6.855
 7651WAT     H123195   7.854   4.513   6.794
 7651WAT     H223196   7.764   4.378   6.811
 7652WAT      O23197   2.786   5.646   2.156
 7652WAT     H123198   2.820   5.678   2.068
 7652WAT     H223199   2.776   5.724   2.218
 7653WAT      O23200   6.874   1.059   2.141
 7653WAT     H123201   6.838   1.151   2.152
 7653WAT     H223202   6.828   0.997   2.205
 7654WAT      O23203   0.623   2.493   6.242
 7654WAT     H123204   0.660   2.401   6.230
 7654WAT     H223205   0.551   2.492   6.311
 7655WAT      O23206   5.009   8.927   9.683
 7655WAT     H123207   5.028   8.829   9.677
 7655WAT     H223208   4.950   8.955   9.608
 7656WAT      O23209   6.122   6.675   9.068
 7656WAT     H123210   6.091   6.680   8.973
 7656WAT     H223211   6.190   6.602   9.077
 7657WAT      O23212   8.039   8.772   3.975
 7657WAT     H123213   7.976   8.712   3.925
 7657WAT     H223214   8.006   8.866   3.970
 7658WAT      O23215   5.043   4.275   2.931
 7658WAT     H123216   4.952   4.245   2.961
 7658WAT     H223217   5.100   4.294   3.011
 7659WAT      O23218   2.749   8.741   1.653
 7659WAT     H123219   2.817   8.674   1.684
 7659WAT     H223220   2.667   8.694   1.622
 7660WAT      O23221   2.289   5.435   6.263
 7660WAT     H123222   2.209   5.382   6.234
 7660WAT     H223223   2.317   5.496   6.189
 7661WAT      O23224   1.041   5.812   7.774
 7661WAT     H123225   0.961   5.785   7.827
 7661WAT     H223226   1.032   5.780   7.680
 7662WAT      O23227   4.177   8.442   4.245
 7662WAT     H123228   4.257   8.503   4.253
 7662WAT     H223229   4.118   8.454   4.325
 7663WAT      O23230   3.769   4.035   1.338
 7663WAT     H123231   3.794   3.952   1.387
 7663WAT     H223232   3.849   4.071   1.289
 7664WAT      O23233   0.976   8.383   9.833
 7664WAT     H123234   0.952   8.480   9.827
 7664WAT     H223235   0.895   8.331   9.862
 7665WAT      O23236   2.273   1.212   1.920
 7665WAT     H123237   2.180   1.221   1.884
 7665WAT     H223238   2.288   1.282   1.989
 7666WAT      O23239   0.470   1.915   8.511
 7666WAT     H123240   0.389   1.858   8.505
 7666WAT     H223241   0.500   1.941   8.419
 7667WAT      O23242   1.875   6.682   6.302
 7667WAT     H123243   1.869   6.674   6.202
 7667WAT     H223244   1.966   6.653   6.332
 7668WAT      O23245   2.299   8.845   9.798
 7668WAT     H123246   2.388   8.825   9.838
 7668WAT     H223247   2.312   8.889   9.709
 7669WAT      O23248   7.677   2.052   6.671
 7669WAT     H123249   7.733   1.975   6.701
 7669WAT     H223250   7.586   2.020   6.648
 7670WAT      O23251   9.324   5.534   7.858
 7670WAT     H123252   9.247   5.535   7.794
 7670WAT     H223253   9.395   5.472   7.824
 7671WAT      O23254   5.827   7.682   4.512
 7671WAT     H123255   5.824   7.707   4.415
 7671WAT     H223256   5.754   7.729   4.561
 7672WAT      O23257   4.039   2.724   8.680
 7672WAT     H123258   4.139   2.728   8.683
 7672WAT     H223259   4.009   2.734   8.585
 7673WAT      O23260   3.067   6.367   5.900
 7673WAT     H123261   3.131   6.432   5.858
 7673WAT     H223262   2.974   6.405   5.897
 7674WAT      O23263   1.166   3.284   2.485
 7674WAT     H123264   1.208   3.332   2.408
 7674WAT     H223265   1.067   3.287   2.475
 7675WAT      O23266   8.167   2.951   8.658
 7675WAT     H123267   8.160   2.879   8.727
 7675WAT     H223268   8.244   2.931   8.597
 7676WAT      O23269   3.266   4.351   9.884
 7676WAT     H123270   3.252   4.265   9.931
 7676WAT     H223271   3.346   4.344   9.823
 7677WAT      O23272   8.737   9.314   2.993
 7677WAT     H123273   8.806   9.368   2.946
 7677WAT     H223274   8.654   9.369   3.007
 7678WAT      O23275   0.430   0.390   0.664
 7678WAT     H123276   0.486   0.339   0.598
 7678WAT     H223277   0.368   0.327   0.711
 7679WAT      O23278   4.498   8.975   6.509
 7679WAT     H123279   4.572   9.040   6.526
 7679WAT     H223280   4.412   9.015   6.542
 7680WAT      O23281   6.867   6.621   1.122
 7680WAT     H123282   6.773   6.592   1.137
 7680WAT     H223283   6.885   6.629   1.024
 7681WAT      O23284   5.735   6.383   7.303
 7681WAT     H123285   5.683   6.324   7.366
 7681WAT     H223286   5.715   6.358   7.209
 7682WAT      O23287   0.858   4.384   5.739
 7682WAT     H123288   0.823   4.426   5.655
 7682WAT     H223289   0.953   4.412   5.753
 7683WAT      O23290   5.197   4.353   9.062
 7683WAT     H123291   5.178   4.298   8.981
 7683WAT     H223292   5.254   4.432   9.037
 7684WAT      O23293   2.873   2.722   8.242
 7684WAT     H123294   2.824   2.724   8.154
 7684WAT     H223295   2.971   2.718   8.225
 7685WAT      O23296   9.838   5.612   9.287
 7685WAT     H123297   9.885   5.699   9.272
 7685WAT     H223298   9.893   5.554   9.347
 7686WAT      O23299   0.717   0.475   7.571
 7686WAT     H123300   0.635   0.424   7.598
 7686WAT     H223301   0.793   0.411   7.560
 7687WAT      O23302   3.106   1.367   0.437
 7687WAT     H123303   3.034   1.417   0.388
 7687WAT     H223304   3.100   1.270   0.414
 7688WAT      O23305   4.501   7.600   6.296
 7688WAT     H123306   4.554   7.587   6.380
 7688WAT     H223307   4.560   7.638   6.225
 7689WAT      O23308   5.265   9.505   8.353
 7689WAT     H123309   5.180   9.478   8.399
 7689WAT     H223310   5.303   9.586   8.398
 7690WAT      O23311   6.665   3.421   3.305
 7690WAT     H123312   6.661   3.433   3.404
 7690WAT     H223313   6.600   3.350   3.277
 7691WAT      O23314   4.521   7.166   7.728
 7691WAT     H123315   4.568   7.255   7.733
 7691WAT     H223316   4.509   7.141   7.632
 7692WAT      O23317   4.814   2.221   6.025
 7692WAT     H123318   4.906   2.239   5.989
 7692WAT     H223319   4.821   2.191   6.121
 7693WAT      O23320   8.934   8.604   4.278
 7693WAT     H123321   8.918   8.649   4.190
 7693WAT     H223322   9.032   8.594   4.293
 7694WAT      O23323   7.106   5.101   2.306
 7694WAT     H123324   7.138   5.178   2.252
 7694WAT     H223325   7.006   5.098   2.304
 7695WAT      O23326   0.538   6.032   2.949
 7695WAT     H123327   0.630   6.064   2.927
 7695WAT     H223328   0.483   6.109   2.981
 7696WAT      O23329   6.863   9.487   9.378
 7696WAT     H123330   6.862   9.567   9.438
 7696WAT     H223331   6.770   9.469   9.344
 7697WAT      O23332   0.857   6.654   0.677
 7697WAT     H123333   0.791   6.585   0.706
 7697WAT     H223334   0.933   6.656   0.741
 7698WAT      O23335   9.508   3.988   3.483
 7698WAT     H123336   9.442   3.984   3.558
 7698WAT     H223337   9.594   4.026   3.516
 7699WAT      O23338   5.027   9.745   8.674
 7699WAT     H123339   4.955   9.718   8.609
 7699WAT     H223340   5.035   9.844   8.676
 7700WAT      O23341   2.078   7.791   9.068
 7700WAT     H123342   1.999   7.783   9.008
 7700WAT     H223343   2.138   7.711   9.055
 7701WAT      O23344   0.514   0.506   8.600
 7701WAT     H123345   0.431   0.452   8.615
 7701WAT     H223346   0.594   0.451   8.624
 7702WAT      O23347   5.440   2.195   3.667
 7702WAT     H123348   5.364   2.259   3.655
 7702WAT     H223349   5.516   2.222   3.608
 7703WAT      O23350   7.767   4.097   8.037
 7703WAT     H123351   7.813   4.064   8.120
 7703WAT     H223352   7.836   4.132   7.973
 7704WAT      O23353   1.034   3.944   9.800
 7704WAT     H123354   1.040   3.976   9.894
 7704WAT     H223355   1.021   3.844   9.799
 7705WAT      O23356   3.238   8.608   1.017
 7705WAT     H123357   3.294   8.541   1.066
 7705WAT     H223358   3.296   8.660   0.953
 7706WAT      O23359   1.151   1.969   7.611
 7706WAT     H123360   1.231   2.029   7.615
 7706WAT     H223361   1.130   1.948   7.515
 7707WAT      O23362   7.849   7.047   1.783
 7707WAT     H123363   7.811   7.114   1.846
 7707WAT     H223364   7.887   7.094   1.703
 7708WAT      O23365   9.622   3.740   0.994
 7708WAT     H123366   9.618   3.824   1.047
 7708WAT     H223367   9.716   3.705   0.993
 7709WAT      O23368   7.846   0.262   8.224
 7709WAT     H123369   7.751   0.273   8.193
 7709WAT     H223370   7.871   0.166   8.219
 7710WAT      O23371   7.755   5.738   7.524
 7710WAT     H123372   7.800   5.827   7.521
 7710WAT     H223373   7.706   5.728   7.610
 7711WAT      O23374   4.464   8.999   4.287
 7711WAT     H123375   4.509   9.087   4.302
 7711WAT     H223376   4.378   8.997   4.337
 7712WAT      O23377   3.407   1.801   4.871
 7712WAT     H123378   3.422   1.730   4.940
 7712WAT     H223379   3.367   1.882   4.915
 7713WAT      O23380   8.591   9.164   9.021
 7713WAT     H123381   8.614   9.250   9.067
 7713WAT     H223382   8.495   9.143   9.035
 7714WAT      O23383   5.703   4.726   1.916
 7714WAT     H123384   5.787   4.749   1.965
 7714WAT     H223385   5.726   4.696   1.823
 7715WAT      O23386   1.216   9.047   6.538
 7715WAT     H123387   1.274   9.127   6.524
 7715WAT     H223388   1.269   8.975   6.583
 7716WAT      O23389   8.067   0.341   4.251
 7716WAT     H123390   8.067   0.244   4.226
 7716WAT     H223391   7.989   0.386   4.209
 7717WAT      O23392   0.093   5.769   7.266
 7717WAT     H123393   0.033   5.743   7.342
 7717WAT     H223394   0.137   5.856   7.288
 7718WAT      O23395   8.703   7.740   0.005
 7718WAT     H123396   8.612   7.771   0.032
 7718WAT     H223397   8.695   7.669  -0.065
 7719WAT      O23398   2.029   4.935   8.990
 7719WAT     H123399   1.954   4.973   8.935
 7719WAT     H223400   1.992   4.895   9.073
 7720WAT      O23401   2.491   9.242   2.517
 7720WAT     H123402   2.474   9.295   2.434
 7720WAT     H223403   2.589   9.233   2.531
 7721WAT      O23404   2.428   4.802   2.780
 7721WAT     H123405   2.428   4.889   2.829
 7721WAT     H223406   2.495   4.805   2.706
 7722WAT      O23407   6.798   3.852   4.888
 7722WAT     H123408   6.893   3.863   4.918
 7722WAT     H223409   6.750   3.939   4.900
 7723WAT      O23410   9.228   6.531   5.034
 7723WAT     H123411   9.133   6.558   5.045
 7723WAT     H223412   9.272   6.528   5.124
 7724WAT      O23413   8.034   3.862   7.935
 7724WAT     H123414   8.055   3.801   7.858
 7724WAT     H223415   8.002   3.950   7.900
 7725WAT      O23416   0.202   0.018   7.472
 7725WAT     H123417   0.146  -0.053   7.429
 7725WAT     H223418   0.295  -0.017   7.486
 7726WAT      O23419   1.236   0.725   0.659
 7726WAT     H123420   1.174   0.777   0.718
 7726WAT     H223421   1.254   0.636   0.701
 7727WAT      O23422   3.039   1.561   8.124
 7727WAT     H123423   3.070   1.478   8.078
 7727WAT     H223424   2.989   1.536   8.207
 7728WAT      O23425   1.269   1.511   0.426
 7728WAT     H123426   1.200   1.487   0.494
 7728WAT     H223427   1.354   1.463   0.447
 7729WAT      O23428   3.914   5.422   0.664
 7729WAT     H123429   3.882   5.502   0.713
 7729WAT     H223430   3.882   5.426   0.569
 7730WAT      O23431   6.747   9.710   6.527
 7730WAT     H123432   6.683   9.656   6.581
 7730WAT     H223433   6.841   9.691   6.558
 7731WAT      O23434   7.879   1.000   2.630
 7731WAT     H123435   7.901   0.986   2.534
 7731WAT     H223436   7.780   1.000   2.643
 7732WAT      O23437   3.962   5.791   7.977
 7732WAT     H123438   3.918   5.869   8.021
 7732WAT     H223439   3.960   5.803   7.878
 7733WAT      O23440   8.528   9.290   7.370
 7733WAT     H123441   8.484   9.380   7.363
 7733WAT     H223442   8.625   9.299   7.344
 7734WAT      O23443   0.071   6.086   4.208
 7734WAT     H123444   0.105   6.006   4.158
 7734WAT     H223445  -0.026   6.097   4.190
 7735WAT      O23446   8.884   2.712   1.313
 7735WAT     H123447   8.840   2.798   1.339
 7735WAT     H223448   8.814   2.645   1.286
 7736WAT      O23449   6.517   0.023   8.921
 7736WAT     H123450   6.423   0.003   8.892
 7736WAT     H223451   6.521   0.112   8.964
 7737WAT      O23452   3.444   7.791   8.393
 7737WAT     H123453   3.419   7.782   8.489
 7737WAT     H223454   3.363   7.815   8.339
 7738WAT      O23455   1.036   4.210   4.624
 7738WAT     H123456   1.072   4.220   4.532
 7738WAT     H223457   0.936   4.197   4.620
 7739WAT      O23458   7.479   1.970   4.835
 7739WAT     H123459   7.468   1.893   4.772
 7739WAT     H223460   7.523   1.939   4.919
 7740WAT      O23461   5.313   0.205   3.915
 7740WAT     H123462   5.399   0.255   3.928
 7740WAT     H223463   5.329   0.108   3.933
 7741WAT      O23464   6.810   3.996   7.498
 7741WAT     H123465   6.880   4.031   7.435
 7741WAT     H223466   6.745   3.940   7.447
 7742WAT      O23467   7.340   7.831   0.473
 7742WAT     H123468   7.315   7.789   0.386
 7742WAT     H223469   7.310   7.927   0.473
 7743WAT      O23470   1.897   8.756   7.791
 7743WAT     H123471   1.983   8.724   7.751
 7743WAT     H223472   1.828   8.684   7.782
 7744WAT      O23473   0.478   8.570   3.470
 7744WAT     H123474   0.513   8.664   3.475
 7744WAT     H223475   0.488   8.535   3.377
 7745WAT      O23476   8.617   0.401   9.872
 7745WAT     H123477   8.683   0.391   9.797
 7745WAT     H223478   8.525   0.379   9.839
 7746WAT      O23479   6.825   4.552   4.475
 7746WAT     H123480   6.835   4.599   4.388
 7746WAT     H223481   6.787   4.616   4.543
 7747WAT      O23482   0.032   0.528   5.375
 7747WAT     H123483  -0.023   0.580   5.311
 7747WAT     H223484   0.033   0.574   5.464
 7748WAT      O23485   0.064   3.333   8.176
 7748WAT     H123486   0.100   3.410   8.125
 7748WAT     H223487   0.138   3.288   8.227
 7749WAT      O23488   6.149   7.613   0.570
 7749WAT     H123489   6.107   7.524   0.555
 7749WAT     H223490   6.226   7.603   0.633
 7750WAT      O23491   7.102   8.959   4.532
 7750WAT     H123492   7.028   8.989   4.592
 7750WAT     H223493   7.077   8.871   4.490
 7751WAT      O23494   3.836   8.569   6.893
 7751WAT     H123495   3.926   8.528   6.880
 7751WAT     H223496   3.817   8.634   6.820
 7752WAT      O23497   3.128   9.600   4.155
 7752WAT     H123498   3.152   9.511   4.193
 7752WAT     H223499   3.135   9.669   4.227
 7753WAT      O23500   8.966   3.159   0.178
 7753WAT     H123501   8.985   3.143   0.275
 7753WAT     H223502   9.028   3.103   0.123
 7754WAT      O23503   0.683   7.764   5.869
 7754WAT     H123504   0.777   7.729   5.874
 7754WAT     H223505   0.643   7.740   5.780
 7755WAT      O23506   8.111   0.686   0.546
 7755WAT     H123507   8.133   0.588   0.545
 7755WAT     H223508   8.017   0.699   0.516
 7756WAT      O23509   4.454   2.311   0.559
 7756WAT     H123510   4.537   2.365   0.572
 7756WAT     H223511   4.432   2.262   0.643
 7757WAT      O23512   9.089   2.149   3.604
 7757WAT     H123513   9.008   2.204   3.622
 7757WAT     H223514   9.078   2.102   3.516
 7758WAT      O23515   5.218   2.160   0.270
 7758WAT     H123516   5.271   2.244   0.261
 7758WAT     H223517   5.190   2.148   0.365
 7759WAT      O23518   3.612   1.536   6.766
 7759WAT     H123519   3.604   1.536   6.667
 7759WAT     H223520   3.636   1.445   6.799
 7760WAT      O23521   6.621   1.435   1.562
 7760WAT     H123522   6.565   1.413   1.482
 7760WAT     H223523   6.631   1.352   1.618
 7761WAT      O23524   6.973   4.082   2.866
 7761WAT     H123525   6.967   4.062   2.769
 7761WAT     H223526   7.056   4.135   2.884
 7762WAT      O23527   7.032   2.471   9.071
 7762WAT     H123528   6.963   2.469   8.998
 7762WAT     H223529   7.019   2.392   9.131
 7763WAT      O23530   7.313   9.522   9.231
 7763WAT     H123531   7.256   9.604   9.227
 7763WAT     H223532   7.268   9.448   9.179
 7764WAT      O23533   1.695   9.516   6.127
 7764WAT     H123534   1.750   9.457   6.185
 7764WAT     H223535   1.621   9.557   6.180
 7765WAT      O23536   4.332   5.311   3.464
 7765WAT     H123537   4.375   5.399   3.483
 7765WAT     H223538   4.238   5.312   3.497
 7766WAT      O23539   2.593   4.332   6.551
 7766WAT     H123540   2.572   4.418   6.504
 7766WAT     H223541   2.535   4.323   6.632
 7767WAT      O23542   8.014   4.024   2.906
 7767WAT     H123543   8.038   4.108   2.955
 7767WAT     H223544   8.002   3.949   2.972
 7768WAT      O23545   2.617   1.001   1.976
 7768WAT     H123546   2.640   1.098   1.983
 7768WAT     H223547   2.557   0.976   2.052
 7769WAT      O23548   9.451   0.150   9.190
 7769WAT     H123549   9.452   0.150   9.290
 7769WAT     H223550   9.360   0.126   9.157
 7770WAT      O23551   5.370   6.800   8.632
 7770WAT     H123552   5.330   6.721   8.677
 7770WAT     H223553   5.448   6.833   8.684
 7771WAT      O23554   3.858   3.844   1.487
 7771WAT     H123555   3.861   3.889   1.576
 7771WAT     H223556   3.937   3.784   1.477
 7772WAT      O23557   6.956   5.578   8.201
 7772WAT     H123558   6.966   5.527   8.287
 7772WAT     H223559   6.963   5.676   8.220
 7773WAT      O23560   5.442   9.527   9.711
 7773WAT     H123561   5.453   9.437   9.753
 7773WAT     H223562   5.362   9.572   9.751
 7774WAT      O23563   2.781   0.850   6.886
 7774WAT     H123564   2.686   0.835   6.857
 7774WAT     H223565   2.842   0.794   6.830
 7775WAT      O23566   9.614   0.679   8.375
 7775WAT     H123567   9.702   0.651   8.412
 7775WAT     H223568   9.590   0.770   8.410
 7776WAT      O23569   3.315   3.971   3.676
 7776WAT     H123570   3.279   3.983   3.583
 7776WAT     H223571   3.396   4.027   3.688
 7777WAT      O23572   6.193   2.408   7.614
 7777WAT     H123573   6.138   2.329   7.640
 7777WAT     H223574   6.145   2.492   7.639
 7778WAT      O23575   2.585   8.306   0.611
 7778WAT     H123576   2.564   8.218   0.652
 7778WAT     H223577   2.508   8.336   0.553
 7779WAT      O23578   3.990   8.352   4.507
 7779WAT     H123579   3.991   8.324   4.603
 7779WAT     H223580   3.956   8.277   4.451
 7780WAT      O23581   4.606   7.763   2.481
 7780WAT     H123582   4.602   7.840   2.417
 7780WAT     H223583   4.543   7.781   2.557
 7781WAT      O23584   4.802   7.100   6.932
 7781WAT     H123585   4.777   7.143   6.845
 7781WAT     H223586   4.765   7.007   6.935
 7782WAT      O23587   5.520   4.024   8.211
 7782WAT     H123588   5.451   3.982   8.152
 7782WAT     H223589   5.605   4.034   8.160
 7783WAT      O23590   7.073   8.597   4.950
 7783WAT     H123591   7.062   8.677   4.891
 7783WAT     H223592   7.158   8.550   4.927
 7784WAT      O23593   4.092   9.345   0.282
 7784WAT     H123594   4.016   9.337   0.217
 7784WAT     H223595   4.121   9.441   0.287
 7785WAT      O23596   0.770   6.871   3.251
 7785WAT     H123597   0.859   6.886   3.295
 7785WAT     H223598   0.737   6.958   3.214
 7786WAT      O23599   2.491   9.073   5.440
 7786WAT     H123600   2.435   9.041   5.516
 7786WAT     H223601   2.456   9.033   5.355
 7787WAT      O23602   1.475   5.888   9.013
 7787WAT     H123603   1.468   5.935   9.101
 7787WAT     H223604   1.552   5.924   8.961
 7788WAT      O23605   9.548   6.718   1.387
 7788WAT     H123606   9.631   6.708   1.332
 7788WAT     H223607   9.472   6.745   1.328
 7789WAT      O23608   7.921   4.335   0.824
 7789WAT     H123609   7.986   4.379   0.763
 7789WAT     H223610   7.828   4.360   0.798
 7790WAT      O23611   0.879   4.413   6.550
 7790WAT     H123612   0.797   4.357   6.538
 7790WAT     H223613   0.916   4.437   6.461
 7791WAT      O23614   8.950   9.496   9.026
 7791WAT     H123615   8.944   9.545   9.113
 7791WAT     H223616   8.886   9.537   8.961
 7792WAT      O23617   9.708   2.339   9.382
 7792WAT     H123618   9.643   2.312   9.454
 7792WAT     H223619   9.772   2.406   9.419
 7793WAT      O23620   7.376   9.557   6.674
 7793WAT     H123621   7.425   9.485   6.724
 7793WAT     H223622   7.326   9.515   6.598
 7794WAT      O23623   3.357   0.775   0.809
 7794WAT     H123624   3.435   0.837   0.798
 7794WAT     H223625   3.386   0.682   0.788
 7795WAT      O23626   9.821   4.831   0.914
 7795WAT     H123627   9.804   4.841   0.816
 7795WAT     H223628   9.825   4.733   0.937
 7796WAT      O23629   6.762   5.284   8.513
 7796WAT     H123630   6.710   5.271   8.597
 7796WAT     H223631   6.702   5.269   8.434
 7797WAT      O23632   8.634   7.713   8.046
 7797WAT     H123633   8.574   7.760   7.981
 7797WAT     H223634   8.579   7.652   8.103
 7798WAT      O23635   5.482   7.575   1.143
 7798WAT     H123636   5.544   7.585   1.065
 7798WAT     H223637   5.409   7.643   1.137
 7799WAT      O23638   0.834   2.090   3.536
 7799WAT     H123639   0.903   2.113   3.604
 7799WAT     H223640   0.870   2.019   3.475
 7800WAT      O23641   9.074   5.800   8.628
 7800WAT     H123642   9.125   5.745   8.562
 7800WAT     H223643   8.999   5.746   8.666
 7801WAT      O23644   1.741   9.343   4.814
 7801WAT     H123645   1.690   9.351   4.729
 7801WAT     H223646   1.678   9.329   4.890
 7802WAT      O23647   4.945   4.055   0.302
 7802WAT     H123648   4.986   4.144   0.322
 7802WAT     H223649   4.861   4.045   0.355
 7803WAT      O23650   5.595   8.459   5.638
 7803WAT     H123651   5.690   8.447   5.610
 7803WAT     H223652   5.565   8.379   5.690
 7804WAT      O23653   5.609   4.100   4.567
 7804WAT     H123654   5.558   4.087   4.482
 7804WAT     H223655   5.546   4.102   4.644
 7805WAT      O23656   1.831   0.422   7.689
 7805WAT     H123657   1.782   0.389   7.609
 7805WAT     H223658   1.797   0.375   7.771
 7806WAT      O23659   2.844   7.157   1.523
 7806WAT     H123660   2.917   7.148   1.456
 7806WAT     H223661   2.790   7.239   1.502
 7807WAT      O23662   1.745   9.148   6.642
 7807WAT     H123663   1.664   9.117   6.594
 7807WAT     H223664   1.741   9.117   6.737
 7808WAT      O23665   9.502   6.731   8.011
 7808WAT     H123666   9.462   6.787   8.084
 7808WAT     H223667   9.431   6.710   7.944
 7809WAT      O23668   9.323   3.976   9.052
 7809WAT     H123669   9.397   4.019   9.000
 7809WAT     H223670   9.351   3.884   9.080
 7810WAT      O23671   2.908   8.659   2.273
 7810WAT     H123672   2.825   8.605   2.263
 7810WAT     H223673   2.895   8.749   2.230
 7811WAT      O23674   1.919   7.848   2.928
 7811WAT     H123675   2.009   7.823   2.963
 7811WAT     H223676   1.909   7.816   2.834
 7812WAT      O23677   6.531   8.590   0.359
 7812WAT     H123678   6.468   8.574   0.435
 7812WAT     H223679   6.509   8.678   0.316
 7813WAT      O23680   8.667   7.246   4.078
 7813WAT     H123681   8.745   7.280   4.026
 7813WAT     H223682   8.627   7.322   4.130
 7814WAT      O23683   7.535   0.031   1.205
 7814WAT     H123684   7.570   0.033   1.299
 7814WAT     H223685   7.608   0.060   1.143
 7815WAT      O23686   8.115   1.374   1.941
 7815WAT     H123687   8.092   1.310   1.867
 7815WAT     H223688   8.154   1.323   2.018
 7816WAT      O23689   7.437   4.244   3.784
 7816WAT     H123690   7.480   4.287   3.705
 7816WAT     H223691   7.507   4.210   3.846
 7817WAT      O23692   0.909   1.740   1.784
 7817WAT     H123693   0.936   1.817   1.842
 7817WAT     H223694   0.982   1.672   1.782
 7818WAT      O23695   0.673   3.337   8.550
 7818WAT     H123696   0.702   3.255   8.599
 7818WAT     H223697   0.734   3.353   8.472
 7819WAT      O23698   8.190   4.543   9.572
 7819WAT     H123699   8.183   4.528   9.671
 7819WAT     H223700   8.107   4.588   9.539
 7820WAT      O23701   2.628   8.354   9.456
 7820WAT     H123702   2.549   8.336   9.514
 7820WAT     H223703   2.602   8.420   9.385
 7821WAT      O23704   3.246   5.939   7.854
 7821WAT     H123705   3.179   5.964   7.784
 7821WAT     H223706   3.271   5.842   7.842
 7822WAT      O23707   0.188   7.296   0.677
 7822WAT     H123708   0.259   7.226   0.678
 7822WAT     H223709   0.182   7.337   0.585
 7823WAT      O23710   8.882   6.474   2.217
 7823WAT     H123711   8.782   6.476   2.214
 7823WAT     H223712   8.913   6.395   2.270
 7824WAT      O23713   1.813   6.065   1.076
 7824WAT     H123714   1.788   6.082   0.981
 7824WAT     H223715   1.869   6.141   1.109
 7825WAT      O23716   8.684   0.376   4.119
 7825WAT     H123717   8.691   0.474   4.135
 7825WAT     H223718   8.623   0.360   4.041
 7826WAT      O23719   1.353   2.142   1.892
 7826WAT     H123720   1.261   2.172   1.918
 7826WAT     H223721   1.420   2.207   1.925
 7827WAT      O23722   3.252   9.745   9.333
 7827WAT     H123723   3.313   9.681   9.287
 7827WAT     H223724   3.300   9.832   9.346
 7828WAT      O23725   2.842   6.223   1.939
 7828WAT     H123726   2.939   6.200   1.936
 7828WAT     H223727   2.829   6.318   1.910
 7829WAT      O23728   6.760   2.274   6.054
 7829WAT     H123729   6.787   2.259   6.149
 7829WAT     H223730   6.705   2.357   6.047
 7830WAT      O23731   8.171   1.980   3.687
 7830WAT     H123732   8.120   1.919   3.747
 7830WAT     H223733   8.256   1.935   3.659
 7831WAT      O23734   6.876   1.371   8.086
 7831WAT     H123735   6.938   1.323   8.023
 7831WAT     H223736   6.852   1.310   8.161
 7832WAT      O23737   8.400   9.823   4.908
 7832WAT     H123738   8.369   9.901   4.961
 7832WAT     H223739   8.490   9.794   4.941
 7833WAT      O23740   2.422   3.308   6.773
 7833WAT     H123741   2.448   3.291   6.678
 7833WAT     H223742   2.340   3.365   6.776
 7834WAT      O23743   4.424   1.669   7.633
 7834WAT     H123744   4.419   1.619   7.546
 7834WAT     H223745   4.518   1.668   7.667
 7835WAT      O23746   6.099   8.280   3.307
 7835WAT     H123747   6.178   8.243   3.356
 7835WAT     H223748   6.123   8.293   3.211
 7836WAT      O23749   1.708   4.206   9.893
 7836WAT     H123750   1.737   4.265   9.818
 7836WAT     H223751   1.788   4.174   9.943
 7837WAT      O23752   9.505   2.648   0.872
 7837WAT     H123753   9.410   2.615   0.872
 7837WAT     H223754   9.566   2.575   0.900
 7838WAT      O23755   9.740   7.421   2.866
 7838WAT     H123756   9.677   7.464   2.803
 7838WAT     H223757   9.797   7.355   2.817
 7839WAT      O23758   1.837   1.437   9.007
 7839WAT     H123759   1.753   1.439   8.953
 7839WAT     H223760   1.892   1.518   8.985
 7840WAT      O23761   5.743   2.764   5.733
 7840WAT     H123762   5.656   2.812   5.724
 7840WAT     H223763   5.726   2.665   5.732
 7841WAT      O23764   1.175   1.669   1.097
 7841WAT     H123765   1.133   1.618   1.021
 7841WAT     H223766   1.112   1.739   1.128
 7842WAT      O23767   8.826   1.347   4.852
 7842WAT     H123768   8.729   1.368   4.837
 7842WAT     H223769   8.837   1.299   4.939
 7843WAT      O23770   1.631   8.176   3.770
 7843WAT     H123771   1.719   8.163   3.725
 7843WAT     H223772   1.645   8.212   3.862
 7844WAT      O23773   0.946   1.683   5.144
 7844WAT     H123774   0.887   1.623   5.198
 7844WAT     H223775   0.954   1.772   5.189
 7845WAT      O23776   5.139   8.548   3.615
 7845WAT     H123777   5.218   8.486   3.613
 7845WAT     H223778   5.163   8.633   3.567
 7846WAT      O23779   4.144   3.999   6.269
 7846WAT     H123780   4.166   3.902   6.277
 7846WAT     H223781   4.158   4.029   6.175
 7847WAT      O23782   0.736   9.807   2.052
 7847WAT     H123783   0.807   9.872   2.079
 7847WAT     H223784   0.685   9.777   2.133
 7848WAT      O23785   7.214   0.361   2.759
 7848WAT     H123786   7.263   0.356   2.846
 7848WAT     H223787   7.235   0.448   2.713
 7849WAT      O23788   5.168   4.602   2.711
 7849WAT     H123789   5.085   4.621   2.762
 7849WAT     H223790   5.167   4.507   2.680
 7850WAT      O23791   7.352   6.652   4.151
 7850WAT     H123792   7.404   6.611   4.077
 7850WAT     H223793   7.256   6.660   4.124
 7851WAT      O23794   3.475   7.588   4.049
 7851WAT     H123795   3.573   7.586   4.071
 7851WAT     H223796   3.428   7.645   4.117
 7852WAT      O23797   7.880   7.141   7.089
 7852WAT     H123798   7.853   7.197   7.012
 7852WAT     H223799   7.932   7.062   7.057
 7853WAT      O23800   3.589   4.936   5.632
 7853WAT     H123801   3.554   4.880   5.707
 7853WAT     H223802   3.661   4.996   5.665
 7854WAT      O23803   2.055   1.628   6.778
 7854WAT     H123804   1.988   1.651   6.850
 7854WAT     H223805   2.006   1.600   6.695
 7855WAT      O23806   9.726   6.727   9.565
 7855WAT     H123807   9.758   6.668   9.491
 7855WAT     H223808   9.698   6.671   9.642
 7856WAT      O23809   9.749   9.452   3.072
 7856WAT     H123810   9.829   9.419   3.121
 7856WAT     H223811   9.708   9.377   3.021
 7857WAT      O23812   4.265   6.189   1.578
 7857WAT     H123813   4.340   6.155   1.522
 7857WAT     H223814   4.270   6.289   1.584
 7858WAT      O23815   8.473   4.328   7.784
 7858WAT     H123816   8.420   4.389   7.725
 7858WAT     H223817   8.418   4.248   7.807
 7859WAT      O23818   8.891   5.829   8.243
 7859WAT     H123819   8.850   5.920   8.241
 7859WAT     H223820   8.821   5.761   8.263
 7860WAT      O23821   6.912   9.065   9.887
 7860WAT     H123822   7.005   9.101   9.891
 7860WAT     H223823   6.899   8.997   9.960
 7861WAT      O23824   9.819   3.354   0.862
 7861WAT     H123825   9.828   3.285   0.791
 7861WAT     H223826   9.894   3.344   0.928
 7862WAT      O23827   0.881   7.619   2.544
 7862WAT     H123828   0.836   7.705   2.567
 7862WAT     H223829   0.940   7.591   2.619
 7863WAT      O23830   9.129   6.261   5.175
 7863WAT     H123831   9.152   6.311   5.258
 7863WAT     H223832   9.208   6.259   5.114
 7864WAT      O23833   4.578   5.000   3.772
 7864WAT     H123834   4.552   5.002   3.676
 7864WAT     H223835   4.504   5.039   3.827
 7865WAT      O23836   8.964   3.796   2.633
 7865WAT     H123837   9.039   3.819   2.696
 7865WAT     H223838   9.002   3.773   2.544
 7866WAT      O23839   3.141   0.298   2.472
 7866WAT     H123840   3.140   0.396   2.492
 7866WAT     H223841   3.134   0.247   2.557
 7867WAT      O23842   7.303   2.637   9.038
 7867WAT     H123843   7.310   2.697   9.118
 7867WAT     H223844   7.258   2.552   9.064
 7868WAT      O23845   4.543   4.450   3.215
 7868WAT     H123846   4.489   4.384   3.164
 7868WAT     H223847   4.625   4.405   3.251
 7869WAT      O23848   8.518   7.378   8.800
 7869WAT     H123849   8.530   7.278   8.793
 7869WAT     H223850   8.557   7.409   8.887
 7870WAT      O23851   1.866   4.712   6.035
 7870WAT     H123852   1.858   4.615   6.011
 7870WAT     H223853   1.937   4.755   5.978
 7871WAT      O23854   2.230   1.410   8.405
 7871WAT     H123855   2.242   1.506   8.381
 7871WAT     H223856   2.243   1.398   8.503
 7872WAT      O23857   6.647   4.964   0.658
 7872WAT     H123858   6.638   4.991   0.753
 7872WAT     H223859   6.607   5.035   0.599
 7873WAT      O23860   6.525   1.411   4.045
 7873WAT     H123861   6.612   1.434   4.087
 7873WAT     H223862   6.516   1.458   3.957
 7874WAT      O23863   8.949   4.979   5.653
 7874WAT     H123864   9.014   4.909   5.683
 7874WAT     H223865   8.988   5.070   5.670
 7875WAT      O23866   0.725   8.734   4.518
 7875WAT     H123867   0.785   8.809   4.490
 7875WAT     H223868   0.707   8.675   4.439
 7876WAT      O23869   5.061   6.047   5.570
 7876WAT     H123870   4.994   5.977   5.595
 7876WAT     H223871   5.126   6.058   5.645
 7877WAT      O23872   4.065   3.721   1.344
 7877WAT     H123873   4.097   3.769   1.262
 7877WAT     H223874   4.139   3.664   1.379
 7878WAT      O23875   5.842   7.177   0.978
 7878WAT     H123876   5.925   7.167   0.924
 7878WAT     H223877   5.830   7.096   1.036
 7879WAT      O23878   2.890   1.545   8.375
 7879WAT     H123879   2.860   1.463   8.326
 7879WAT     H223880   2.824   1.568   8.446
 7880WAT      O23881   2.784   6.618   5.583
 7880WAT     H123882   2.694   6.578   5.565
 7880WAT     H223883   2.839   6.616   5.500
 7881WAT      O23884   6.561   7.198   5.200
 7881WAT     H123885   6.601   7.188   5.291
 7881WAT     H223886   6.595   7.125   5.141
 7882WAT      O23887   8.542   1.216   2.292
 7882WAT     H123888   8.536   1.280   2.369
 7882WAT     H223889   8.471   1.147   2.300
 7883WAT      O23890   3.456   4.828   6.447
 7883WAT     H123891   3.535   4.832   6.508
 7883WAT     H223892   3.397   4.752   6.474
 7884WAT      O23893   6.930   5.663   1.291
 7884WAT     H123894   6.892   5.745   1.332
 7884WAT     H223895   6.891   5.649   1.200
 7885WAT      O23896   9.041   7.183   4.824
 7885WAT     H123897   8.971   7.216   4.762
 7885WAT     H223898   9.082   7.099   4.787
 7886WAT      O23899   2.194   1.434   9.229
 7886WAT     H123900   2.096   1.418   9.237
 7886WAT     H223901   2.210   1.527   9.196
 7887WAT      O23902   4.242   8.613   6.932
 7887WAT     H123903   4.327   8.585   6.976
 7887WAT     H223904   4.203   8.535   6.883
 7888WAT      O23905   6.612   2.304   1.798
 7888WAT     H123906   6.567   2.215   1.785
 7888WAT     H223907   6.584   2.367   1.726
 7889WAT      O23908   7.386   7.689   2.394
 7889WAT     H123909   7.359   7.624   2.464
 7889WAT     H223910   7.353   7.780   2.418
 7890WAT      O23911   8.577   7.885   6.217
 7890WAT     H123912   8.496   7.854   6.166
 7890WAT     H223913   8.643   7.810   6.224
 7891WAT      O23914   9.095   5.030   4.345
 7891WAT     H123915   9.115   5.120   4.306
 7891WAT     H223916   9.024   4.986   4.290
 7892WAT      O23917   2.534   6.443   5.912
 7892WAT     H123918   2.512   6.352   5.950
 7892WAT     H223919   2.452   6.482   5.870
 7893WAT      O23920   1.854   0.451   4.728
 7893WAT     H123921   1.898   0.464   4.639
 7893WAT     H223922   1.869   0.533   4.784
 7894WAT      O23923   2.290   7.930   4.645
 7894WAT     H123924   2.380   7.923   4.689
 7894WAT     H223925   2.264   8.026   4.639
 7895WAT      O23926   4.305   6.346   6.013
 7895WAT     H123927   4.251   6.418   6.058
 7895WAT     H223928   4.249   6.301   5.943
 7896WAT      O23929   4.564   5.157   8.266
 7896WAT     H123930   4.633   5.172   8.337
 7896WAT     H223931   4.479   5.128   8.308
 7897WAT      O23932   2.414   4.199   5.697
 7897WAT     H123933   2.446   4.287   5.661
 7897WAT     H223934   2.477   4.127   5.669
 7898WAT      O23935   2.195   8.923   9.056
 7898WAT     H123936   2.104   8.963   9.059
 7898WAT     H223937   2.217   8.895   8.962
 7899WAT      O23938   9.012   4.969   0.544
 7899WAT     H123939   9.010   4.880   0.588
 7899WAT     H223940   9.083   5.026   0.585
 7900WAT      O23941   9.238   9.609   0.389
 7900WAT     H123942   9.327   9.595   0.433
 7900WAT     H223943   9.211   9.524   0.342
 7901WAT      O23944   6.095   5.798   3.620
 7901WAT     H123945   6.026   5.755   3.678
 7901WAT     H223946   6.134   5.877   3.667
 7902WAT      O23947   6.140   6.147   2.730
 7902WAT     H123948   6.059   6.152   2.671
 7902WAT     H223949   6.112   6.124   2.823
 7903WAT      O23950   8.401   4.370   7.028
 7903WAT     H123951   8.462   4.377   6.949
 7903WAT     H223952   8.439   4.307   7.095
 7904WAT      O23953   2.441   7.916   8.688
 7904WAT     H123954   2.522   7.931   8.744
 7904WAT     H223955   2.367   7.976   8.720
 7905WAT      O23956   7.160   2.829   6.766
 7905WAT     H123957   7.156   2.756   6.697
 7905WAT     H223958   7.128   2.915   6.725
 7906WAT      O23959   7.890   0.976   9.813
 7906WAT     H123960   7.975   1.027   9.822
 7906WAT     H223961   7.882   0.939   9.721
 7907WAT      O23962   4.609   8.412   6.082
 7907WAT     H123963   4.512   8.393   6.098
 7907WAT     H223964   4.638   8.369   5.996
 7908WAT      O23965   3.622   0.930   6.840
 7908WAT     H123966   3.549   0.962   6.901
 7908WAT     H223967   3.601   0.959   6.747
 7909WAT      O23968   9.476   0.326   7.924
 7909WAT     H123969   9.437   0.356   8.011
 7909WAT     H223970   9.511   0.233   7.933
 7910WAT      O23971   5.998   9.611   7.258
 7910WAT     H123972   5.934   9.684   7.284
 7910WAT     H223973   5.949   9.523   7.257
 7911WAT      O23974   7.273   1.388   5.067
 7911WAT     H123975   7.323   1.468   5.099
 7911WAT     H223976   7.312   1.306   5.109
 7912WAT      O23977   1.265   0.914   0.859
 7912WAT     H123978   1.289   1.003   0.898
 7912WAT     H223979   1.348   0.869   0.826
 7913WAT      O23980   1.462   3.895   7.103
 7913WAT     H123981   1.424   3.803   7.110
 7913WAT     H223982   1.480   3.932   7.194
 7914WAT      O23983   7.903   1.031   2.349
 7914WAT     H123984   7.883   1.123   2.317
 7914WAT     H223985   7.839   0.966   2.307
 7915WAT      O23986   6.169   1.395   1.944
 7915WAT     H123987   6.141   1.488   1.970
 7915WAT     H223988   6.177   1.338   2.025
 7916WAT      O23989   2.762   0.911   8.333
 7916WAT     H123990   2.762   0.817   8.366
 7916WAT     H223991   2.809   0.969   8.399
 7917WAT      O23992   0.879   7.497   6.038
 7917WAT     H123993   0.961   7.497   6.095
 7917WAT     H223994   0.798   7.502   6.097
 7918WAT      O23995   7.924   8.400   3.409
 7918WAT     H123996   7.836   8.355   3.396
 7918WAT     H223997   7.953   8.441   3.322
 7919WAT      O23998   6.635   3.194   9.428
 7919WAT     H123999   6.614   3.119   9.491
 7919WAT     H224000   6.711   3.248   9.465
 7920WAT      O24001   8.921   8.483   2.178
 7920WAT     H124002   8.831   8.525   2.174
 7920WAT     H224003   8.991   8.553   2.189
 7921WAT      O24004   3.185   8.268   0.472
 7921WAT     H124005   3.270   8.282   0.422
 7921WAT     H224006   3.201   8.280   0.570
 7922WAT      O24007   7.481   9.007   3.057
 7922WAT     H124008   7.554   8.991   2.991
 7922WAT     H224009   7.446   8.919   3.090
 7923WAT      O24010   7.148   8.287   6.261
 7923WAT     H124011   7.245   8.273   6.246
 7923WAT     H224012   7.111   8.344   6.187
 7924WAT      O24013   3.449   8.144   5.160
 7924WAT     H124014   3.359   8.153   5.203
 7924WAT     H224015   3.497   8.232   5.166
 7925WAT      O24016   4.402   2.541   5.410
 7925WAT     H124017   4.415   2.462   5.469
 7925WAT     H224018   4.305   2.565   5.407
 7926WAT      O24019   9.206   8.985   3.295
 7926WAT     H124020   9.270   9.058   3.319
 7926WAT     H224021   9.127   8.989   3.356
 7927WAT      O24022   2.171   6.207   7.185
 7927WAT     H124023   2.253   6.253   7.218
 7927WAT     H224024   2.170   6.112   7.218
 7928WAT      O24025   2.331   7.400   6.511
 7928WAT     H124026   2.256   7.345   6.473
 7928WAT     H224027   2.363   7.358   6.596
 7929WAT      O24028   2.423   9.538   9.660
 7929WAT     H124029   2.370   9.594   9.596
 7929WAT     H224030   2.421   9.580   9.750
 7930WAT      O24031   9.285   4.036   0.011
 7930WAT     H124032   9.245   4.114   0.059
 7930WAT     H224033   9.370   4.064  -0.033
 7931WAT      O24034   3.172   6.856   2.943
 7931WAT     H124035   3.190   6.871   2.846
 7931WAT     H224036   3.097   6.915   2.972
 7932WAT      O24037   2.345   9.401   2.080
 7932WAT     H124038   2.253   9.395   2.041
 7932WAT     H224039   2.412   9.406   2.006
 7933WAT      O24040   3.178   5.886   9.310
 7933WAT     H124041   3.169   5.956   9.381
 7933WAT     H224042   3.228   5.925   9.232
 7934WAT      O24043   3.908   6.805   9.391
 7934WAT     H124044   3.818   6.769   9.416
 7934WAT     H224045   3.933   6.770   9.300
 7935WAT      O24046   6.345   3.542   1.814
 7935WAT     H124047   6.358   3.513   1.909
 7935WAT     H224048   6.275   3.485   1.771
 7936WAT      O24049   3.862   5.137   0.068
 7936WAT     H124050   3.834   5.226   0.033
 7936WAT     H224051   3.786   5.095   0.118
 7937WAT      O24052   8.511   4.001   1.141
 7937WAT     H124053   8.534   4.000   1.044
 7937WAT     H224054   8.563   3.929   1.188
 7938WAT      O24055   8.629   6.462   6.460
 7938WAT     H124056   8.591   6.411   6.537
 7938WAT     H224057   8.595   6.556   6.462
 7939WAT      O24058   7.467   6.355   6.210
 7939WAT     H124059   7.477   6.447   6.250
 7939WAT     H224060   7.410   6.299   6.269
 7940WAT      O24061   6.544   9.650   6.948
 7940WAT     H124062   6.506   9.741   6.939
 7940WAT     H224063   6.540   9.621   7.044
 7941WAT      O24064   8.937   3.665   0.362
 7941WAT     H124065   8.922   3.605   0.441
 7941WAT     H224066   9.029   3.651   0.326
 7942WAT      O24067   0.183   9.648   1.179
 7942WAT     H124068   0.143   9.712   1.113
 7942WAT     H224069   0.142   9.557   1.167
 7943WAT      O24070   3.895   4.430   8.095
 7943WAT     H124071   3.914   4.381   8.180
 7943WAT     H224072   3.953   4.512   8.091
 7944WAT      O24073   5.574   5.669   7.310
 7944WAT     H124074   5.509   5.632   7.243
 7944WAT     H224075   5.551   5.636   7.401
 7945WAT      O24076   5.386   5.028   1.020
 7945WAT     H124077   5.357   5.086   0.944
 7945WAT     H224078   5.430   4.946   0.984
 7946WAT      O24079   6.722   3.047   5.037
 7946WAT     H124080   6.728   3.117   4.966
 7946WAT     H224081   6.666   3.080   5.112
 7947WAT      O24082   2.732   8.731   6.917
 7947WAT     H124083   2.652   8.777   6.957
 7947WAT     H224084   2.772   8.790   6.846
 7948WAT      O24085   2.653   9.553   9.528
 7948WAT     H124086   2.564   9.552   9.573
 7948WAT     H224087   2.663   9.638   9.477
 7949WAT      O24088   1.395   9.219   6.871
 7949WAT     H124089   1.302   9.239   6.841
 7949WAT     H224090   1.415   9.270   6.955
 7950WAT      O24091   3.179   7.539   8.933
 7950WAT     H124092   3.185   7.622   8.989
 7950WAT     H224093   3.256   7.536   8.870
 7951WAT      O24094   8.699   7.659   3.221
 7951WAT     H124095   8.757   7.585   3.255
 7951WAT     H224096   8.604   7.641   3.247
 7952WAT      O24097   1.645   1.386   8.801
 7952WAT     H124098   1.652   1.297   8.755
 7952WAT     H224099   1.687   1.456   8.744
 7953WAT      O24100   6.688   9.485   1.652
 7953WAT     H124101   6.680   9.580   1.681
 7953WAT     H224102   6.752   9.479   1.576
 7954WAT      O24103   4.011   6.890   5.230
 7954WAT     H124104   4.077   6.960   5.203
 7954WAT     H224105   4.006   6.819   5.159
 7955WAT      O24106   8.356   6.217   0.527
 7955WAT     H124107   8.438   6.247   0.576
 7955WAT     H224108   8.294   6.173   0.592
 7956WAT      O24109   5.245   4.415   8.077
 7956WAT     H124110   5.153   4.453   8.088
 7956WAT     H224111   5.239   4.317   8.057
 7957WAT      O24112   9.455   2.804   6.079
 7957WAT     H124113   9.403   2.805   5.994
 7957WAT     H224114   9.465   2.709   6.111
 7958WAT      O24115   3.180   5.899   4.568
 7958WAT     H124116   3.088   5.936   4.580
 7958WAT     H224117   3.198   5.884   4.471
 7959WAT      O24118   7.896   9.201   5.474
 7959WAT     H124119   7.872   9.175   5.567
 7959WAT     H224120   7.855   9.137   5.409
 7960WAT      O24121   2.841   9.836   4.077
 7960WAT     H124122   2.782   9.909   4.112
 7960WAT     H224123   2.789   9.751   4.071
 7961WAT      O24124   7.661   5.679   7.005
 7961WAT     H124125   7.673   5.707   7.100
 7961WAT     H224126   7.587   5.611   7.000
 7962WAT      O24127   3.718   7.016   2.160
 7962WAT     H124128   3.739   7.073   2.080
 7962WAT     H224129   3.782   6.939   2.163
 7963WAT      O24130   9.646   0.639   4.944
 7963WAT     H124131   9.597   0.627   4.858
 7963WAT     H224132   9.671   0.735   4.954
 7964WAT      O24133   8.470   0.760   4.112
 7964WAT     H124134   8.463   0.855   4.141
 7964WAT     H224135   8.443   0.700   4.188
 7965WAT      O24136   6.826   5.762   2.129
 7965WAT     H124137   6.765   5.829   2.086
 7965WAT     H224138   6.788   5.733   2.216
 7966WAT      O24139   8.634   8.598   7.108
 7966WAT     H124140   8.719   8.569   7.154
 7966WAT     H224141   8.588   8.667   7.164
 7967WAT      O24142   8.331   2.258   6.910
 7967WAT     H124143   8.425   2.254   6.877
 7967WAT     H224144   8.269   2.277   6.834
 7968WAT      O24145   8.343   5.692   7.544
 7968WAT     H124146   8.277   5.700   7.619
 7968WAT     H224147   8.302   5.728   7.460
 7969WAT      O24148   0.256   7.370   8.961
 7969WAT     H124149   0.261   7.470   8.969
 7969WAT     H224150   0.235   7.331   9.050
 7970WAT      O24151   7.067   8.643   8.175
 7970WAT     H124152   7.017   8.558   8.196
 7970WAT     H224153   7.084   8.648   8.077
 7971WAT      O24154   0.264   6.678   0.207
 7971WAT     H124155   0.232   6.749   0.270
 7971WAT     H224156   0.286   6.596   0.259
 7972WAT      O24157   5.087   6.806   6.808
 7972WAT     H124158   5.026   6.735   6.844
 7972WAT     H224159   5.073   6.814   6.709
 7973WAT      O24160   5.856   5.690   7.942
 7973WAT     H124161   5.866   5.647   8.031
 7973WAT     H224162   5.760   5.715   7.928
 7974WAT      O24163   1.052   4.884   2.223
 7974WAT     H124164   1.004   4.972   2.228
 7974WAT     H224165   1.070   4.861   2.128
 7975WAT      O24166   9.736   1.779   8.509
 7975WAT     H124167   9.715   1.812   8.418
 7975WAT     H224168   9.827   1.811   8.536
 7976WAT      O24169   4.319   5.456   3.212
 7976WAT     H124170   4.324   5.396   3.291
 7976WAT     H224171   4.302   5.402   3.130
 7977WAT      O24172   3.412   4.381   0.531
 7977WAT     H124173   3.383   4.354   0.622
 7977WAT     H224174   3.410   4.302   0.470
 7978WAT      O24175   6.115   4.932   3.313
 7978WAT     H124176   6.047   4.956   3.243
 7978WAT     H224177   6.077   4.947   3.404
 7979WAT      O24178   1.897   4.610   4.526
 7979WAT     H124179   1.928   4.675   4.596
 7979WAT     H224180   1.829   4.548   4.565
 7980WAT      O24181   8.192   5.064   6.220
 7980WAT     H124182   8.202   5.028   6.313
 7980WAT     H224183   8.112   5.022   6.177
 7981WAT      O24184   8.816   8.126   5.356
 7981WAT     H124185   8.782   8.062   5.425
 7981WAT     H224186   8.912   8.106   5.338
 7982WAT      O24187   6.123   6.939   0.055
 7982WAT     H124188   6.047   6.908   0.112
 7982WAT     H224189   6.160   6.861   0.004
 7983WAT      O24190   5.393   1.331   8.136
 7983WAT     H124191   5.420   1.427   8.125
 7983WAT     H224192   5.295   1.326   8.155
 7984WAT      O24193   1.877   4.703   2.612
 7984WAT     H124194   1.799   4.681   2.552
 7984WAT     H224195   1.959   4.716   2.556
 7985WAT      O24196   5.761   6.941   1.624
 7985WAT     H124197   5.808   7.022   1.660
 7985WAT     H224198   5.673   6.931   1.669
 7986WAT      O24199   6.322   5.388   4.278
 7986WAT     H124200   6.353   5.462   4.218
 7986WAT     H224201   6.365   5.398   4.368
 7987WAT      O24202   0.133   5.069   4.984
 7987WAT     H124203   0.055   5.037   4.930
 7987WAT     H224204   0.158   4.998   5.051
 7988WAT      O24205   1.203   3.891   4.663
 7988WAT     H124206   1.243   3.951   4.593
 7988WAT     H224207   1.144   3.945   4.723
 7989WAT      O24208   7.420   8.279   5.074
 7989WAT     H124209   7.390   8.360   5.024
 7989WAT     H224210   7.353   8.206   5.061
 7990WAT      O24211   1.593   3.962   3.369
 7990WAT     H124212   1.511   3.957   3.426
 7990WAT     H224213   1.673   3.976   3.427
 7991WAT      O24214   6.809   5.300   9.579
 7991WAT     H124215   6.785   5.395   9.558
 7991WAT     H224216   6.775   5.241   9.506
 7992WAT      O24217   0.163   5.865   4.603
 7992WAT     H124218   0.248   5.878   4.551
 7992WAT     H224219   0.142   5.767   4.607
 7993WAT      O24220   4.615   5.203   2.164
 7993WAT     H124221   4.660   5.270   2.223
 7993WAT     H224222   4.685   5.147   2.119
 7994WAT      O24223   0.691   3.777   9.515
 7994WAT     H124224   0.786   3.775   9.484
 7994WAT     H224225   0.648   3.862   9.486
 7995WAT      O24226   7.012   7.497   5.720
 7995WAT     H124227   7.102   7.453   5.729
 7995WAT     H224228   6.966   7.496   5.809
 7996WAT      O24229   8.430   8.243   9.693
 7996WAT     H124230   8.354   8.178   9.697
 7996WAT     H224231   8.396   8.332   9.661
 7997WAT      O24232   8.855   7.303   1.280
 7997WAT     H124233   8.855   7.321   1.182
 7997WAT     H224234   8.948   7.307   1.315
 7998WAT      O24235   8.185   5.449   8.547
 7998WAT     H124236   8.213   5.529   8.599
 7998WAT     H224237   8.185   5.471   8.449
 7999WAT      O24238   3.780   6.825   1.343
 7999WAT     H124239   3.733   6.900   1.297
 7999WAT     H224240   3.807   6.756   1.276
 8000WAT      O24241   4.361   0.451   1.979
 8000WAT     H124242   4.437   0.386   1.972
 8000WAT     H224243   4.396   0.544   1.965
 8001WAT      O24244   4.544   3.797   6.321
 8001WAT     H124245   4.581   3.737   6.393
 8001WAT     H224246   4.478   3.860   6.361
 8002WAT      O24247   7.256   9.692   9.510
 8002WAT     H124248   7.220   9.744   9.433
 8002WAT     H224249   7.355   9.706   9.517
 8003WAT      O24250   1.642   6.911   9.298
 8003WAT     H124251   1.644   6.878   9.204
 8003WAT     H224252   1.548   6.935   9.323
 8004WAT      O24253   8.560   5.018   0.661
 8004WAT     H124254   8.590   5.018   0.757
 8004WAT     H224255   8.587   4.931   0.619
 8005WAT      O24256   1.098   7.270   8.214
 8005WAT     H124257   1.109   7.342   8.282
 8005WAT     H224258   1.183   7.218   8.206
 8006WAT      O24259   2.397   4.484   2.365
 8006WAT     H124260   2.339   4.491   2.284
 8006WAT     H224261   2.475   4.425   2.345
 8007WAT      O24262   7.567   8.885   6.837
 8007WAT     H124263   7.500   8.936   6.781
 8007WAT     H224264   7.549   8.904   6.934
 8008WAT      O24265   9.523   1.750   3.311
 8008WAT     H124266   9.467   1.820   3.355
 8008WAT     H224267   9.518   1.761   3.212
 8009WAT      O24268   4.734   7.844   4.014
 8009WAT     H124269   4.753   7.940   4.035
 8009WAT     H224270   4.649   7.837   3.962
 8010WAT      O24271   9.286   5.787   5.178
 8010WAT     H124272   9.373   5.824   5.208
 8010WAT     H224273   9.212   5.849   5.205
 8011WAT      O24274   3.007   4.684   8.753
 8011WAT     H124275   3.103   4.705   8.734
 8011WAT     H224276   2.993   4.585   8.748
 8012WAT      O24277   0.396   6.823   9.292
 8012WAT     H124278   0.405   6.923   9.300
 8012WAT     H224279   0.440   6.793   9.208
 8013WAT      O24280   1.559   0.074   8.190
 8013WAT     H124281   1.652   0.099   8.215
 8013WAT     H224282   1.559   0.032   8.099
 8014WAT      O24283   8.883   3.796   9.686
 8014WAT     H124284   8.982   3.794   9.698
 8014WAT     H224285   8.857   3.733   9.612
 8015WAT      O24286   5.099   4.741   6.665
 8015WAT     H124287   5.114   4.749   6.764
 8015WAT     H224288   5.036   4.813   6.636
 8016WAT      O24289   8.371   3.768   8.926
 8016WAT     H124290   8.401   3.679   8.961
 8016WAT     H224291   8.273   3.765   8.907
 8017WAT      O24292   2.086   9.820   1.677
 8017WAT     H124293   2.138   9.895   1.638
 8017WAT     H224294   2.060   9.842   1.771
 8018WAT      O24295   7.435   8.274   8.947
 8018WAT     H124296   7.408   8.360   8.903
 8018WAT     H224297   7.445   8.203   8.877
 8019WAT      O24298   2.274   0.594   1.414
 8019WAT     H124299   2.353   0.547   1.454
 8019WAT     H224300   2.298   0.688   1.394
 8020WAT      O24301   4.793   4.774   9.552
 8020WAT     H124302   4.847   4.710   9.498
 8020WAT     H224303   4.852   4.844   9.592
 8021WAT      O24304   5.286   9.032   3.411
 8021WAT     H124305   5.266   9.044   3.314
 8021WAT     H224306   5.365   8.971   3.421
 8022WAT      O24307   3.402   8.264   5.988
 8022WAT     H124308   3.449   8.273   5.900
 8022WAT     H224309   3.426   8.175   6.029
 8023WAT      O24310   8.930   9.622   5.954
 8023WAT     H124311   8.937   9.565   5.873
 8023WAT     H224312   8.838   9.663   5.957
 8024WAT      O24313   7.822   9.333   4.568
 8024WAT     H124314   7.777   9.374   4.489
 8024WAT     H224315   7.875   9.404   4.616
 8025WAT      O24316   9.849   0.187   9.031
 8025WAT     H124317   9.770   0.248   9.036
 8025WAT     H224318   9.821   0.097   9.000
 8026WAT      O24319   5.851   8.545   9.605
 8026WAT     H124320   5.837   8.634   9.649
 8026WAT     H224321   5.775   8.484   9.629
 8027WAT      O24322   1.408   1.708   2.804
 8027WAT     H124323   1.460   1.757   2.734
 8027WAT     H224324   1.410   1.761   2.889
 8028WAT      O24325   6.163   1.174   5.482
 8028WAT     H124326   6.071   1.211   5.481
 8028WAT     H224327   6.167   1.093   5.423
 8029WAT      O24328   3.230   6.171   5.204
 8029WAT     H124329   3.323   6.160   5.239
 8029WAT     H224330   3.233   6.217   5.115
 8030WAT      O24331   6.532   7.295   7.396
 8030WAT     H124332   6.455   7.301   7.332
 8030WAT     H224333   6.604   7.358   7.366
 8031WAT      O24334   2.632   1.279   4.321
 8031WAT     H124335   2.683   1.193   4.318
 8031WAT     H224336   2.534   1.260   4.314
 8032WAT      O24337   4.501   8.692   7.301
 8032WAT     H124338   4.425   8.639   7.265
 8032WAT     H224339   4.541   8.645   7.379
 8033WAT      O24340   8.991   5.905   9.880
 8033WAT     H124341   8.905   5.956   9.881
 8033WAT     H224342   8.974   5.812   9.848
 8034WAT      O24343   5.235   0.262   1.833
 8034WAT     H124344   5.323   0.309   1.837
 8034WAT     H224345   5.195   0.258   1.925
 8035WAT      O24346   4.418   5.513   4.380
 8035WAT     H124347   4.450   5.533   4.473
 8035WAT     H224348   4.342   5.448   4.384
 8036WAT      O24349   2.407   5.778   4.431
 8036WAT     H124350   2.495   5.754   4.391
 8036WAT     H224351   2.352   5.827   4.363
 8037WAT      O24352   2.808   0.603   1.632
 8037WAT     H124353   2.833   0.516   1.591
 8037WAT     H224354   2.807   0.594   1.732
 8038WAT      O24355   3.419   6.350   5.984
 8038WAT     H124356   3.482   6.427   5.990
 8038WAT     H224357   3.438   6.297   5.901
 8039WAT      O24358   4.069   3.295   9.628
 8039WAT     H124359   3.986   3.241   9.640
 8039WAT     H224360   4.066   3.342   9.540
 8040WAT      O24361   3.572   9.539   4.010
 8040WAT     H124362   3.608   9.608   4.072
 8040WAT     H224363   3.520   9.471   4.063
 8041WAT      O24364   9.350   1.554   0.238
 8041WAT     H124365   9.279   1.625   0.231
 8041WAT     H224366   9.393   1.542   0.149
 8042WAT      O24367   1.093   8.906   8.873
 8042WAT     H124368   1.136   8.962   8.803
 8042WAT     H224369   1.004   8.874   8.840
 8043WAT      O24370   3.126   7.469   7.644
 8043WAT     H124371   3.048   7.412   7.671
 8043WAT     H224372   3.134   7.468   7.544
 8044WAT      O24373   4.641   8.293   4.256
 8044WAT     H124374   4.597   8.380   4.278
 8044WAT     H224375   4.635   8.231   4.334
 8045WAT      O24376   2.248   5.746   6.863
 8045WAT     H124377   2.174   5.767   6.799
 8045WAT     H224378   2.318   5.692   6.816
 8046WAT      O24379   7.083   2.579   0.929
 8046WAT     H124380   7.111   2.643   1.001
 8046WAT     H224381   7.153   2.510   0.917
 8047WAT      O24382   5.901   1.773   9.395
 8047WAT     H124383   5.910   1.687   9.445
 8047WAT     H224384   5.856   1.841   9.453
 8048WAT      O24385   5.165   5.717   2.182
 8048WAT     H124386   5.120   5.687   2.098
 8048WAT     H224387   5.127   5.804   2.212
 8049WAT      O24388   5.371   6.860   0.208
 8049WAT     H124389   5.326   6.950   0.205
 8049WAT     H224390   5.362   6.815   0.119
 8050WAT      O24391   8.975   7.296   7.644
 8050WAT     H124392   8.905   7.337   7.702
 8050WAT     H224393   9.065   7.325   7.675
 8051WAT      O24394   8.755   1.735   2.678
 8051WAT     H124395   8.700   1.806   2.722
 8051WAT     H224396   8.828   1.778   2.624
 8052WAT      O24397   1.639   3.212   3.726
 8052WAT     H124398   1.655   3.282   3.795
 8052WAT     H224399   1.657   3.122   3.764
 8053WAT      O24400   9.264   1.316   0.328
 8053WAT     H124401   9.309   1.404   0.315
 8053WAT     H224402   9.193   1.325   0.398
 8054WAT      O24403   1.995   6.886   5.058
 8054WAT     H124404   2.059   6.963   5.062
 8054WAT     H224405   2.035   6.812   5.004
 8055WAT      O24406   5.160   0.971   4.275
 8055WAT     H124407   5.114   0.883   4.290
 8055WAT     H224408   5.164   1.022   4.361
 8056WAT      O24409   1.694   3.630   6.997
 8056WAT     H124410   1.665   3.620   6.902
 8056WAT     H224411   1.756   3.708   7.005
 8057WAT      O24412   2.179   2.445   1.166
 8057WAT     H124413   2.235   2.447   1.084
 8057WAT     H224414   2.104   2.511   1.158
 8058WAT      O24415   2.532   3.915   8.546
 8058WAT     H124416   2.583   3.850   8.490
 8058WAT     H224417   2.435   3.891   8.545
 8059WAT      O24418   2.204   8.536   8.629
 8059WAT     H124419   2.207   8.525   8.728
 8059WAT     H224420   2.179   8.449   8.587
 8060WAT      O24421   1.318   7.666   0.850
 8060WAT     H124422   1.240   7.713   0.810
 8060WAT     H224423   1.296   7.569   0.861
 8061WAT      O24424   1.037   4.822   1.414
 8061WAT     H124425   0.997   4.749   1.358
 8061WAT     H224426   0.999   4.818   1.506
 8062WAT      O24427   5.806   9.112   2.625
 8062WAT     H124428   5.798   9.206   2.659
 8062WAT     H224429   5.893   9.073   2.654
 8063WAT      O24430   1.085   0.463   3.927
 8063WAT     H124431   1.147   0.523   3.978
 8063WAT     H224432   1.010   0.433   3.987
 8064WAT      O24433   1.180   4.038   0.668
 8064WAT     H124434   1.273   4.035   0.703
 8064WAT     H224435   1.139   4.127   0.686
 8065WAT      O24436   2.480   8.656   0.374
 8065WAT     H124437   2.498   8.739   0.320
 8065WAT     H224438   2.567   8.616   0.402
 8066WAT      O24439   3.357   3.162   3.900
 8066WAT     H124440   3.348   3.063   3.887
 8066WAT     H224441   3.294   3.192   3.971
 8067WAT      O24442   2.766   1.040   0.071
 8067WAT     H124443   2.705   1.119   0.063
 8067WAT     H224444   2.760   0.985  -0.012
 8068WAT      O24445   8.318   3.162   6.080
 8068WAT     H124446   8.399   3.210   6.113
 8068WAT     H224447   8.338   3.120   5.992
 8069WAT      O24448   3.231   2.995   7.670
 8069WAT     H124449   3.213   3.015   7.766
 8069WAT     H224450   3.329   2.988   7.655
 8070WAT      O24451   1.182   7.934   7.450
 8070WAT     H124452   1.205   7.837   7.442
 8070WAT     H224453   1.118   7.959   7.377
 8071WAT      O24454   9.125   1.948   3.802
 8071WAT     H124455   9.128   2.038   3.759
 8071WAT     H224456   9.188   1.946   3.880
 8072WAT      O24457   1.301   9.354   8.193
 8072WAT     H124458   1.358   9.416   8.139
 8072WAT     H224459   1.277   9.397   8.280
 8073WAT      O24460   2.722   2.716   4.228
 8073WAT     H124461   2.625   2.690   4.227
 8073WAT     H224462   2.737   2.791   4.165
 8074WAT      O24463   3.737   9.342   1.413
 8074WAT     H124464   3.644   9.309   1.397
 8074WAT     H224465   3.763   9.326   1.509
 8075WAT      O24466   7.725   8.751   0.867
 8075WAT     H124467   7.632   8.729   0.839
 8075WAT     H224468   7.727   8.769   0.965
 8076WAT      O24469   3.874   8.341   0.872
 8076WAT     H124470   3.864   8.441   0.875
 8076WAT     H224471   3.856   8.303   0.962
 8077WAT      O24472   1.327   6.712   8.969
 8077WAT     H124473   1.406   6.691   8.911
 8077WAT     H224474   1.340   6.669   9.058
 8078WAT      O24475   4.222   8.273   7.251
 8078WAT     H124476   4.201   8.271   7.348
 8078WAT     H224477   4.239   8.367   7.222
 8079WAT      O24478   3.611   1.643   3.029
 8079WAT     H124479   3.547   1.568   3.013
 8079WAT     H224480   3.579   1.700   3.104
 8080WAT      O24481   2.372   1.358   9.855
 8080WAT     H124482   2.306   1.413   9.905
 8080WAT     H224483   2.337   1.264   9.847
 8081WAT      O24484   5.456   9.225   7.439
 8081WAT     H124485   5.532   9.205   7.501
 8081WAT     H224486   5.483   9.200   7.345
 8082WAT      O24487   9.155   0.974   6.522
 8082WAT     H124488   9.251   0.990   6.500
 8082WAT     H224489   9.146   0.955   6.620
 8083WAT      O24490   0.923   7.541   4.651
 8083WAT     H124491   0.943   7.477   4.577
 8083WAT     H224492   1.007   7.561   4.701
 8084WAT      O24493   8.701   6.380   6.224
 8084WAT     H124494   8.685   6.427   6.311
 8084WAT     H224495   8.627   6.402   6.160
 8085WAT      O24496   6.909   4.838   2.812
 8085WAT     H124497   6.983   4.836   2.744
 8085WAT     H224498   6.934   4.899   2.887
 8086WAT      O24499   0.263   6.470   3.545
 8086WAT     H124500   0.355   6.475   3.505
 8086WAT     H224501   0.244   6.375   3.571
 8087WAT      O24502   0.258   8.466   0.384
 8087WAT     H124503   0.170   8.474   0.431
 8087WAT     H224504   0.328   8.517   0.434
 8088WAT      O24505   4.175   8.568   4.531
 8088WAT     H124506   4.262   8.581   4.578
 8088WAT     H224507   4.136   8.480   4.555
 8089WAT      O24508   1.890   0.193   5.551
 8089WAT     H124509   1.850   0.186   5.460
 8089WAT     H224510   1.953   0.271   5.554
 8090WAT      O24511   3.583   1.105   5.051
 8090WAT     H124512   3.489   1.089   5.022
 8090WAT     H224513   3.592   1.083   5.148
 8091WAT      O24514   3.586   2.751   3.829
 8091WAT     H124515   3.609   2.687   3.903
 8091WAT     H224516   3.660   2.817   3.817
 8092WAT      O24517   4.227   9.386   7.277
 8092WAT     H124518   4.276   9.392   7.190
 8092WAT     H224519   4.129   9.386   7.259
 8093WAT      O24520   7.961   0.105   1.142
 8093WAT     H124521   7.959   0.051   1.226
 8093WAT     H224522   7.883   0.079   1.084
 8094WAT      O24523   8.858   3.529   7.175
 8094WAT     H124524   8.759   3.523   7.163
 8094WAT     H224525   8.895   3.595   7.109
 8095WAT      O24526   0.106   5.026   9.355
 8095WAT     H124527   0.023   5.072   9.386
 8095WAT     H224528   0.114   5.035   9.256
 8096WAT      O24529   3.622   9.076   3.928
 8096WAT     H124530   3.651   9.133   4.006
 8096WAT     H224531   3.693   9.078   3.858
 8097WAT      O24532   1.751   4.685   2.011
 8097WAT     H124533   1.694   4.703   2.092
 8097WAT     H224534   1.836   4.739   2.018
 8098WAT      O24535   1.988   4.541   5.384
 8098WAT     H124536   1.950   4.484   5.456
 8098WAT     H224537   2.078   4.506   5.357
 8099WAT      O24538   0.892   2.041   4.528
 8099WAT     H124539   0.835   2.022   4.448
 8099WAT     H224540   0.930   1.956   4.563
 8100WAT      O24541   4.328   9.065   1.052
 8100WAT     H124542   4.258   9.110   0.996
 8100WAT     H224543   4.285   8.996   1.110
 8101WAT      O24544   5.898   0.457   1.070
 8101WAT     H124545   5.817   0.417   1.026
 8101WAT     H224546   5.964   0.385   1.090
 8102WAT      O24547   7.890   9.599   7.691
 8102WAT     H124548   7.939   9.655   7.758
 8102WAT     H224549   7.794   9.629   7.686
 8103WAT      O24550   5.513   8.377   2.759
 8103WAT     H124551   5.508   8.438   2.679
 8103WAT     H224552   5.541   8.430   2.839
 8104WAT      O24553   6.579   8.465   5.031
 8104WAT     H124554   6.643   8.540   5.017
 8104WAT     H224555   6.493   8.486   4.982
 8105WAT      O24556   6.370   9.445   8.218
 8105WAT     H124557   6.428   9.364   8.230
 8105WAT     H224558   6.383   9.481   8.125
 8106WAT      O24559  -0.002   3.898   3.142
 8106WAT     H124560  -0.064   3.977   3.141
 8106WAT     H224561   0.093   3.931   3.153
 8107WAT      O24562   1.196   4.471   0.556
 8107WAT     H124563   1.229   4.383   0.522
 8107WAT     H224564   1.274   4.530   0.579
 8108WAT      O24565   4.694   5.311   0.607
 8108WAT     H124566   4.659   5.345   0.520
 8108WAT     H224567   4.663   5.371   0.681
 8109WAT      O24568   7.508   4.761   3.759
 8109WAT     H124569   7.408   4.763   3.765
 8109WAT     H224570   7.541   4.673   3.793
 8110WAT      O24571   8.260   1.268   2.866
 8110WAT     H124572   8.185   1.244   2.805
 8110WAT     H224573   8.278   1.193   2.929
 8111WAT      O24574   3.756   8.167   6.619
 8111WAT     H124575   3.807   8.127   6.695
 8111WAT     H224576   3.659   8.172   6.643
 8112WAT      O24577   4.243   5.431   5.266
 8112WAT     H124578   4.213   5.358   5.328
 8112WAT     H224579   4.313   5.486   5.311
 8113WAT      O24580   4.090   0.741   1.915
 8113WAT     H124581   4.117   0.822   1.863
 8113WAT     H224582   4.168   0.679   1.921
 8114WAT      O24583   6.247   4.311   4.836
 8114WAT     H124584   6.339   4.291   4.802
 8114WAT     H224585   6.214   4.396   4.795
 8115WAT      O24586   8.944   7.024   8.540
 8115WAT     H124587   8.921   7.058   8.449
 8115WAT     H224588   9.014   7.082   8.581
 8116WAT      O24589   5.336   7.594   8.331
 8116WAT     H124590   5.432   7.602   8.358
 8116WAT     H224591   5.320   7.503   8.294
 8117WAT      O24592   7.961   1.983   2.959
 8117WAT     H124593   7.992   1.916   3.027
 8117WAT     H224594   8.040   2.029   2.919
 8118WAT      O24595   0.593   8.391   0.148
 8118WAT     H124596   0.650   8.352   0.075
 8118WAT     H224597   0.567   8.484   0.124
 8119WAT      O24598   7.300   9.366   9.819
 8119WAT     H124599   7.326   9.352   9.723
 8119WAT     H224600   7.378   9.402   9.870
 8120WAT      O24601   6.343   2.916   2.487
 8120WAT     H124602   6.420   2.898   2.548
 8120WAT     H224603   6.290   2.833   2.473
 8121WAT      O24604   5.587   1.292   0.584
 8121WAT     H124605   5.684   1.281   0.607
 8121WAT     H224606   5.579   1.345   0.500
 8122WAT      O24607   1.517   2.941   4.573
 8122WAT     H124608   1.559   2.864   4.526
 8122WAT     H224609   1.487   3.009   4.506
 8123WAT      O24610   8.192   6.950   7.339
 8123WAT     H124611   8.223   7.037   7.377
 8123WAT     H224612   8.235   6.874   7.389
 8124WAT      O24613   9.332   5.716   7.543
 8124WAT     H124614   9.245   5.683   7.579
 8124WAT     H224615   9.389   5.639   7.517
 8125WAT      O24616   9.811   6.842   4.083
 8125WAT     H124617   9.828   6.820   3.987
 8125WAT     H224618   9.814   6.758   4.138
 8126WAT      O24619   2.897   2.671   8.537
 8126WAT     H124620   2.809   2.702   8.574
 8126WAT     H224621   2.909   2.708   8.445
 8127WAT      O24622   5.168   1.209   8.713
 8127WAT     H124623   5.203   1.120   8.740
 8127WAT     H224624   5.204   1.279   8.775
 8128WAT      O24625   4.943   0.689   5.608
 8128WAT     H124626   4.992   0.727   5.530
 8128WAT     H224627   4.882   0.759   5.645
 8129WAT      O24628   4.491   0.165   8.039
 8129WAT     H124629   4.495   0.163   7.939
 8129WAT     H224630   4.581   0.187   8.076
 8130WAT      O24631   8.958   8.917   2.944
 8130WAT     H124632   8.881   8.855   2.962
 8130WAT     H224633   9.042   8.874   2.976
 8131WAT      O24634   5.075   0.234   8.072
 8131WAT     H124635   5.077   0.312   8.133
 8131WAT     H224636   5.131   0.253   7.991
 8132WAT      O24637   1.251   7.547   2.242
 8132WAT     H124638   1.248   7.452   2.210
 8132WAT     H224639   1.162   7.573   2.278
 8133WAT      O24640   3.619   3.806   7.543
 8133WAT     H124641   3.593   3.715   7.574
 8133WAT     H224642   3.541   3.849   7.496
 8134WAT      O24643   6.363   1.041   3.408
 8134WAT     H124644   6.338   0.945   3.421
 8134WAT     H224645   6.463   1.049   3.406
 8135WAT      O24646   8.375   3.139   2.237
 8135WAT     H124647   8.295   3.131   2.297
 8135WAT     H224648   8.389   3.235   2.213
 8136WAT      O24649   6.613   2.749   9.132
 8136WAT     H124650   6.704   2.791   9.135
 8136WAT     H224651   6.543   2.820   9.144
 8137WAT      O24652   6.987   0.441   3.245
 8137WAT     H124653   7.080   0.432   3.282
 8137WAT     H224654   6.947   0.527   3.279
 8138WAT      O24655   9.750   9.325   9.600
 8138WAT     H124656   9.793   9.414   9.593
 8138WAT     H224657   9.759   9.291   9.694
 8139WAT      O24658   9.295   8.704   3.397
 8139WAT     H124659   9.321   8.649   3.318
 8139WAT     H224660   9.288   8.800   3.370
 8140WAT      O24661   0.685   1.861   9.439
 8140WAT     H124662   0.599   1.839   9.485
 8140WAT     H224663   0.738   1.924   9.496
 8141WAT      O24664   7.423   5.764   1.082
 8141WAT     H124665   7.348   5.707   1.118
 8141WAT     H224666   7.411   5.775   0.984
 8142WAT      O24667   4.904   5.075   2.770
 8142WAT     H124668   4.975   5.095   2.838
 8142WAT     H224669   4.867   5.160   2.734
 8143WAT      O24670   5.229   5.275   1.747
 8143WAT     H124671   5.151   5.238   1.697
 8143WAT     H224672   5.237   5.373   1.728
 8144WAT      O24673   4.321   9.654   8.952
 8144WAT     H124674   4.392   9.679   8.887
 8144WAT     H224675   4.232   9.684   8.917
 8145WAT      O24676   6.036   1.914   5.394
 8145WAT     H124677   6.009   1.923   5.490
 8145WAT     H224678   6.106   1.983   5.373
 8146WAT      O24679   8.772   9.480   7.066
 8146WAT     H124680   8.742   9.393   7.028
 8146WAT     H224681   8.694   9.527   7.109
 8147WAT      O24682   9.414   5.771   5.502
 8147WAT     H124683   9.386   5.844   5.565
 8147WAT     H224684   9.456   5.812   5.421
 8148WAT      O24685   7.668   6.517   2.484
 8148WAT     H124686   7.731   6.572   2.429
 8148WAT     H224687   7.608   6.577   2.536
 8149WAT      O24688   2.664   5.021   1.048
 8149WAT     H124689   2.687   4.994   0.954
 8149WAT     H224690   2.748   5.026   1.102
 8150WAT      O24691   7.825   1.637   0.360
 8150WAT     H124692   7.816   1.583   0.443
 8150WAT     H224693   7.737   1.680   0.338
 8151WAT      O24694   7.908   5.557   7.832
 8151WAT     H124695   7.824   5.587   7.787
 8151WAT     H224696   7.911   5.595   7.925
 8152WAT      O24697   9.387   1.598   0.698
 8152WAT     H124698   9.456   1.612   0.628
 8152WAT     H224699   9.396   1.507   0.737
 8153WAT      O24700   8.104   5.572   2.451
 8153WAT     H124701   8.068   5.550   2.361
 8153WAT     H224702   8.162   5.498   2.483
 8154WAT      O24703   0.350   6.671   2.883
 8154WAT     H124704   0.329   6.768   2.882
 8154WAT     H224705   0.305   6.626   2.806
 8155WAT      O24706   3.909   5.054   7.337
 8155WAT     H124707   3.833   5.086   7.280
 8155WAT     H224708   3.937   5.127   7.399
 8156WAT      O24709   5.589   2.885   4.240
 8156WAT     H124710   5.675   2.932   4.256
 8156WAT     H224711   5.543   2.869   4.327
 8157WAT      O24712   6.463   3.442   1.193
 8157WAT     H124713   6.383   3.406   1.145
 8157WAT     H224714   6.454   3.541   1.205
 8158WAT      O24715   7.926   4.184   5.229
 8158WAT     H124716   7.863   4.213   5.301
 8158WAT     H224717   7.879   4.186   5.140
 8159WAT      O24718   9.065   0.095   0.652
 8159WAT     H124719   8.974   0.101   0.695
 8159WAT     H224720   9.091   0.184   0.616
 8160WAT      O24721   4.137   2.750   4.282
 8160WAT     H124722   4.056   2.770   4.228
 8160WAT     H224723   4.153   2.651   4.283
 8161WAT      O24724   0.718   5.625   4.048
 8161WAT     H124725   0.657   5.568   4.103
 8161WAT     H224726   0.696   5.721   4.063
 8162WAT      O24727   8.144   5.560   0.438
 8162WAT     H124728   8.083   5.481   0.445
 8162WAT     H224729   8.140   5.613   0.522
 8163WAT      O24730   0.616   8.163   1.006
 8163WAT     H124731   0.543   8.222   0.971
 8163WAT     H224732   0.576   8.093   1.066
 8164WAT      O24733   9.393   0.821   2.673
 8164WAT     H124734   9.468   0.862   2.725
 8164WAT     H224735   9.344   0.891   2.622
 8165WAT      O24736   3.616   9.008   6.507
 8165WAT     H124737   3.659   8.937   6.562
 8165WAT     H224738   3.626   8.985   6.410
 8166WAT      O24739   0.305   9.055   2.823
 8166WAT     H124740   0.224   9.024   2.774
 8166WAT     H224741   0.366   9.103   2.760
 8167WAT      O24742   0.981   6.009   0.797
 8167WAT     H124743   0.960   5.985   0.891
 8167WAT     H224744   0.966   6.107   0.783
 8168WAT      O24745   4.087   4.190   3.790
 8168WAT     H124746   4.002   4.236   3.765
 8168WAT     H224747   4.161   4.224   3.731
 8169WAT      O24748   0.285   0.499   0.477
 8169WAT     H124749   0.353   0.476   0.547
 8169WAT     H224750   0.271   0.598   0.476
 8170WAT      O24751   2.169   0.053   6.711
 8170WAT     H124752   2.087   0.109   6.705
 8170WAT     H224753   2.149  -0.031   6.761
 8171WAT      O24754   7.543   2.280   6.260
 8171WAT     H124755   7.511   2.350   6.325
 8171WAT     H224756   7.622   2.232   6.300
 8172WAT      O24757   1.924   9.137   6.324
 8172WAT     H124758   1.927   9.103   6.230
 8172WAT     H224759   1.928   9.060   6.388
 8173WAT      O24760   3.998   0.825   5.551
 8173WAT     H124761   3.960   0.738   5.582
 8173WAT     H224762   3.924   0.885   5.520
 8174WAT      O24763   1.063   4.272   0.733
 8174WAT     H124764   1.056   4.278   0.833
 8174WAT     H224765   1.118   4.348   0.699
 8175WAT      O24766   3.092   1.243   8.372
 8175WAT     H124767   3.099   1.338   8.402
 8175WAT     H224768   3.060   1.241   8.277
 8176WAT      O24769   8.634   2.085   3.793
 8176WAT     H124770   8.715   2.027   3.799
 8176WAT     H224771   8.580   2.076   3.877
 8177WAT      O24772   6.000   3.765   3.262
 8177WAT     H124773   5.910   3.780   3.302
 8177WAT     H224774   6.032   3.849   3.218
 8178WAT      O24775   9.023   0.242   5.940
 8178WAT     H124776   9.088   0.308   5.977
 8178WAT     H224777   9.047   0.150   5.971
 8179WAT      O24778   1.659   7.121   1.478
 8179WAT     H124779   1.672   7.054   1.552
 8179WAT     H224780   1.731   7.190   1.482
 8180WAT      O24781   1.139   9.630   9.036
 8180WAT     H124782   1.162   9.532   9.044
 8180WAT     H224783   1.139   9.671   9.127
 8181WAT      O24784   2.837   4.204   6.449
 8181WAT     H124785   2.755   4.250   6.482
 8181WAT     H224786   2.899   4.271   6.409
 8182WAT      O24787   7.882   4.163   4.184
 8182WAT     H124788   7.809   4.107   4.224
 8182WAT     H224789   7.841   4.241   4.137
 8183WAT      O24790   7.355   3.575   3.136
 8183WAT     H124791   7.440   3.584   3.187
 8183WAT     H224792   7.278   3.570   3.201
 8184WAT      O24793   3.785   8.080   4.773
 8184WAT     H124794   3.856   8.101   4.706
 8184WAT     H224795   3.774   8.157   4.836
 8185WAT      O24796   7.171   9.532   6.862
 8185WAT     H124797   7.239   9.535   6.789
 8185WAT     H224798   7.197   9.462   6.929
 8186WAT      O24799   3.454   5.111   1.823
 8186WAT     H124800   3.374   5.079   1.772
 8186WAT     H224801   3.529   5.128   1.760
 8187WAT      O24802   0.525   8.423   3.929
 8187WAT     H124803   0.586   8.493   3.894
 8187WAT     H224804   0.561   8.387   4.015
 8188WAT      O24805   5.884   4.385   0.519
 8188WAT     H124806   5.930   4.376   0.608
 8188WAT     H224807   5.932   4.452   0.464
 8189WAT      O24808   3.043   8.768   0.539
 8189WAT     H124809   3.056   8.698   0.610
 8189WAT     H224810   2.974   8.833   0.571
 8190WAT      O24811   5.477   8.782   7.196
 8190WAT     H124812   5.553   8.797   7.260
 8190WAT     H224813   5.392   8.815   7.238
 8191WAT      O24814   4.433   3.730   2.412
 8191WAT     H124815   4.338   3.760   2.402
 8191WAT     H224816   4.457   3.729   2.509
 8192WAT      O24817   9.626   2.222   5.984
 8192WAT     H124818   9.627   2.218   6.084
 8192WAT     H224819   9.706   2.175   5.947
 8193WAT      O24820   0.386   9.439   0.313
 8193WAT     H124821   0.455   9.384   0.265
 8193WAT     H224822   0.424   9.470   0.400
 8194WAT      O24823   4.972   9.420   4.670
 8194WAT     H124824   4.937   9.326   4.672
 8194WAT     H224825   4.896   9.483   4.652
 8195WAT      O24826   2.554   0.114   2.485
 8195WAT     H124827   2.576   0.136   2.390
 8195WAT     H224828   2.503   0.028   2.488
 8196WAT      O24829   6.566   4.071   3.275
 8196WAT     H124830   6.663   4.056   3.295
 8196WAT     H224831   6.554   4.076   3.176
 8197WAT      O24832   3.808   6.116   2.849
 8197WAT     H124833   3.900   6.086   2.822
 8197WAT     H224834   3.792   6.092   2.944
 8198WAT      O24835   5.531   1.550   5.785
 8198WAT     H124836   5.459   1.608   5.745
 8198WAT     H224837   5.566   1.488   5.714
 8199WAT      O24838   5.943   9.345   3.062
 8199WAT     H124839   5.952   9.367   3.159
 8199WAT     H224840   6.022   9.291   3.032
 8200WAT      O24841   5.640   1.475   6.356
 8200WAT     H124842   5.604   1.413   6.286
 8200WAT     H224843   5.698   1.544   6.312
 8201WAT      O24844   0.929   5.578   9.149
 8201WAT     H124845   0.946   5.577   9.051
 8201WAT     H224846   0.928   5.673   9.182
 8202WAT      O24847   1.955   3.049   4.732
 8202WAT     H124848   1.915   3.096   4.811
 8202WAT     H224849   1.924   3.093   4.648
 8203WAT      O24850   4.946   8.096   0.889
 8203WAT     H124851   5.016   8.067   0.954
 8203WAT     H224852   4.961   8.191   0.862
 8204WAT      O24853   8.117   4.927   3.108
 8204WAT     H124854   8.096   4.865   3.183
 8204WAT     H224855   8.182   4.996   3.139
 8205WAT      O24856   9.708   0.769   1.918
 8205WAT     H124857   9.785   0.811   1.966
 8205WAT     H224858   9.708   0.798   1.823
 8206WAT      O24859   9.338   8.376   4.791
 8206WAT     H124860   9.418   8.320   4.772
 8206WAT     H224861   9.281   8.331   4.860
 8207WAT      O24862   7.451   0.218   4.924
 8207WAT     H124863   7.380   0.238   4.856
 8207WAT     H224864   7.411   0.168   5.000
 8208WAT      O24865   3.762   2.357   8.628
 8208WAT     H124866   3.745   2.265   8.662
 8208WAT     H224867   3.724   2.424   8.692
 8209WAT      O24868   1.518   3.359   5.822
 8209WAT     H124869   1.574   3.341   5.902
 8209WAT     H224870   1.447   3.289   5.815
 8210WAT      O24871   3.891   3.261   1.567
 8210WAT     H124872   3.967   3.273   1.631
 8210WAT     H224873   3.920   3.284   1.475
 8211WAT      O24874   6.519   8.508   3.079
 8211WAT     H124875   6.609   8.476   3.106
 8211WAT     H224876   6.460   8.514   3.159
 8212WAT      O24877   7.763   8.850   2.399
 8212WAT     H124878   7.680   8.869   2.347
 8212WAT     H224879   7.790   8.932   2.449
 8213WAT      O24880   7.136   5.665   9.597
 8213WAT     H124881   7.060   5.719   9.562
 8213WAT     H224882   7.130   5.572   9.561
 8214WAT      O24883   2.005   5.217   3.525
 8214WAT     H124884   2.013   5.227   3.425
 8214WAT     H224885   2.085   5.169   3.560
 8215WAT      O24886   4.127   6.543   7.751
 8215WAT     H124887   4.175   6.566   7.835
 8215WAT     H224888   4.186   6.563   7.673
 8216WAT      O24889   4.894   8.140   1.460
 8216WAT     H124890   4.987   8.107   1.446
 8216WAT     H224891   4.895   8.240   1.464
 8217WAT      O24892   1.305   2.767   2.404
 8217WAT     H124893   1.293   2.668   2.413
 8217WAT     H224894   1.398   2.787   2.375
 8218WAT      O24895   1.079   4.309   1.749
 8218WAT     H124896   0.990   4.345   1.721
 8218WAT     H224897   1.067   4.241   1.820
 8219WAT      O24898   1.453   7.846   4.674
 8219WAT     H124899   1.434   7.758   4.629
 8219WAT     H224900   1.533   7.836   4.733
 8220WAT      O24901   4.475   3.190   4.888
 8220WAT     H124902   4.482   3.182   4.788
 8220WAT     H224903   4.445   3.103   4.926
 8221WAT      O24904   8.870   8.236   4.340
 8221WAT     H124905   8.819   8.321   4.346
 8221WAT     H224906   8.956   8.245   4.390
 8222WAT      O24907   4.650   1.796   3.617
 8222WAT     H124908   4.603   1.827   3.535
 8222WAT     H224909   4.617   1.848   3.696
 8223WAT      O24910   0.687   2.445   8.882
 8223WAT     H124911   0.609   2.496   8.846
 8223WAT     H224912   0.660   2.352   8.904
 8224WAT      O24913   6.456   3.241   4.315
 8224WAT     H124914   6.449   3.266   4.219
 8224WAT     H224915   6.485   3.146   4.323
 8225WAT      O24916   2.262   1.401   8.680
 8225WAT     H124917   2.308   1.314   8.699
 8225WAT     H224918   2.320   1.476   8.712
 8226WAT      O24919   3.419   1.904   4.461
 8226WAT     H124920   3.515   1.931   4.464
 8226WAT     H224921   3.362   1.977   4.499
 8227WAT      O24922   0.944   4.673   4.186
 8227WAT     H124923   1.042   4.652   4.184
 8227WAT     H224924   0.921   4.727   4.104
 8228WAT      O24925   6.715   0.576   0.249
 8228WAT     H124926   6.774   0.602   0.172
 8228WAT     H224927   6.622   0.562   0.216
 8229WAT      O24928   1.249   8.806   5.048
 8229WAT     H124929   1.341   8.767   5.059
 8229WAT     H224930   1.256   8.903   5.025
 8230WAT      O24931   8.931   7.429   5.564
 8230WAT     H124932   8.920   7.502   5.497
 8230WAT     H224933   8.960   7.468   5.651
 8231WAT      O24934   2.785   3.378   7.210
 8231WAT     H124935   2.686   3.362   7.208
 8231WAT     H224936   2.813   3.420   7.123
 8232WAT      O24937   6.124   2.408   9.105
 8232WAT     H124938   6.057   2.422   9.177
 8232WAT     H224939   6.207   2.369   9.143
 8233WAT      O24940   0.099   2.148   2.141
 8233WAT     H124941   0.153   2.169   2.223
 8233WAT     H224942   0.151   2.175   2.060
 8234WAT      O24943   7.696   6.892   6.853
 8234WAT     H124944   7.777   6.834   6.852
 8234WAT     H224945   7.647   6.884   6.767
 8235WAT      O24946   6.770   5.606   3.271
 8235WAT     H124947   6.861   5.600   3.231
 8235WAT     H224948   6.707   5.648   3.206
 8236WAT      O24949   2.157   1.482   7.031
 8236WAT     H124950   2.188   1.568   7.072
 8236WAT     H224951   2.183   1.481   6.934
 8237WAT      O24952   7.165   7.899   7.913
 8237WAT     H124953   7.214   7.935   7.992
 8237WAT     H224954   7.087   7.958   7.892
 8238WAT      O24955   5.307   2.171   8.490
 8238WAT     H124956   5.255   2.232   8.550
 8238WAT     H224957   5.263   2.081   8.489
 8239WAT      O24958   8.129   7.734   6.910
 8239WAT     H124959   8.115   7.690   6.822
 8239WAT     H224960   8.221   7.772   6.914
 8240WAT      O24961   8.009   5.492   5.497
 8240WAT     H124962   8.087   5.461   5.443
 8240WAT     H224963   7.955   5.556   5.443
 8241WAT      O24964   2.012   0.951   0.207
 8241WAT     H124965   1.969   0.869   0.170
 8241WAT     H224966   1.982   0.964   0.302
 8242WAT      O24967   7.676   1.232   4.356
 8242WAT     H124968   7.739   1.210   4.281
 8242WAT     H224969   7.709   1.313   4.404
 8243WAT      O24970   5.642   6.666   8.975
 8243WAT     H124971   5.659   6.763   8.958
 8243WAT     H224972   5.717   6.628   9.029
 8244WAT      O24973   8.482   2.531   4.512
 8244WAT     H124974   8.563   2.486   4.474
 8244WAT     H224975   8.493   2.630   4.508
 8245WAT      O24976   3.387   0.237   0.895
 8245WAT     H124977   3.379   0.293   0.813
 8245WAT     H224978   3.420   0.146   0.869
 8246WAT      O24979   8.559   0.955   9.230
 8246WAT     H124980   8.498   0.909   9.165
 8246WAT     H224981   8.579   0.894   9.306
 8247WAT      O24982   6.152   0.179   3.244
 8247WAT     H124983   6.170   0.263   3.193
 8247WAT     H224984   6.158   0.101   3.181
 8248WAT      O24985   3.902   9.450   3.211
 8248WAT     H124986   3.970   9.511   3.170
 8248WAT     H224987   3.811   9.475   3.178
 8249WAT      O24988   3.160   5.435   3.374
 8249WAT     H124989   3.128   5.414   3.281
 8249WAT     H224990   3.091   5.491   3.421
 8250WAT      O24991   5.398   6.426   8.428
 8250WAT     H124992   5.486   6.389   8.457
 8250WAT     H224993   5.326   6.392   8.488
 8251WAT      O24994   2.257   0.433   3.377
 8251WAT     H124995   2.226   0.513   3.428
 8251WAT     H224996   2.303   0.370   3.439
 8252WAT      O24997   5.268   7.169   3.943
 8252WAT     H124998   5.308   7.158   4.034
 8252WAT     H224999   5.277   7.083   3.892
 8253WAT      O25000   4.783   7.708   4.310
 8253WAT     H125001   4.802   7.763   4.229
 8253WAT     H225002   4.708   7.749   4.362
 8254WAT      O25003   6.993   4.335   2.606
 8254WAT     H125004   6.991   4.433   2.622
 8254WAT     H225005   6.990   4.287   2.694
 8255WAT      O25006   9.200   0.230   2.383
 8255WAT     H125007   9.139   0.309   2.384
 8255WAT     H225008   9.232   0.213   2.290
 8256WAT      O25009   0.589   0.109   6.014
 8256WAT     H125010   0.672   0.114   6.070
 8256WAT     H225011   0.609   0.148   5.924
 8257WAT      O25012   1.302   0.973   6.909
 8257WAT     H125013   1.318   1.071   6.918
 8257WAT     H225014   1.221   0.957   6.853
 8258WAT      O25015   5.367   0.329   6.045
 8258WAT     H125016   5.289   0.349   6.103
 8258WAT     H225017   5.438   0.398   6.059
 8259WAT      O25018   2.992   6.064   8.276
 8259WAT     H125019   3.021   6.151   8.236
 8259WAT     H225020   3.038   6.051   8.364
 8260WAT      O25021   0.987   3.867   7.395
 8260WAT     H125022   0.995   3.967   7.395
 8260WAT     H225023   0.950   3.836   7.482
 8261WAT      O25024   4.421   8.446   7.679
 8261WAT     H125025   4.334   8.409   7.644
 8261WAT     H225026   4.408   8.481   7.771
 8262WAT      O25027   2.202   5.367   4.932
 8262WAT     H125028   2.203   5.463   4.906
 8262WAT     H225029   2.291   5.326   4.909
 8263WAT      O25030   8.364   3.636   4.832
 8263WAT     H125031   8.339   3.557   4.775
 8263WAT     H225032   8.415   3.702   4.777
 8264WAT      O25033   4.998   0.089   9.846
 8264WAT     H125034   5.051   0.138   9.776
 8264WAT     H225035   4.920   0.045   9.804
 8265WAT      O25036   5.570   3.807   0.611
 8265WAT     H125037   5.498   3.755   0.565
 8265WAT     H225038   5.540   3.901   0.623
 8266WAT      O25039   7.838   9.581   9.695
 8266WAT     H125040   7.922   9.542   9.734
 8266WAT     H225041   7.862   9.656   9.634
 8267WAT      O25042   8.314   4.177   3.359
 8267WAT     H125043   8.339   4.080   3.354
 8267WAT     H225044   8.362   4.219   3.436
 8268WAT      O25045   2.755   8.424   8.833
 8268WAT     H125046   2.699   8.342   8.825
 8268WAT     H225047   2.784   8.435   8.928
 8269WAT      O25048   1.786   7.029   8.549
 8269WAT     H125049   1.810   6.953   8.609
 8269WAT     H225050   1.870   7.069   8.511
 8270WAT      O25051   0.837   6.328   3.250
 8270WAT     H125052   0.762   6.352   3.189
 8270WAT     H225053   0.800   6.297   3.338
 8271WAT      O25054   2.285   6.383   1.805
 8271WAT     H125055   2.375   6.362   1.845
 8271WAT     H225056   2.234   6.298   1.793
 8272WAT      O25057   3.484   9.441   6.762
 8272WAT     H125058   3.429   9.505   6.708
 8272WAT     H225059   3.497   9.357   6.709
 8273WAT      O25060   3.461   5.679   7.610
 8273WAT     H125061   3.434   5.628   7.529
 8273WAT     H225062   3.553   5.651   7.637
 8274WAT      O25063   0.808   3.157   6.267
 8274WAT     H125064   0.737   3.225   6.251
 8274WAT     H225065   0.867   3.187   6.342
 8275WAT      O25066   0.911   2.007   5.806
 8275WAT     H125067   0.962   2.088   5.776
 8275WAT     H225068   0.893   2.013   5.904
 8276WAT      O25069   9.267   7.872   2.043
 8276WAT     H125070   9.325   7.820   1.980
 8276WAT     H225071   9.277   7.834   2.136
 8277WAT      O25072   0.779   1.941   7.548
 8277WAT     H125073   0.745   2.024   7.505
 8277WAT     H225074   0.849   1.899   7.491
 8278WAT      O25075   7.646   6.952   4.626
 8278WAT     H125076   7.681   7.033   4.579
 8278WAT     H225077   7.632   6.879   4.559
 8279WAT      O25078   7.996   0.874   8.763
 8279WAT     H125079   8.001   0.881   8.663
 8279WAT     H225080   7.953   0.788   8.788
 8280WAT      O25081   5.039   8.304   8.032
 8280WAT     H125082   5.030   8.403   8.047
 8280WAT     H225083   5.076   8.261   8.115
 8281WAT      O25084   5.667   8.801   7.405
 8281WAT     H125085   5.705   8.890   7.381
 8281WAT     H225086   5.622   8.807   7.494
 8282WAT      O25087   6.100   8.556   8.500
 8282WAT     H125088   6.133   8.500   8.424
 8282WAT     H225089   6.176   8.578   8.560
 8283WAT      O25090   7.392   0.968   1.051
 8283WAT     H125091   7.324   0.986   0.980
 8283WAT     H225092   7.424   1.055   1.089
 8284WAT      O25093   7.351   7.499   3.531
 8284WAT     H125094   7.267   7.542   3.500
 8284WAT     H225095   7.329   7.426   3.596
 8285WAT      O25096   2.199   3.055   7.009
 8285WAT     H125097   2.256   3.050   6.926
 8285WAT     H225098   2.111   3.011   6.992
 8286WAT      O25099   3.845   7.025   5.705
 8286WAT     H125100   3.766   7.036   5.646
 8286WAT     H225101   3.862   6.927   5.720
 8287WAT      O25102   2.400   4.620   5.818
 8287WAT     H125103   2.405   4.523   5.841
 8287WAT     H225104   2.336   4.665   5.880
 8288WAT      O25105   7.228   6.009   6.628
 8288WAT     H125106   7.281   6.076   6.680
 8288WAT     H225107   7.221   6.039   6.533
 8289WAT      O25108   1.373   4.409   7.424
 8289WAT     H125109   1.366   4.352   7.342
 8289WAT     H225110   1.466   4.404   7.460
 8290WAT      O25111   0.868   8.449   8.324
 8290WAT     H125112   0.820   8.485   8.244
 8290WAT     H225113   0.811   8.379   8.367
 8291WAT      O25114   1.163   3.617   6.635
 8291WAT     H125115   1.216   3.568   6.566
 8291WAT     H225116   1.070   3.580   6.638
 8292WAT      O25117   4.142   6.773   2.257
 8292WAT     H125118   4.113   6.721   2.338
 8292WAT     H225119   4.178   6.862   2.285
 8293WAT      O25120   0.040   1.698   1.362
 8293WAT     H125121   0.094   1.621   1.329
 8293WAT     H225122  -0.048   1.700   1.314
 8294WAT      O25123   5.519   9.477   2.805
 8294WAT     H125124   5.537   9.542   2.879
 8294WAT     H225125   5.438   9.422   2.828
 8295WAT      O25126   6.741   4.623   8.835
 8295WAT     H125127   6.831   4.644   8.798
 8295WAT     H225128   6.747   4.538   8.888
 8296WAT      O25129   6.141   5.347   8.942
 8296WAT     H125130   6.082   5.267   8.953
 8296WAT     H225131   6.143   5.398   9.028
 8297WAT      O25132   0.912   5.730   1.203
 8297WAT     H125133   0.952   5.643   1.232
 8297WAT     H225134   0.812   5.721   1.202
 8298WAT      O25135   9.220   2.921   1.301
 8298WAT     H125136   9.243   2.844   1.361
 8298WAT     H225137   9.209   2.888   1.207
 8299WAT      O25138   4.057   5.280   2.740
 8299WAT     H125139   4.080   5.193   2.784
 8299WAT     H225140   4.141   5.327   2.713
 8300WAT      O25141   4.420   3.394   9.774
 8300WAT     H125142   4.382   3.325   9.713
 8300WAT     H225143   4.518   3.379   9.783
 8301WAT      O25144   0.502   6.961   4.885
 8301WAT     H125145   0.575   6.896   4.903
 8301WAT     H225146   0.434   6.956   4.958
 8302WAT      O25147   5.944   0.219   5.869
 8302WAT     H125148   5.919   0.273   5.949
 8302WAT     H225149   5.967   0.126   5.898
 8303WAT      O25150   3.070   9.387   5.687
 8303WAT     H125151   3.013   9.309   5.713
 8303WAT     H225152   3.011   9.465   5.667
 8304WAT      O25153   1.714   2.043   4.930
 8304WAT     H125154   1.813   2.034   4.938
 8304WAT     H225155   1.682   2.115   4.992
 8305WAT      O25156   0.030   1.915   9.210
 8305WAT     H125157   0.052   1.819   9.226
 8305WAT     H225158  -0.022   1.924   9.125
 8306WAT      O25159   2.054   2.003   4.567
 8306WAT     H125160   2.037   2.065   4.490
 8306WAT     H225161   2.047   2.055   4.652
 8307WAT      O25162   7.303   1.231   5.476
 8307WAT     H125163   7.369   1.202   5.545
 8307WAT     H225164   7.229   1.282   5.520
 8308WAT      O25165   4.538   4.286   7.897
 8308WAT     H125166   4.630   4.325   7.908
 8308WAT     H225167   4.478   4.356   7.859
 8309WAT      O25168   0.245   2.340   0.654
 8309WAT     H125169   0.196   2.322   0.739
 8309WAT     H225170   0.343   2.338   0.672
 8310WAT      O25171   6.384   0.268   8.855
 8310WAT     H125172   6.322   0.338   8.891
 8310WAT     H225173   6.331   0.187   8.829
 8311WAT      O25174   6.429   2.086   8.633
 8311WAT     H125175   6.448   2.182   8.611
 8311WAT     H225176   6.371   2.046   8.563
 8312WAT      O25177   7.443   6.823   7.804
 8312WAT     H125178   7.460   6.818   7.903
 8312WAT     H225179   7.346   6.804   7.786
 8313WAT      O25180   3.554   7.998   7.934
 8313WAT     H125181   3.559   7.899   7.924
 8313WAT     H225182   3.483   8.021   8.000
 8314WAT      O25183   2.774   0.675   8.448
 8314WAT     H125184   2.727   0.663   8.536
 8314WAT     H225185   2.857   0.619   8.447
 8315WAT      O25186   8.223   9.101   9.874
 8315WAT     H125187   8.157   9.055   9.934
 8315WAT     H225188   8.267   9.034   9.815
 8316WAT      O25189   4.443   3.149   7.557
 8316WAT     H125190   4.498   3.156   7.474
 8316WAT     H225191   4.361   3.204   7.548
 8317WAT      O25192   1.765   0.068   8.785
 8317WAT     H125193   1.803   0.020   8.864
 8317WAT     H225194   1.837   0.119   8.738
 8318WAT      O25195   5.216   4.887   9.480
 8318WAT     H125196   5.161   4.844   9.408
 8318WAT     H225197   5.254   4.972   9.446
 8319WAT      O25198   8.325   5.679   5.888
 8319WAT     H125199   8.345   5.777   5.889
 8319WAT     H225200   8.409   5.627   5.905
 8320WAT      O25201   8.679   8.133   9.629
 8320WAT     H125202   8.583   8.160   9.643
 8320WAT     H225203   8.738   8.199   9.675
 8321WAT      O25204   4.119   5.075   0.164
 8321WAT     H125205   4.178   5.151   0.191
 8321WAT     H225206   4.030   5.110   0.136
 8322WAT      O25207   5.361   3.127   3.109
 8322WAT     H125208   5.373   3.083   3.020
 8322WAT     H225209   5.447   3.171   3.136
 8323WAT      O25210   6.524   4.360   9.708
 8323WAT     H125211   6.594   4.425   9.679
 8323WAT     H225212   6.567   4.280   9.748
 8324WAT      O25213   3.043   0.883   4.893
 8324WAT     H125214   3.011   0.891   4.798
 8324WAT     H225215   3.022   0.967   4.942
 8325WAT      O25216   7.166   4.158   4.114
 8325WAT     H125217   7.230   4.216   4.063
 8325WAT     H225218   7.201   4.065   4.117
 8326WAT      O25219   2.204   7.862   0.386
 8326WAT     H125220   2.110   7.831   0.399
 8326WAT     H225221   2.218   7.949   0.434
 8327WAT      O25222   8.472   3.200   6.727
 8327WAT     H125223   8.445   3.111   6.763
 8327WAT     H225224   8.552   3.189   6.667
 8328WAT      O25225   8.119   9.845   3.640
 8328WAT     H125226   8.147   9.767   3.584
 8328WAT     H225227   8.048   9.896   3.592
 8329WAT      O25228   0.953   2.389   1.100
 8329WAT     H125229   0.998   2.437   1.025
 8329WAT     H225230   0.977   2.433   1.187
 8330WAT      O25231   1.124   5.609   9.845
 8330WAT     H125232   1.221   5.621   9.862
 8330WAT     H225233   1.106   5.613   9.747
 8331WAT      O25234   3.719   4.516   3.937
 8331WAT     H125235   3.729   4.494   4.034
 8331WAT     H225236   3.761   4.604   3.918
 8332WAT      O25237   9.713   2.627   5.799
 8332WAT     H125238   9.766   2.548   5.830
 8332WAT     H225239   9.632   2.595   5.750
 8333WAT      O25240   5.695   7.339   1.482
 8333WAT     H125241   5.721   7.242   1.479
 8333WAT     H225242   5.773   7.394   1.512
 8334WAT      O25243   9.478   2.902   4.703
 8334WAT     H125244   9.405   2.897   4.771
 8334WAT     H225245   9.567   2.903   4.750
 8335WAT      O25246   0.459   0.129   6.695
 8335WAT     H125247   0.453   0.229   6.688
 8335WAT     H225248   0.551   0.103   6.724
 8336WAT      O25249   9.539   9.315   5.524
 8336WAT     H125250   9.489   9.293   5.608
 8336WAT     H225251   9.637   9.299   5.539
 8337WAT      O25252   5.639   0.335   0.391
 8337WAT     H125253   5.696   0.342   0.473
 8337WAT     H225254   5.690   0.288   0.319
 8338WAT      O25255   1.797   8.699   5.625
 8338WAT     H125256   1.711   8.650   5.628
 8338WAT     H225257   1.832   8.700   5.531
 8339WAT      O25258   7.600   9.840   5.645
 8339WAT     H125259   7.540   9.768   5.611
 8339WAT     H225260   7.688   9.835   5.597
 8340WAT      O25261   3.599   6.865   3.761
 8340WAT     H125262   3.686   6.814   3.760
 8340WAT     H225263   3.608   6.944   3.822
 8341WAT      O25264   4.236   8.659   9.257
 8341WAT     H125265   4.176   8.723   9.306
 8341WAT     H225266   4.247   8.690   9.162
 8342WAT      O25267   0.417   3.741   2.713
 8342WAT     H125268   0.327   3.781   2.733
 8342WAT     H225269   0.478   3.813   2.679
 8343WAT      O25270   8.488   2.994   4.830
 8343WAT     H125271   8.492   3.019   4.926
 8343WAT     H225272   8.568   3.030   4.783
 8344WAT      O25273   8.533   2.788   1.868
 8344WAT     H125274   8.567   2.796   1.775
 8344WAT     H225275   8.572   2.860   1.925
 8345WAT      O25276   0.736   7.499   5.380
 8345WAT     H125277   0.666   7.568   5.359
 8345WAT     H225278   0.812   7.509   5.316
 8346WAT      O25279   4.920   8.417   1.450
 8346WAT     H125280   4.829   8.457   1.462
 8346WAT     H225281   4.981   8.485   1.409
 8347WAT      O25282   5.961   6.836   7.057
 8347WAT     H125283   6.025   6.765   7.086
 8347WAT     H225284   5.868   6.811   7.085
 8348WAT      O25285   3.038   2.137   6.964
 8348WAT     H125286   3.129   2.125   7.005
 8348WAT     H225287   3.047   2.178   6.874
 8349WAT      O25288   4.291   6.321   2.975
 8349WAT     H125289   4.243   6.364   2.899
 8349WAT     H225290   4.386   6.302   2.950
 8350WAT      O25291   9.615   5.916   4.557
 8350WAT     H125292   9.703   5.928   4.511
 8350WAT     H225293   9.624   5.848   4.629
 8351WAT      O25294   4.817   5.888   7.935
 8351WAT     H125295   4.745   5.915   7.871
 8351WAT     H225296   4.843   5.968   7.990
 8352WAT      O25297   8.145   5.172   0.464
 8352WAT     H125298   8.095   5.101   0.514
 8352WAT     H225299   8.087   5.253   0.454
 8353WAT      O25300   4.617   1.469   4.583
 8353WAT     H125301   4.674   1.526   4.525
 8353WAT     H225302   4.580   1.523   4.659
 8354WAT      O25303   2.870   3.902   0.688
 8354WAT     H125304   2.911   3.904   0.597
 8354WAT     H225305   2.924   3.957   0.751
 8355WAT      O25306   7.457   6.012   6.184
 8355WAT     H125307   7.528   5.969   6.127
 8355WAT     H225308   7.379   5.950   6.190
 8356WAT      O25309   7.120   0.906   9.127
 8356WAT     H125310   7.214   0.936   9.110
 8356WAT     H225311   7.075   0.886   9.040
 8357WAT      O25312   9.074   0.811   5.171
 8357WAT     H125313   9.138   0.887   5.159
 8357WAT     H225314   9.028   0.820   5.259
 8358WAT      O25315   2.292   2.392   0.079
 8358WAT     H125316   2.196   2.408   0.055
 8358WAT     H225317   2.296   2.341   0.165
 8359WAT      O25318   8.205   9.100   5.237
 8359WAT     H125319   8.187   9.077   5.332
 8359WAT     H225320   8.249   9.190   5.231
 8360WAT      O25321   9.332   3.508   2.290
 8360WAT     H125322   9.369   3.436   2.349
 8360WAT     H225323   9.237   3.526   2.316
 8361WAT      O25324   8.221   5.295   6.028
 8361WAT     H125325   8.196   5.211   6.078
 8361WAT     H225326   8.210   5.280   5.930
 8362WAT      O25327   7.739   9.345   8.671
 8362WAT     H125328   7.693   9.307   8.591
 8362WAT     H225329   7.821   9.292   8.690
 8363WAT      O25330   8.160   9.508   3.676
 8363WAT     H125331   8.200   9.424   3.637
 8363WAT     H225332   8.160   9.580   3.607
 8364WAT      O25333   6.609   7.390   3.192
 8364WAT     H125334   6.606   7.487   3.169
 8364WAT     H225335   6.537   7.369   3.258
 8365WAT      O25336   6.220   4.570   0.799
 8365WAT     H125337   6.230   4.573   0.899
 8365WAT     H225338   6.157   4.497   0.775
 8366WAT      O25339   9.202   7.298   2.857
 8366WAT     H125340   9.166   7.236   2.927
 8366WAT     H225341   9.133   7.310   2.785
 8367WAT      O25342   5.932   1.898   6.821
 8367WAT     H125343   5.921   1.867   6.916
 8367WAT     H225344   5.843   1.929   6.786
 8368WAT      O25345   1.028   4.556   0.367
 8368WAT     H125346   1.113   4.522   0.408
 8368WAT     H225347   1.020   4.519   0.274
 8369WAT      O25348   3.721   2.034   5.245
 8369WAT     H125349   3.640   2.072   5.200
 8369WAT     H225350   3.756   1.958   5.191
 8370WAT      O25351   3.768   0.989   5.499
 8370WAT     H125352   3.804   1.075   5.463
 8370WAT     H225353   3.740   1.002   5.594
 8371WAT      O25354   5.860   1.698   5.432
 8371WAT     H125355   5.921   1.777   5.425
 8371WAT     H225356   5.771   1.728   5.466
 8372WAT      O25357   4.853   6.572   0.708
 8372WAT     H125358   4.844   6.494   0.646
 8372WAT     H225359   4.932   6.626   0.680
 8373WAT      O25360   0.331   0.825   5.755
 8373WAT     H125361   0.400   0.755   5.740
 8373WAT     H225362   0.269   0.829   5.676
 8374WAT      O25363   7.194   2.282   6.237
 8374WAT     H125364   7.255   2.218   6.285
 8374WAT     H225365   7.191   2.258   6.140
 8375WAT      O25366   7.472   1.606   2.627
 8375WAT     H125367   7.528   1.536   2.671
 8375WAT     H225368   7.477   1.690   2.681
 8376WAT      O25369   8.295   1.431   9.732
 8376WAT     H125370   8.361   1.369   9.774
 8376WAT     H225371   8.213   1.380   9.707
 8377WAT      O25372   1.685   9.579   7.744
 8377WAT     H125373   1.663   9.560   7.648
 8377WAT     H225374   1.630   9.519   7.803
 8378WAT      O25375   1.165   5.528   0.683
 8378WAT     H125376   1.193   5.596   0.750
 8378WAT     H225377   1.087   5.563   0.631
 8379WAT      O25378   6.729   5.195   2.970
 8379WAT     H125379   6.802   5.126   2.963
 8379WAT     H225380   6.756   5.276   2.918
 8380WAT      O25381   8.889   1.595   3.202
 8380WAT     H125382   8.934   1.670   3.250
 8380WAT     H225383   8.949   1.563   3.128
 8381WAT      O25384   6.268   9.213   8.428
 8381WAT     H125385   6.298   9.139   8.488
 8381WAT     H225386   6.332   9.223   8.352
 8382WAT      O25387   9.666   6.088   5.417
 8382WAT     H125388   9.716   6.091   5.503
 8382WAT     H225389   9.731   6.102   5.341
 8383WAT      O25390   3.552   7.761   7.123
 8383WAT     H125391   3.641   7.717   7.108
 8383WAT     H225392   3.562   7.835   7.189
 8384WAT      O25393   2.677   9.791   6.365
 8384WAT     H125394   2.657   9.885   6.338
 8384WAT     H225395   2.681   9.786   6.465
 8385WAT      O25396   7.271   6.864   5.134
 8385WAT     H125397   7.209   6.875   5.212
 8385WAT     H225398   7.217   6.852   5.051
 8386WAT      O25399   6.248   5.108   0.218
 8386WAT     H125400   6.346   5.125   0.205
 8386WAT     H225401   6.200   5.195   0.227
 8387WAT      O25402   5.544   8.415   2.106
 8387WAT     H125403   5.445   8.404   2.093
 8387WAT     H225404   5.567   8.402   2.202
 8388WAT      O25405   6.128   3.498   0.730
 8388WAT     H125406   6.140   3.418   0.790
 8388WAT     H225407   6.153   3.581   0.779
 8389WAT      O25408   4.172   6.665   2.833
 8389WAT     H125409   4.095   6.642   2.893
 8389WAT     H225410   4.234   6.728   2.881
 8390WAT      O25411   6.875   8.348   8.687
 8390WAT     H125412   6.894   8.276   8.621
 8390WAT     H225413   6.779   8.377   8.678
 8391WAT      O25414   2.796   7.344   8.058
 8391WAT     H125415   2.886   7.342   8.014
 8391WAT     H225416   2.787   7.429   8.110
 8392WAT      O25417   3.258   9.099   6.764
 8392WAT     H125418   3.223   9.041   6.690
 8392WAT     H225419   3.290   9.042   6.839
 8393WAT      O25420   8.342   7.584   1.513
 8393WAT     H125421   8.377   7.677   1.506
 8393WAT     H225422   8.269   7.571   1.445
 8394WAT      O25423   6.789   0.983   8.803
 8394WAT     H125424   6.829   0.976   8.711
 8394WAT     H225425   6.849   0.940   8.869
 8395WAT      O25426   8.924   7.063   8.270
 8395WAT     H125427   8.878   7.144   8.233
 8395WAT     H225428   8.876   6.981   8.239
 8396WAT      O25429   8.190   5.542   6.180
 8396WAT     H125430   8.210   5.462   6.124
 8396WAT     H225431   8.266   5.607   6.173
 8397WAT      O25432   2.935   9.706   7.356
 8397WAT     H125433   2.882   9.692   7.273
 8397WAT     H225434   2.890   9.662   7.433
 8398WAT      O25435   9.469   2.024   0.630
 8398WAT     H125436   9.443   2.004   0.725
 8398WAT     H225437   9.411   2.097   0.594
 8399WAT      O25438   7.019   8.758   6.955
 8399WAT     H125439   6.923   8.734   6.941
 8399WAT     H225440   7.025   8.834   7.020
 8400WAT      O25441   9.047   6.326   7.415
 8400WAT     H125442   8.970   6.344   7.476
 8400WAT     H225443   9.130   6.368   7.453
 8401WAT      O25444   6.314   6.851   0.489
 8401WAT     H125445   6.293   6.756   0.465
 8401WAT     H225446   6.261   6.913   0.431
 8402WAT      O25447   0.754   3.465   9.754
 8402WAT     H125448   0.831   3.524   9.729
 8402WAT     H225449   0.671   3.520   9.764
 8403WAT      O25450   4.950   9.561   8.864
 8403WAT     H125451   4.940   9.490   8.795
 8403WAT     H225452   4.996   9.640   8.825
 8404WAT      O25453   8.191   2.425   1.871
 8404WAT     H125454   8.097   2.398   1.892
 8404WAT     H225455   8.246   2.425   1.954
 8405WAT      O25456   8.624   2.042   1.640
 8405WAT     H125457   8.551   2.110   1.638
 8405WAT     H225458   8.710   2.085   1.666
 8406WAT      O25459   8.346   2.789   1.373
 8406WAT     H125460   8.351   2.871   1.315
 8406WAT     H225461   8.417   2.793   1.443
 8407WAT      O25462   0.505   6.235   8.998
 8407WAT     H125463   0.421   6.181   8.992
 8407WAT     H225464   0.483   6.329   9.023
 8408WAT      O25465   7.037   2.181   7.846
 8408WAT     H125466   7.130   2.184   7.883
 8408WAT     H225467   6.973   2.165   7.921
 8409WAT      O25468   3.610   0.168   6.264
 8409WAT     H125469   3.634   0.144   6.170
 8409WAT     H225470   3.650   0.257   6.287
 8410WAT      O25471   9.631   2.436   0.596
 8410WAT     H125472   9.635   2.477   0.687
 8410WAT     H225473   9.724   2.419   0.563
 8411WAT      O25474   8.185   1.943   2.793
 8411WAT     H125475   8.256   1.876   2.817
 8411WAT     H225476   8.221   2.035   2.809
 8412WAT      O25477   8.496   0.614   3.639
 8412WAT     H125478   8.432   0.648   3.707
 8412WAT     H225479   8.555   0.545   3.680
 8413WAT      O25480   3.375   9.149   7.825
 8413WAT     H125481   3.346   9.057   7.850
 8413WAT     H225482   3.364   9.162   7.727
 8414WAT      O25483   6.720   9.252   0.174
 8414WAT     H125484   6.788   9.200   0.123
 8414WAT     H225485   6.650   9.189   0.208
 8415WAT      O25486   1.530   9.604   1.879
 8415WAT     H125487   1.590   9.619   1.957
 8415WAT     H225488   1.448   9.555   1.908
 8416WAT      O25489   9.118   6.713   3.327
 8416WAT     H125490   9.212   6.688   3.351
 8416WAT     H225491   9.100   6.686   3.232
 8417WAT      O25492   4.980   0.743   7.004
 8417WAT     H125493   4.901   0.783   6.958
 8417WAT     H225494   5.059   0.745   6.943
 8418WAT      O25495   6.045   2.495   3.468
 8418WAT     H125496   6.102   2.480   3.548
 8418WAT     H225497   6.081   2.442   3.391
 8419WAT      O25498   3.579   8.795   0.390
 8419WAT     H125499   3.544   8.711   0.431
 8419WAT     H225500   3.508   8.865   0.392
 8420WAT      O25501   2.046   8.019   1.412
 8420WAT     H125502   1.976   8.074   1.366
 8420WAT     H225503   2.002   7.944   1.462
 8421WAT      O25504   8.619   2.231   0.398
 8421WAT     H125505   8.601   2.136   0.374
 8421WAT     H225506   8.551   2.262   0.465
 8422WAT      O25507   0.130   5.752   0.319
 8422WAT     H125508   0.196   5.818   0.354
 8422WAT     H225509   0.037   5.782   0.342
 8423WAT      O25510   1.053   5.608   0.258
 8423WAT     H125511   1.105   5.523   0.264
 8423WAT     H225512   1.020   5.620   0.164
 8424WAT      O25513   9.005   6.632   9.851
 8424WAT     H125514   9.022   6.677   9.764
 8424WAT     H225515   9.019   6.534   9.841
 8425WAT      O25516   1.541   6.328   7.429
 8425WAT     H125517   1.611   6.275   7.381
 8425WAT     H225518   1.569   6.343   7.523
 8426WAT      O25519   8.725   1.856   1.861
 8426WAT     H125520   8.627   1.858   1.841
 8426WAT     H225521   8.768   1.938   1.822
 8427WAT      O25522   5.677   6.365   1.067
 8427WAT     H125523   5.729   6.426   1.127
 8427WAT     H225524   5.594   6.412   1.036
 8428WAT      O25525   4.314   8.004   4.886
 8428WAT     H125526   4.382   8.077   4.892
 8428WAT     H225527   4.245   8.018   4.958
 8429WAT      O25528   7.955   1.668   7.818
 8429WAT     H125529   7.979   1.666   7.721
 8429WAT     H225530   7.991   1.586   7.863
 8430WAT      O25531   4.609   2.494   9.352
 8430WAT     H125532   4.705   2.518   9.351
 8430WAT     H225533   4.599   2.394   9.355
 8431WAT      O25534   2.027   3.271   3.814
 8431WAT     H125535   2.089   3.321   3.875
 8431WAT     H225536   2.000   3.331   3.739
 8432WAT      O25537   3.677   7.149   9.734
 8432WAT     H125538   3.644   7.134   9.641
 8432WAT     H225539   3.763   7.100   9.747
 8433WAT      O25540   2.433   7.405   8.139
 8433WAT     H125541   2.464   7.321   8.184
 8433WAT     H225542   2.372   7.455   8.200
 8434WAT      O25543   2.306   4.213   7.463
 8434WAT     H125544   2.264   4.292   7.508
 8434WAT     H225545   2.404   4.212   7.481
 8435WAT      O25546   9.169   0.430   4.049
 8435WAT     H125547   9.209   0.420   3.958
 8435WAT     H225548   9.083   0.380   4.053
 8436WAT      O25549   9.008   6.338   7.839
 8436WAT     H125550   9.035   6.250   7.877
 8436WAT     H225551   9.085   6.402   7.844
 8437WAT      O25552   4.744   1.495   2.503
 8437WAT     H125553   4.660   1.440   2.503
 8437WAT     H225554   4.723   1.587   2.469
 8438WAT      O25555   6.220   1.928   8.478
 8438WAT     H125556   6.217   1.841   8.528
 8438WAT     H225557   6.135   1.978   8.495
 8439WAT      O25558   6.076   3.426   1.206
 8439WAT     H125559   6.006   3.474   1.153
 8439WAT     H225560   6.147   3.394   1.143
 8440WAT      O25561   4.727   7.012   3.477
 8440WAT     H125562   4.746   6.919   3.507
 8440WAT     H225563   4.644   7.014   3.422
 8441WAT      O25564   5.670   3.474   9.224
 8441WAT     H125565   5.755   3.524   9.207
 8441WAT     H225566   5.594   3.539   9.226
 8442WAT      O25567   1.294   3.029   0.342
 8442WAT     H125568   1.264   3.066   0.254
 8442WAT     H225569   1.317   3.105   0.403
 8443WAT      O25570   8.565   7.787   5.577
 8443WAT     H125571   8.504   7.788   5.656
 8443WAT     H225572   8.585   7.693   5.551
 8444WAT      O25573   2.908   6.877   6.397
 8444WAT     H125574   2.880   6.916   6.309
 8444WAT     H225575   2.898   6.778   6.394
 8445WAT      O25576   3.730   4.183   8.771
 8445WAT     H125577   3.698   4.203   8.864
 8445WAT     H225578   3.690   4.250   8.708
 8446WAT      O25579   0.496   2.570   2.661
 8446WAT     H125580   0.487   2.545   2.565
 8446WAT     H225581   0.583   2.616   2.676
 8447WAT      O25582   3.313   7.487   2.019
 8447WAT     H125583   3.253   7.421   1.974
 8447WAT     H225584   3.279   7.508   2.110
 8448WAT      O25585   8.286   6.028   4.707
 8448WAT     H125586   8.317   6.079   4.627
 8448WAT     H225587   8.364   5.985   4.751
 8449WAT      O25588   9.480   7.498   5.468
 8449WAT     H125589   9.494   7.578   5.527
 8449WAT     H225590   9.524   7.514   5.380
 8450WAT      O25591   1.823   5.009   2.415
 8450WAT     H125592   1.917   4.976   2.428
 8450WAT     H225593   1.775   5.006   2.503
 8451WAT      O25594   7.787   3.466   8.088
 8451WAT     H125595   7.885   3.483   8.080
 8451WAT     H225596   7.737   3.548   8.061
 8452WAT      O25597   8.974   3.749   6.954
 8452WAT     H125598   8.939   3.678   6.893
 8452WAT     H225599   9.003   3.828   6.899
 8453WAT      O25600   0.274   5.566   6.800
 8453WAT     H125601   0.227   5.479   6.785
 8453WAT     H225602   0.316   5.566   6.891
 8454WAT      O25603   4.557   1.345   5.206
 8454WAT     H125604   4.511   1.432   5.188
 8454WAT     H225605   4.641   1.362   5.258
 8455WAT      O25606   7.753   9.768   8.000
 8455WAT     H125607   7.715   9.707   7.930
 8455WAT     H225608   7.794   9.713   8.073
 8456WAT      O25609   0.081   1.669   9.285
 8456WAT     H125610   0.127   1.657   9.373
 8456WAT     H225611   0.065   1.580   9.243
 8457WAT      O25612   9.295   0.797   2.123
 8457WAT     H125613   9.300   0.703   2.156
 8457WAT     H225614   9.386   0.828   2.097
 8458WAT      O25615   2.290   4.507   0.238
 8458WAT     H125616   2.221   4.577   0.254
 8458WAT     H225617   2.327   4.475   0.325
 8459WAT      O25618   7.493   7.018   7.445
 8459WAT     H125619   7.577   7.030   7.394
 8459WAT     H225620   7.418   7.066   7.399
 8460WAT      O25621   4.130   7.504   8.076
 8460WAT     H125622   4.073   7.580   8.046
 8460WAT     H225623   4.225   7.520   8.048
 8461WAT      O25624   3.466   9.695   0.307
 8461WAT     H125625   3.511   9.762   0.248
 8461WAT     H225626   3.369   9.692   0.286
 8462WAT      O25627   9.085   3.149   8.372
 8462WAT     H125628   9.131   3.076   8.422
 8462WAT     H225629   9.018   3.192   8.432
 8463WAT      O25630   9.424   2.110   7.690
 8463WAT     H125631   9.441   2.021   7.733
 8463WAT     H225632   9.507   2.139   7.642
 8464WAT      O25633   0.165   3.132   8.774
 8464WAT     H125634   0.236   3.068   8.745
 8464WAT     H225635   0.112   3.091   8.849
 8465WAT      O25636   2.628   9.658   3.998
 8465WAT     H125637   2.530   9.642   3.987
 8465WAT     H225638   2.680   9.587   3.951
 8466WAT      O25639   2.002   9.103   5.325
 8466WAT     H125640   2.040   9.041   5.393
 8466WAT     H225641   1.915   9.140   5.358
 8467WAT      O25642   4.301   0.747   1.669
 8467WAT     H125643   4.247   0.784   1.594
 8467WAT     H225644   4.342   0.661   1.641
 8468WAT      O25645   4.422   8.655   3.538
 8468WAT     H125646   4.440   8.592   3.463
 8468WAT     H225647   4.492   8.644   3.608
 8469WAT      O25648   0.712   7.879   5.466
 8469WAT     H125649   0.746   7.881   5.372
 8469WAT     H225650   0.753   7.953   5.519
 8470WAT      O25651   0.649   7.497   0.555
 8470WAT     H125652   0.549   7.498   0.562
 8470WAT     H225653   0.680   7.582   0.512
 8471WAT      O25654   3.229   5.161   0.319
 8471WAT     H125655   3.147   5.162   0.262
 8471WAT     H225656   3.270   5.070   0.317
 8472WAT      O25657   4.352   4.022   4.147
 8472WAT     H125658   4.257   4.032   4.119
 8472WAT     H225659   4.357   3.974   4.235
 8473WAT      O25660   4.071   7.691   6.114
 8473WAT     H125661   4.073   7.595   6.143
 8473WAT     H225662   3.979   7.715   6.083
 8474WAT      O25663   9.257   5.418   3.682
 8474WAT     H125664   9.315   5.389   3.758
 8474WAT     H225665   9.300   5.497   3.636
 8475WAT      O25666   6.463   5.172   7.499
 8475WAT     H125667   6.449   5.264   7.535
 8475WAT     H225668   6.550   5.168   7.450
 8476WAT      O25669   8.146   7.114   6.102
 8476WAT     H125670   8.092   7.145   6.180
 8476WAT     H225671   8.231   7.167   6.097
 8477WAT      O25672   3.778   8.273   6.361
 8477WAT     H125673   3.771   8.248   6.458
 8477WAT     H225674   3.758   8.370   6.350
 8478WAT      O25675   2.712   8.103   7.745
 8478WAT     H125676   2.757   8.126   7.832
 8478WAT     H225677   2.711   8.184   7.686
 8479WAT      O25678   7.829   8.223   6.227
 8479WAT     H125679   7.769   8.188   6.155
 8479WAT     H225680   7.923   8.229   6.192
 8480WAT      O25681   2.372   7.806   4.963
 8480WAT     H125682   2.374   7.709   4.941
 8480WAT     H225683   2.442   7.854   4.911
 8481WAT      O25684   8.839   9.718   2.677
 8481WAT     H125685   8.900   9.769   2.617
 8481WAT     H225686   8.754   9.696   2.629
 8482WAT      O25687   4.453   8.782   8.005
 8482WAT     H125688   4.447   8.682   8.005
 8482WAT     H225689   4.410   8.818   7.922
 8483WAT      O25690   4.742   5.130   5.686
 8483WAT     H125691   4.736   5.086   5.596
 8483WAT     H225692   4.801   5.210   5.680
 8484WAT      O25693   7.728   0.530   4.128
 8484WAT     H125694   7.662   0.480   4.072
 8484WAT     H225695   7.691   0.620   4.151
 8485WAT      O25696   4.865   4.213   9.686
 8485WAT     H125697   4.803   4.162   9.628
 8485WAT     H225698   4.833   4.211   9.780
 8486WAT      O25699   4.136   3.790   8.462
 8486WAT     H125700   4.173   3.872   8.417
 8486WAT     H225701   4.072   3.745   8.400
 8487WAT      O25702   7.360   3.938   7.746
 8487WAT     H125703   7.314   4.025   7.762
 8487WAT     H225704   7.451   3.940   7.787
 8488WAT      O25705   5.636   7.934   6.685
 8488WAT     H125706   5.639   7.905   6.780
 8488WAT     H225707   5.551   7.902   6.642
 8489WAT      O25708   2.490   3.958   6.793
 8489WAT     H125709   2.433   3.955   6.875
 8489WAT     H225710   2.514   3.865   6.767
 8490WAT      O25711   6.687   9.119   7.207
 8490WAT     H125712   6.759   9.185   7.188
 8490WAT     H225713   6.633   9.103   7.125
 8491WAT      O25714   1.142   4.076   3.931
 8491WAT     H125715   1.142   4.111   4.024
 8491WAT     H225716   1.058   4.023   3.916
 8492WAT      O25717   6.535   4.591   9.149
 8492WAT     H125718   6.441   4.564   9.127
 8492WAT     H225719   6.586   4.510   9.179
 8493WAT      O25720   0.705   6.344   5.063
 8493WAT     H125721   0.692   6.246   5.053
 8493WAT     H225722   0.769   6.377   4.994
 8494WAT      O25723   9.764   6.088   8.731
 8494WAT     H125724   9.691   6.020   8.722
 8494WAT     H225725   9.848   6.044   8.763
 8495WAT      O25726   8.431   4.541   5.316
 8495WAT     H125727   8.386   4.527   5.404
 8495WAT     H225728   8.426   4.456   5.263
 8496WAT      O25729   6.954   0.770   3.772
 8496WAT     H125730   6.960   0.691   3.711
 8496WAT     H225731   7.010   0.753   3.853
 8497WAT      O25732   3.535   8.399   0.866
 8497WAT     H125733   3.609   8.439   0.920
 8497WAT     H225734   3.571   8.366   0.779
 8498WAT      O25735   4.317   5.389   5.961
 8498WAT     H125736   4.377   5.365   5.885
 8498WAT     H225737   4.230   5.341   5.951
 8499WAT      O25738   4.478   4.899   5.426
 8499WAT     H125739   4.404   4.893   5.359
 8499WAT     H225740   4.560   4.856   5.389
 8500WAT      O25741   2.806   4.230   0.308
 8500WAT     H125742   2.879   4.198   0.370
 8500WAT     H225743   2.829   4.204   0.215
 8501WAT      O25744   2.468   6.664   0.615
 8501WAT     H125745   2.387   6.662   0.556
 8501WAT     H225746   2.539   6.605   0.577
 8502WAT      O25747   8.226   1.454   3.883
 8502WAT     H125748   8.310   1.476   3.932
 8502WAT     H225749   8.222   1.356   3.865
 8503WAT      O25750   3.928   4.514   3.499
 8503WAT     H125751   3.843   4.563   3.477
 8503WAT     H225752   3.972   4.483   3.415
 8504WAT      O25753   3.527   4.458   1.471
 8504WAT     H125754   3.486   4.525   1.408
 8504WAT     H225755   3.532   4.369   1.426
 8505WAT      O25756   5.341   6.778   2.113
 8505WAT     H125757   5.371   6.871   2.133
 8505WAT     H225758   5.268   6.753   2.176
 8506WAT      O25759   2.585   2.438   5.407
 8506WAT     H125760   2.578   2.361   5.471
 8506WAT     H225761   2.643   2.412   5.330
 8507WAT      O25762   9.815   8.264   2.378
 8507WAT     H125763   9.822   8.357   2.341
 8507WAT     H225764   9.772   8.268   2.469
 8508WAT      O25765   6.419   5.470   6.102
 8508WAT     H125766   6.496   5.483   6.163
 8508WAT     H225767   6.351   5.541   6.117
 8509WAT      O25768   7.902   0.815   3.636
 8509WAT     H125769   7.829   0.816   3.568
 8509WAT     H225770   7.947   0.905   3.639
 8510WAT      O25771   6.543   8.669   5.378
 8510WAT     H125772   6.552   8.751   5.321
 8510WAT     H225773   6.452   8.666   5.419
 8511WAT      O25774   4.425   1.603   5.202
 8511WAT     H125775   4.385   1.648   5.282
 8511WAT     H225776   4.353   1.578   5.139
 8512WAT      O25777   7.730   3.059   2.398
 8512WAT     H125778   7.767   3.148   2.426
 8512WAT     H225779   7.726   2.998   2.477
 8513WAT      O25780   3.911   0.020   7.698
 8513WAT     H125781   3.916   0.093   7.630
 8513WAT     H225782   3.999   0.011   7.743
 8514WAT      O25783   0.721   2.702   3.621
 8514WAT     H125784   0.701   2.787   3.670
 8514WAT     H225785   0.682   2.706   3.529
 8515WAT      O25786   0.653   6.654   4.753
 8515WAT     H125787   0.643   6.558   4.724
 8515WAT     H225788   0.590   6.672   4.829
 8516WAT      O25789   6.923   4.948   0.934
 8516WAT     H125790   6.947   4.912   1.024
 8516WAT     H225791   6.843   5.007   0.941
 8517WAT      O25792   6.659   4.436   8.585
 8517WAT     H125793   6.627   4.511   8.642
 8517WAT     H225794   6.581   4.393   8.539
 8518WAT      O25795   0.444   0.592   6.880
 8518WAT     H125796   0.431   0.568   6.977
 8518WAT     H225797   0.520   0.540   6.843
 8519WAT      O25798   5.389   7.904   5.500
 8519WAT     H125799   5.330   7.855   5.565
 8519WAT     H225800   5.465   7.846   5.473
 8520WAT      O25801   5.335   6.291   3.424
 8520WAT     H125802   5.361   6.241   3.341
 8520WAT     H225803   5.359   6.236   3.505
 8521WAT      O25804   4.795   6.112   1.644
 8521WAT     H125805   4.725   6.180   1.665
 8521WAT     H225806   4.844   6.087   1.728
 8522WAT      O25807   9.085   0.022   6.503
 8522WAT     H125808   9.082  -0.070   6.465
 8522WAT     H225809   9.082   0.089   6.429
 8523WAT      O25810   7.108   0.076   3.845
 8523WAT     H125811   7.103   0.175   3.849
 8523WAT     H225812   7.191   0.048   3.797
 8524WAT      O25813   4.532   9.388   7.572
 8524WAT     H125814   4.538   9.416   7.668
 8524WAT     H225815   4.471   9.451   7.523
 8525WAT      O25816   6.995   3.231   9.110
 8525WAT     H125817   7.020   3.136   9.093
 8525WAT     H225818   6.910   3.235   9.161
 8526WAT      O25819   9.847   0.699   9.854
 8526WAT     H125820   9.785   0.621   9.850
 8526WAT     H225821   9.904   0.700   9.772
 8527WAT      O25822   1.387   8.055   8.602
 8527WAT     H125823   1.358   7.976   8.657
 8527WAT     H225824   1.482   8.043   8.573
 8528WAT      O25825   9.305   6.239   3.121
 8528WAT     H125826   9.328   6.255   3.217
 8528WAT     H225827   9.302   6.327   3.072
 8529WAT      O25828   6.639   1.542   8.220
 8529WAT     H125829   6.726   1.591   8.215
 8529WAT     H225830   6.649   1.461   8.278
 8530WAT      O25831   7.736   7.678   5.448
 8530WAT     H125832   7.809   7.615   5.473
 8530WAT     H225833   7.724   7.679   5.349
 8531WAT      O25834   8.906   6.917   9.523
 8531WAT     H125835   8.979   6.985   9.533
 8531WAT     H225836   8.889   6.900   9.426
 8532WAT      O25837   6.428   1.032   0.712
 8532WAT     H125838   6.329   1.040   0.728
 8532WAT     H225839   6.476   1.040   0.799
 8533WAT      O25840   8.426   2.405   3.260
 8533WAT     H125841   8.440   2.432   3.355
 8533WAT     H225842   8.331   2.422   3.234
 8534WAT      O25843   3.194   3.028   2.142
 8534WAT     H125844   3.249   2.960   2.189
 8534WAT     H225845   3.135   2.983   2.074
 8535WAT      O25846   6.462   6.189   7.432
 8535WAT     H125847   6.557   6.157   7.439
 8535WAT     H225848   6.448   6.231   7.342
 8536WAT      O25849   3.884   9.087   5.477
 8536WAT     H125850   3.876   9.183   5.448
 8536WAT     H225851   3.876   9.082   5.577
 8537WAT      O25852   1.830   3.837   3.835
 8537WAT     H125853   1.783   3.812   3.750
 8537WAT     H225854   1.924   3.861   3.815
 8538WAT      O25855   0.925   5.799   3.057
 8538WAT     H125856   0.856   5.828   3.124
 8538WAT     H225857   0.920   5.700   3.045
 8539WAT      O25858   7.114   1.464   0.007
 8539WAT     H125859   7.111   1.424  -0.085
 8539WAT     H225860   7.034   1.523   0.021
 8540WAT      O25861   0.476   1.136   1.641
 8540WAT     H125862   0.429   1.168   1.558
 8540WAT     H225863   0.571   1.165   1.637
 8541WAT      O25864   8.472   5.504   0.040
 8541WAT     H125865   8.374   5.515   0.058
 8541WAT     H225866   8.485   5.438  -0.034
 8542WAT      O25867   5.711   8.004   5.479
 8542WAT     H125868   5.683   7.914   5.513
 8542WAT     H225869   5.794   8.032   5.526
 8543WAT      O25870   3.323   1.574   5.904
 8543WAT     H125871   3.381   1.495   5.927
 8543WAT     H225872   3.306   1.575   5.805
 8544WAT      O25873   1.563   1.180   0.991
 8544WAT     H125874   1.583   1.088   0.959
 8544WAT     H225875   1.627   1.204   1.064
 8545WAT      O25876   3.982   7.510   0.095
 8545WAT     H125877   4.070   7.557   0.092
 8545WAT     H225878   3.935   7.535   0.180
 8546WAT      O25879   3.453   9.173   4.299
 8546WAT     H125880   3.393   9.185   4.378
 8546WAT     H225881   3.476   9.076   4.290
 8547WAT      O25882   8.731   3.740   7.456
 8547WAT     H125883   8.640   3.750   7.416
 8547WAT     H225884   8.794   3.803   7.412
 8548WAT      O25885   3.044   5.861   4.024
 8548WAT     H125886   2.975   5.789   4.027
 8548WAT     H225887   3.003   5.948   4.050
 8549WAT      O25888   8.600   6.970   2.171
 8549WAT     H125889   8.630   7.055   2.214
 8549WAT     H225890   8.663   6.896   2.197
 8550WAT      O25891   9.132   3.866   1.153
 8550WAT     H125892   9.215   3.912   1.121
 8550WAT     H225893   9.097   3.914   1.233
 8551WAT      O25894   5.912   8.164   9.643
 8551WAT     H125895   5.941   8.200   9.731
 8551WAT     H225896   5.974   8.197   9.571
 8552WAT      O25897   5.802   6.206   6.268
 8552WAT     H125898   5.818   6.207   6.170
 8552WAT     H225899   5.707   6.231   6.287
 8553WAT      O25900   3.007   1.291   7.058
 8553WAT     H125901   3.019   1.353   6.980
 8553WAT     H225902   2.932   1.324   7.115
 8554WAT      O25903   1.017   0.639   0.110
 8554WAT     H125904   1.039   0.676   0.200
 8554WAT     H225905   0.984   0.712   0.051
 8555WAT      O25906   7.018   0.260   4.168
 8555WAT     H125907   6.973   0.321   4.234
 8555WAT     H225908   7.092   0.210   4.214
 8556WAT      O25909   8.288   9.497   1.528
 8556WAT     H125910   8.228   9.432   1.481
 8556WAT     H225911   8.376   9.453   1.545
 8557WAT      O25912   6.540   6.318   9.059
 8557WAT     H125913   6.512   6.349   9.150
 8557WAT     H225914   6.559   6.219   9.061
 8558WAT      O25915   5.458   3.621   0.154
 8558WAT     H125916   5.552   3.649   0.133
 8558WAT     H225917   5.447   3.523   0.134
 8559WAT      O25918   9.528   3.815   8.034
 8559WAT     H125919   9.507   3.848   8.126
 8559WAT     H225920   9.575   3.727   8.040
 8560WAT      O25921   8.885   3.222   2.276
 8560WAT     H125922   8.873   3.164   2.195
 8560WAT     H225923   8.975   3.204   2.316
 8561WAT      O25924   4.457   8.534   5.068
 8561WAT     H125925   4.531   8.537   5.001
 8561WAT     H225926   4.382   8.479   5.032
 8562WAT      O25927   8.266   6.238   5.691
 8562WAT     H125928   8.335   6.306   5.670
 8562WAT     H225929   8.175   6.276   5.676
 8563WAT      O25930   8.745   6.507   3.289
 8563WAT     H125931   8.668   6.511   3.224
 8563WAT     H225932   8.711   6.478   3.379
 8564WAT      O25933   3.962   5.023   3.724
 8564WAT     H125934   3.986   5.023   3.822
 8564WAT     H225935   3.966   4.930   3.689
 8565WAT      O25936   9.683   2.445   0.871
 8565WAT     H125937   9.721   2.353   0.884
 8565WAT     H225938   9.749   2.513   0.904
 8566WAT      O25939   4.771   9.349   6.910
 8566WAT     H125940   4.783   9.420   6.980
 8566WAT     H225941   4.830   9.271   6.931
 8567WAT      O25942   1.800   1.728   4.313
 8567WAT     H125943   1.741   1.774   4.379
 8567WAT     H225944   1.886   1.702   4.358
 8568WAT      O25945   0.359   0.755   5.269
 8568WAT     H125946   0.349   0.656   5.257
 8568WAT     H225947   0.414   0.792   5.194
 8569WAT      O25948   8.492   6.406   7.974
 8569WAT     H125949   8.461   6.342   8.044
 8569WAT     H225950   8.422   6.415   7.903
 8570WAT      O25951   8.660   2.126   5.895
 8570WAT     H125952   8.601   2.106   5.973
 8570WAT     H225953   8.624   2.081   5.813
 8571WAT      O25954   1.440   6.501   7.895
 8571WAT     H125955   1.472   6.432   7.829
 8571WAT     H225956   1.385   6.456   7.966
 8572WAT      O25957   2.785   5.515   1.711
 8572WAT     H125958   2.852   5.506   1.638
 8572WAT     H225959   2.825   5.483   1.797
 8573WAT      O25960   2.002   5.895   9.519
 8573WAT     H125961   2.055   5.862   9.441
 8573WAT     H225962   1.905   5.898   9.494
 8574WAT      O25963   4.390   7.782   9.787
 8574WAT     H125964   4.378   7.796   9.886
 8574WAT     H225965   4.389   7.684   9.767
 8575WAT      O25966   0.338   0.240   8.966
 8575WAT     H125967   0.250   0.255   8.920
 8575WAT     H225968   0.329   0.264   9.063
 8576WAT      O25969   2.473   3.583   9.864
 8576WAT     H125970   2.551   3.559   9.921
 8576WAT     H225971   2.474   3.682   9.845
 8577WAT      O25972   7.189   7.340   0.920
 8577WAT     H125973   7.228   7.320   0.831
 8577WAT     H225974   7.231   7.281   0.989
 8578WAT      O25975   3.542   0.482   7.859
 8578WAT     H125976   3.501   0.399   7.822
 8578WAT     H225977   3.471   0.540   7.898
 8579WAT      O25978   8.195   6.698   6.765
 8579WAT     H125979   8.209   6.619   6.705
 8579WAT     H225980   8.253   6.774   6.734
 8580WAT      O25981   6.296   0.469   4.515
 8580WAT     H125982   6.237   0.536   4.471
 8580WAT     H225983   6.391   0.491   4.497
 8581WAT      O25984   0.943   7.742   1.935
 8581WAT     H125985   0.886   7.717   2.013
 8581WAT     H225986   1.022   7.681   1.931
 8582WAT      O25987   2.766   5.028   4.567
 8582WAT     H125988   2.752   4.952   4.631
 8582WAT     H225989   2.857   5.066   4.579
 8583WAT      O25990   0.706   5.523   3.580
 8583WAT     H125991   0.636   5.594   3.578
 8583WAT     H225992   0.678   5.450   3.642
 8584WAT      O25993   0.633   7.421   2.548
 8584WAT     H125994   0.590   7.358   2.484
 8584WAT     H225995   0.726   7.391   2.568
 8585WAT      O25996   1.720   3.535   0.445
 8585WAT     H125997   1.807   3.584   0.454
 8585WAT     H225998   1.699   3.522   0.348
 8586WAT      O25999   6.904   7.339   8.998
 8586WAT     H126000   6.821   7.353   8.944
 8586WAT     H226001   6.903   7.247   9.038
 8587WAT      O26002   8.863   7.355   3.916
 8587WAT     H126003   8.891   7.438   3.867
 8587WAT     H226004   8.926   7.338   3.991
 8588WAT      O26005   3.933   7.166   2.393
 8588WAT     H126006   3.954   7.188   2.298
 8588WAT     H226007   3.993   7.219   2.454
 8589WAT      O26008   2.475   1.064   9.202
 8589WAT     H126009   2.531   1.029   9.127
 8589WAT     H226010   2.485   1.004   9.282
 8590WAT      O26011   6.171   7.071   4.995
 8590WAT     H126012   6.078   7.108   4.990
 8590WAT     H226013   6.236   7.145   5.014
 8591WAT      O26014   3.264   5.172   5.584
 8591WAT     H126015   3.272   5.210   5.676
 8591WAT     H226016   3.213   5.086   5.588
 8592WAT      O26017   6.356   4.009   4.497
 8592WAT     H126018   6.389   3.915   4.505
 8592WAT     H226019   6.391   4.049   4.413
 8593WAT      O26020   9.417   1.981   3.462
 8593WAT     H126021   9.340   1.952   3.405
 8593WAT     H226022   9.444   2.074   3.436
 8594WAT      O26023   7.135   8.667   7.921
 8594WAT     H126024   7.217   8.620   7.890
 8594WAT     H226025   7.080   8.695   7.842
 8595WAT      O26026   4.666   2.733   0.778
 8595WAT     H126027   4.685   2.697   0.687
 8595WAT     H226028   4.571   2.765   0.783
 8596WAT      O26029   9.189   6.373   4.799
 8596WAT     H126030   9.202   6.425   4.883
 8596WAT     H226031   9.269   6.385   4.740
 8597WAT      O26032   1.579   5.177   7.014
 8597WAT     H126033   1.537   5.257   6.972
 8597WAT     H226034   1.676   5.173   6.990
 8598WAT      O26035   8.333   2.070   1.904
 8598WAT     H126036   8.311   2.065   1.806
 8598WAT     H226037   8.395   2.146   1.920
 8599WAT      O26038   4.951   7.140   7.600
 8599WAT     H126039   4.870   7.086   7.621
 8599WAT     H226040   4.947   7.227   7.649
 8600WAT      O26041   6.265   9.040   4.859
 8600WAT     H126042   6.350   9.007   4.818
 8600WAT     H226043   6.198   8.966   4.861
 8601WAT      O26044   0.414   6.923   7.736
 8601WAT     H126045   0.410   6.980   7.818
 8601WAT     H226046   0.492   6.951   7.680
 8602WAT      O26047   0.579   2.964   7.180
 8602WAT     H126048   0.521   2.892   7.143
 8602WAT     H226049   0.553   3.052   7.140
 8603WAT      O26050   9.474   0.848   4.555
 8603WAT     H126051   9.391   0.852   4.499
 8603WAT     H226052   9.539   0.917   4.523
 8604WAT      O26053   6.592   5.648   5.459
 8604WAT     H126054   6.555   5.727   5.507
 8604WAT     H226055   6.519   5.604   5.406
 8605WAT      O26056   0.397   6.591   6.257
 8605WAT     H126057   0.365   6.551   6.343
 8605WAT     H226058   0.386   6.690   6.260
 8606WAT      O26059   8.989   7.150   3.440
 8606WAT     H126060   8.960   7.192   3.354
 8606WAT     H226061   9.007   7.222   3.507
 8607WAT      O26062   5.680   9.049   3.925
 8607WAT     H126063   5.660   9.140   3.890
 8607WAT     H226064   5.627   9.033   4.008
 8608WAT      O26065   3.530   4.519   2.500
 8608WAT     H126066   3.619   4.506   2.542
 8608WAT     H226067   3.505   4.436   2.450
 8609WAT      O26068   5.934   4.632   8.449
 8609WAT     H126069   5.984   4.663   8.368
 8609WAT     H226070   5.939   4.533   8.455
 8610WAT      O26071   2.759   7.893   1.458
 8610WAT     H126072   2.756   7.918   1.362
 8610WAT     H226073   2.823   7.954   1.506
 8611WAT      O26074   3.771   8.213   3.911
 8611WAT     H126075   3.729   8.275   3.845
 8611WAT     H226076   3.767   8.119   3.878
 8612WAT      O26077   8.869   3.712   4.414
 8612WAT     H126078   8.916   3.658   4.484
 8612WAT     H226079   8.860   3.658   4.331
 8613WAT      O26080   0.006   1.310   1.086
 8613WAT     H126081  -0.089   1.327   1.112
 8613WAT     H226082   0.011   1.295   0.987
 8614WAT      O26083   7.653   9.097   9.472
 8614WAT     H126084   7.744   9.135   9.485
 8614WAT     H226085   7.586   9.171   9.470
 8615WAT      O26086   3.443   7.155   8.464
 8615WAT     H126087   3.358   7.101   8.457
 8615WAT     H226088   3.508   7.106   8.522
 8616WAT      O26089   9.797   2.201   0.888
 8616WAT     H126090   9.782   2.185   0.986
 8616WAT     H226091   9.773   2.119   0.836
 8617WAT      O26092   8.667   5.832   1.009
 8617WAT     H126093   8.596   5.889   0.966
 8617WAT     H226094   8.703   5.768   0.941
 8618WAT      O26095   0.350   8.255   0.998
 8618WAT     H126096   0.303   8.284   1.081
 8618WAT     H226097   0.316   8.309   0.920
 8619WAT      O26098   6.020   8.996   2.913
 8619WAT     H126099   6.054   9.011   2.821
 8619WAT     H226100   6.093   8.958   2.970
 8620WAT      O26101   1.021   9.518   4.648
 8620WAT     H126102   0.980   9.552   4.732
 8620WAT     H226103   1.053   9.595   4.592
 8621WAT      O26104   2.316   2.819   4.860
 8621WAT     H126105   2.382   2.892   4.878
 8621WAT     H226106   2.356   2.731   4.883
 8622WAT      O26107   6.891   4.893   2.426
 8622WAT     H126108   6.792   4.903   2.426
 8622WAT     H226109   6.919   4.842   2.345
 8623WAT      O26110   8.646   0.967   2.977
 8623WAT     H126111   8.677   0.974   3.072
 8623WAT     H226112   8.629   0.871   2.955
 8624WAT      O26113   7.181   4.471   4.730
 8624WAT     H126114   7.126   4.403   4.683
 8624WAT     H226115   7.152   4.563   4.703
 8625WAT      O26116   5.188   5.942   6.214
 8625WAT     H126117   5.254   5.958   6.141
 8625WAT     H226118   5.157   5.847   6.212
 8626WAT      O26119   5.311   0.632   8.751
 8626WAT     H126120   5.376   0.590   8.814
 8626WAT     H226121   5.327   0.730   8.746
 8627WAT      O26122   6.418   1.664   2.782
 8627WAT     H126123   6.361   1.582   2.778
 8627WAT     H226124   6.422   1.707   2.692
 8628WAT      O26125   3.539   7.726   7.952
 8628WAT     H126126   3.439   7.728   7.948
 8628WAT     H226127   3.573   7.658   7.887
 8629WAT      O26128   3.564   6.483   6.630
 8629WAT     H126129   3.577   6.458   6.534
 8629WAT     H226130   3.541   6.402   6.683
 8630WAT      O26131   6.601   4.149   0.769
 8630WAT     H126132   6.675   4.182   0.829
 8630WAT     H226133   6.580   4.219   0.702
 8631WAT      O26134   2.941   2.527   0.344
 8631WAT     H126135   2.932   2.493   0.437
 8631WAT     H226136   2.965   2.625   0.347
 8632WAT      O26137   0.855   9.603   6.339
 8632WAT     H126138   0.944   9.559   6.356
 8632WAT     H226139   0.813   9.629   6.426
 8633WAT      O26140   8.074   4.203   3.502
 8633WAT     H126141   8.151   4.203   3.437
 8633WAT     H226142   7.999   4.149   3.465
 8634WAT      O26143   0.168   8.088   3.235
 8634WAT     H126144   0.253   8.121   3.193
 8634WAT     H226145   0.157   7.991   3.216
 8635WAT      O26146   4.167   4.176   8.487
 8635WAT     H126147   4.261   4.209   8.495
 8635WAT     H226148   4.124   4.175   8.577
 8636WAT      O26149   5.630   9.812   3.757
 8636WAT     H126150   5.540   9.769   3.754
 8636WAT     H226151   5.650   9.840   3.851
 8637WAT      O26152   1.793   6.855   5.525
 8637WAT     H126153   1.782   6.929   5.591
 8637WAT     H226154   1.800   6.894   5.433
 8638WAT      O26155   2.588   7.325   5.522
 8638WAT     H126156   2.672   7.325   5.467
 8638WAT     H226157   2.599   7.262   5.599
 8639WAT      O26158   4.911   4.614   7.003
 8639WAT     H126159   4.814   4.624   7.023
 8639WAT     H226160   4.923   4.575   6.912
 8640WAT      O26161   5.771   8.156   2.601
 8640WAT     H126162   5.767   8.220   2.524
 8640WAT     H226163   5.863   8.117   2.606
 8641WAT      O26164   2.209   8.680   1.558
 8641WAT     H126165   2.294   8.629   1.573
 8641WAT     H226166   2.157   8.683   1.643
 8642WAT      O26167   4.675   9.250   4.998
 8642WAT     H126168   4.685   9.225   4.902
 8642WAT     H226169   4.628   9.176   5.047
 8643WAT      O26170   3.582   5.759   1.066
 8643WAT     H126171   3.666   5.707   1.074
 8643WAT     H226172   3.596   5.834   1.001
 8644WAT      O26173   6.920   1.627   1.873
 8644WAT     H126174   6.849   1.687   1.838
 8644WAT     H226175   6.890   1.532   1.867
 8645WAT      O26176   7.479   2.086   3.996
 8645WAT     H126177   7.572   2.085   4.033
 8645WAT     H226178   7.413   2.081   4.071
 8646WAT      O26179   7.843   5.962   5.947
 8646WAT     H126180   7.888   6.008   5.870
 8646WAT     H226181   7.878   5.869   5.955
 8647WAT      O26182   8.052   5.784   2.615
 8647WAT     H126183   8.067   5.719   2.541
 8647WAT     H226184   8.046   5.877   2.578
 8648WAT      O26185   4.040   9.510   7.579
 8648WAT     H126186   4.010   9.525   7.673
 8648WAT     H226187   4.022   9.415   7.553
 8649WAT      O26188   2.695   7.373   6.848
 8649WAT     H126189   2.757   7.364   6.925
 8649WAT     H226190   2.709   7.298   6.784
 8650WAT      O26191   8.592   7.308   9.725
 8650WAT     H126192   8.602   7.238   9.795
 8650WAT     H226193   8.499   7.308   9.688
 8651WAT      O26194   9.471   3.509   9.055
 8651WAT     H126195   9.387   3.480   9.010
 8651WAT     H226196   9.548   3.500   8.990
 8652WAT      O26197   8.521   7.586   8.551
 8652WAT     H126198   8.489   7.558   8.642
 8652WAT     H226199   8.562   7.677   8.556
 8653WAT      O26200   1.673   5.937   3.346
 8653WAT     H126201   1.737   5.941   3.423
 8653WAT     H226202   1.693   5.857   3.290
 8654WAT      O26203   5.428   8.247   4.286
 8654WAT     H126204   5.359   8.197   4.233
 8654WAT     H226205   5.519   8.209   4.266
 8655WAT      O26206   9.063   9.583   7.617
 8655WAT     H126207   8.978   9.591   7.564
 8655WAT     H226208   9.115   9.504   7.585
 8656WAT      O26209   1.019   1.269   3.426
 8656WAT     H126210   1.025   1.314   3.337
 8656WAT     H226211   1.026   1.170   3.415
 8657WAT      O26212   9.099   4.945   8.090
 8657WAT     H126213   9.047   4.899   8.018
 8657WAT     H226214   9.197   4.945   8.066
 8658WAT      O26215   9.058   3.208   9.174
 8658WAT     H126216   9.103   3.294   9.146
 8658WAT     H226217   9.049   3.148   9.094
 8659WAT      O26218   2.544   4.841   1.858
 8659WAT     H126219   2.602   4.759   1.859
 8659WAT     H226220   2.573   4.901   1.784
 8660WAT      O26221   6.956   2.156   5.206
 8660WAT     H126222   6.954   2.081   5.140
 8660WAT     H226223   6.891   2.137   5.280
 8661WAT      O26224   8.416   5.967   7.883
 8661WAT     H126225   8.470   5.941   7.963
 8661WAT     H226226   8.450   6.054   7.847
 8662WAT      O26227   5.400   4.770   1.172
 8662WAT     H126228   5.356   4.837   1.112
 8662WAT     H226229   5.403   4.806   1.265
 8663WAT      O26230   8.312   4.912   2.483
 8663WAT     H126231   8.377   4.981   2.453
 8663WAT     H226232   8.240   4.902   2.414
 8664WAT      O26233   0.151   9.246   9.243
 8664WAT     H126234   0.241   9.206   9.225
 8664WAT     H226235   0.081   9.175   9.233
 8665WAT      O26236   4.217   2.531   3.174
 8665WAT     H126237   4.210   2.493   3.267
 8665WAT     H226238   4.131   2.576   3.151
 8666WAT      O26239   2.439   5.054   3.358
 8666WAT     H126240   2.536   5.048   3.335
 8666WAT     H226241   2.411   4.970   3.406
 8667WAT      O26242   7.254   7.632   3.807
 8667WAT     H126243   7.209   7.666   3.890
 8667WAT     H226244   7.236   7.695   3.732
 8668WAT      O26245   1.865   9.594   0.776
 8668WAT     H126246   1.778   9.563   0.737
 8668WAT     H226247   1.926   9.516   0.788
 8669WAT      O26248   1.596   0.550   0.357
 8669WAT     H126249   1.530   0.614   0.317
 8669WAT     H226250   1.550   0.466   0.382
 8670WAT      O26251   6.936   3.283   4.647
 8670WAT     H126252   6.952   3.322   4.556
 8670WAT     H226253   6.851   3.230   4.645
 8671WAT      O26254   6.107   0.207   9.436
 8671WAT     H126255   6.072   0.297   9.462
 8671WAT     H226256   6.161   0.215   9.352
 8672WAT      O26257   3.995   2.790   3.574
 8672WAT     H126258   4.046   2.822   3.494
 8672WAT     H226259   4.009   2.854   3.650
 8673WAT      O26260   9.255   7.013   5.781
 8673WAT     H126261   9.231   7.107   5.805
 8673WAT     H226262   9.174   6.967   5.743
 8674WAT      O26263   4.003   8.341   4.801
 8674WAT     H126264   3.936   8.301   4.864
 8674WAT     H226265   3.990   8.440   4.797
 8675WAT      O26266   0.426   4.812   0.414
 8675WAT     H126267   0.468   4.789   0.502
 8675WAT     H226268   0.495   4.802   0.341
 8676WAT      O26269   3.145   6.717   3.470
 8676WAT     H126270   3.055   6.690   3.503
 8676WAT     H226271   3.165   6.810   3.500
 8677WAT      O26272   8.999   2.734   9.694
 8677WAT     H126273   8.953   2.700   9.612
 8677WAT     H226274   8.978   2.675   9.771
 8678WAT      O26275   4.047   7.673   0.907
 8678WAT     H126276   4.079   7.657   1.000
 8678WAT     H226277   4.039   7.585   0.859
 8679WAT      O26278   5.974   5.710   2.908
 8679WAT     H126279   5.967   5.810   2.909
 8679WAT     H226280   5.959   5.676   2.815
 8680WAT      O26281   8.708   2.146   0.067
 8680WAT     H126282   8.664   2.213   0.006
 8680WAT     H226283   8.642   2.114   0.134
 8681WAT      O26284   6.397   9.208   9.796
 8681WAT     H126285   6.435   9.290   9.838
 8681WAT     H226286   6.297   9.208   9.808
 8682WAT      O26287   2.161   1.144   0.092
 8682WAT     H126288   2.102   1.179   0.020
 8682WAT     H226289   2.120   1.062   0.132
 8683WAT      O26290   3.487   1.902   3.606
 8683WAT     H126291   3.463   1.975   3.543
 8683WAT     H226292   3.585   1.884   3.601
 8684WAT      O26293   0.808   4.801   4.892
 8684WAT     H126294   0.870   4.724   4.878
 8684WAT     H226295   0.736   4.798   4.822
 8685WAT      O26296   1.487   8.982   6.814
 8685WAT     H126297   1.449   8.916   6.879
 8685WAT     H226298   1.450   9.073   6.834
 8686WAT      O26299   9.693   8.481   3.613
 8686WAT     H126300   9.786   8.451   3.590
 8686WAT     H226301   9.694   8.579   3.632
 8687WAT      O26302   2.767   7.597   3.068
 8687WAT     H126303   2.683   7.637   3.029
 8687WAT     H226304   2.743   7.526   3.134
 8688WAT      O26305   0.143   2.968   0.021
 8688WAT     H126306   0.137   3.066   0.036
 8688WAT     H226307   0.105   2.945  -0.068
 8689WAT      O26308   5.165   9.426   3.949
 8689WAT     H126309   5.129   9.461   3.863
 8689WAT     H226310   5.219   9.343   3.931
 8690WAT      O26311   7.967   8.801   8.209
 8690WAT     H126312   7.954   8.704   8.189
 8690WAT     H226313   7.895   8.854   8.164
 8691WAT      O26314   5.345   3.535   4.326
 8691WAT     H126315   5.324   3.595   4.404
 8691WAT     H226316   5.407   3.583   4.263
 8692WAT      O26317   6.205   3.958   9.504
 8692WAT     H126318   6.174   4.052   9.498
 8692WAT     H226319   6.134   3.897   9.469
 8693WAT      O26320   1.045   3.722   7.183
 8693WAT     H126321   1.018   3.760   7.272
 8693WAT     H226322   1.144   3.724   7.175
 8694WAT      O26323   2.790   7.083   3.260
 8694WAT     H126324   2.695   7.113   3.262
 8694WAT     H226325   2.803   7.016   3.187
 8695WAT      O26326   5.442   9.590   8.939
 8695WAT     H126327   5.411   9.682   8.960
 8695WAT     H226328   5.367   9.538   8.898
 8696WAT      O26329   3.023   9.151   5.864
 8696WAT     H126330   3.084   9.106   5.929
 8696WAT     H226331   2.974   9.082   5.811
 8697WAT      O26332   4.594   0.529   4.874
 8697WAT     H126333   4.657   0.470   4.924
 8697WAT     H226334   4.615   0.625   4.895
 8698WAT      O26335   9.596   8.677   6.167
 8698WAT     H126336   9.619   8.771   6.190
 8698WAT     H226337   9.535   8.640   6.238
 8699WAT      O26338   2.848   8.253   2.885
 8699WAT     H126339   2.933   8.221   2.844
 8699WAT     H226340   2.847   8.353   2.887
 8700WAT      O26341   6.417   0.893   8.979
 8700WAT     H126342   6.404   0.916   8.882
 8700WAT     H226343   6.401   0.795   8.991
 8701WAT      O26344   6.170   5.535   3.585
 8701WAT     H126345   6.102   5.471   3.621
 8701WAT     H226346   6.127   5.623   3.569
 8702WAT      O26347   2.131   8.249   8.514
 8702WAT     H126348   2.049   8.305   8.503
 8702WAT     H226349   2.115   8.181   8.586
 8703WAT      O26350   1.683   8.857   9.565
 8703WAT     H126351   1.705   8.792   9.638
 8703WAT     H226352   1.586   8.881   9.570
 8704WAT      O26353   7.866   8.623   3.813
 8704WAT     H126354   7.885   8.564   3.892
 8704WAT     H226355   7.931   8.603   3.740
 8705WAT      O26356   6.891   6.344   1.351
 8705WAT     H126357   6.895   6.321   1.448
 8705WAT     H226358   6.947   6.425   1.333
 8706WAT      O26359   8.479   0.289   5.526
 8706WAT     H126360   8.399   0.297   5.467
 8706WAT     H226361   8.549   0.234   5.480
 8707WAT      O26362   5.245   4.827   4.283
 8707WAT     H126363   5.147   4.839   4.302
 8707WAT     H226364   5.281   4.910   4.242
 8708WAT      O26365   3.657   1.862   2.689
 8708WAT     H126366   3.612   1.847   2.600
 8708WAT     H226367   3.728   1.793   2.702
 8709WAT      O26368   2.631   1.214   8.661
 8709WAT     H126369   2.555   1.207   8.725
 8709WAT     H226370   2.717   1.217   8.712
 8710WAT      O26371   1.136   2.799   1.031
 8710WAT     H126372   1.146   2.891   0.992
 8710WAT     H226373   1.039   2.777   1.042
 8711WAT      O26374   8.460   5.433   8.167
 8711WAT     H126375   8.521   5.354   8.171
 8711WAT     H226376   8.493   5.498   8.098
 8712WAT      O26377   8.156   0.750   3.132
 8712WAT     H126378   8.185   0.691   3.207
 8712WAT     H226379   8.193   0.715   3.046
 8713WAT      O26380   9.459   6.945   7.062
 8713WAT     H126381   9.444   6.861   7.011
 8713WAT     H226382   9.380   6.964   7.121
 8714WAT      O26383   8.069   9.052   7.427
 8714WAT     H126384   8.058   9.085   7.521
 8714WAT     H226385   8.091   9.129   7.367
 8715WAT      O26386   4.316   7.525   3.750
 8715WAT     H126387   4.222   7.503   3.778
 8715WAT     H226388   4.323   7.521   3.650
 8716WAT      O26389   4.553   9.454   2.007
 8716WAT     H126390   4.585   9.548   2.006
 8716WAT     H226391   4.491   9.440   2.084
 8717WAT      O26392   0.126   4.110   1.131
 8717WAT     H126393   0.182   4.153   1.060
 8717WAT     H226394   0.037   4.084   1.092
 8718WAT      O26395   5.566   9.659   3.259
 8718WAT     H126396   5.576   9.630   3.163
 8718WAT     H226397   5.610   9.747   3.272
 8719WAT      O26398   7.786   3.695   7.945
 8719WAT     H126399   7.884   3.704   7.963
 8719WAT     H226400   7.747   3.786   7.929
 8720WAT      O26401   9.117   0.227   7.240
 8720WAT     H126402   9.114   0.223   7.339
 8720WAT     H226403   9.100   0.320   7.209
 8721WAT      O26404   4.396   1.005   2.733
 8721WAT     H126405   4.349   1.027   2.818
 8721WAT     H226406   4.329   0.986   2.661
 8722WAT      O26407   2.677   2.897   6.348
 8722WAT     H126408   2.726   2.983   6.336
 8722WAT     H226409   2.711   2.850   6.429
 8723WAT      O26410   8.883   8.754   8.870
 8723WAT     H126411   8.970   8.739   8.822
 8723WAT     H226412   8.902   8.782   8.964
 8724WAT      O26413   8.733   1.959   9.226
 8724WAT     H126414   8.734   1.869   9.268
 8724WAT     H226415   8.639   1.986   9.206
 8725WAT      O26416   0.317   8.916   1.853
 8725WAT     H126417   0.403   8.916   1.903
 8725WAT     H226418   0.335   8.925   1.755
 8726WAT      O26419   1.803   3.871   6.244
 8726WAT     H126420   1.822   3.818   6.326
 8726WAT     H226421   1.711   3.908   6.248
 8727WAT      O26422   8.527   1.347   1.465
 8727WAT     H126423   8.569   1.435   1.490
 8727WAT     H226424   8.456   1.325   1.531
 8728WAT      O26425   8.069   3.121   7.590
 8728WAT     H126426   8.041   3.093   7.682
 8728WAT     H226427   7.989   3.153   7.539
 8729WAT      O26428   7.048   8.130   8.261
 8729WAT     H126429   7.147   8.128   8.253
 8729WAT     H226430   7.006   8.093   8.178
 8730WAT      O26431   2.266   3.980   3.441
 8730WAT     H126432   2.167   3.969   3.437
 8730WAT     H226433   2.305   3.970   3.349
 8731WAT      O26434   3.213   7.516   2.265
 8731WAT     H126435   3.288   7.556   2.318
 8731WAT     H226436   3.125   7.551   2.299
 8732WAT      O26437   4.978   4.661   1.427
 8732WAT     H126438   4.916   4.721   1.479
 8732WAT     H226439   5.072   4.690   1.444
 8733WAT      O26440   7.037   7.154   4.497
 8733WAT     H126441   7.115   7.178   4.554
 8733WAT     H226442   7.051   7.064   4.457
 8734WAT      O26443   2.517   0.585   7.995
 8734WAT     H126444   2.559   0.656   7.939
 8734WAT     H226445   2.580   0.557   8.067
 8735WAT      O26446   5.602   2.286   3.464
 8735WAT     H126447   5.664   2.360   3.490
 8735WAT     H226448   5.541   2.318   3.392
 8736WAT      O26449   0.876   1.957   9.642
 8736WAT     H126450   0.936   1.897   9.695
 8736WAT     H226451   0.932   2.008   9.576
 8737WAT      O26452   8.772   6.051   4.748
 8737WAT     H126453   8.779   6.149   4.767
 8737WAT     H226454   8.849   6.003   4.788
 8738WAT      O26455   3.410   9.254   2.281
 8738WAT     H126456   3.361   9.187   2.337
 8738WAT     H226457   3.507   9.231   2.279
 8739WAT      O26458   9.007   1.627   9.014
 8739WAT     H126459   8.924   1.573   9.029
 8739WAT     H226460   9.079   1.596   9.076
 8740WAT      O26461   0.075   2.698   8.994
 8740WAT     H126462  -0.019   2.689   9.027
 8740WAT     H226463   0.095   2.624   8.929
 8741WAT      O26464   4.722   3.516   2.406
 8741WAT     H126465   4.746   3.607   2.371
 8741WAT     H226466   4.725   3.450   2.331
 8742WAT      O26467   7.638   7.308   4.747
 8742WAT     H126468   7.737   7.299   4.764
 8742WAT     H226469   7.588   7.274   4.826
 8743WAT      O26470   8.217   5.807   1.185
 8743WAT     H126471   8.128   5.822   1.142
 8743WAT     H226472   8.273   5.889   1.175
 8744WAT      O26473   7.897   1.544   8.993
 8744WAT     H126474   7.871   1.631   8.952
 8744WAT     H226475   7.820   1.507   9.045
 8745WAT      O26476   3.842   3.177   4.657
 8745WAT     H126477   3.828   3.226   4.571
 8745WAT     H226478   3.827   3.240   4.733
 8746WAT      O26479   9.477   9.090   9.301
 8746WAT     H126480   9.413   9.025   9.342
 8746WAT     H226481   9.498   9.162   9.367
 8747WAT      O26482   0.324   0.093   0.175
 8747WAT     H126483   0.390   0.111   0.102
 8747WAT     H226484   0.292  -0.002   0.168
 8748WAT      O26485   1.471   5.483   0.398
 8748WAT     H126486   1.421   5.439   0.473
 8748WAT     H226487   1.518   5.564   0.432
 8749WAT      O26488   3.787   4.044   6.476
 8749WAT     H126489   3.770   4.055   6.379
 8749WAT     H226490   3.727   3.974   6.514
 8750WAT      O26491   4.630   2.515   0.190
 8750WAT     H126492   4.711   2.558   0.230
 8750WAT     H226493   4.650   2.490   0.095
 8751WAT      O26494   7.797   2.874   7.939
 8751WAT     H126495   7.838   2.845   7.853
 8751WAT     H226496   7.744   2.798   7.978
 8752WAT      O26497   3.228   5.428   9.047
 8752WAT     H126498   3.134   5.435   9.080
 8752WAT     H226499   3.250   5.509   8.992
 8753WAT      O26500   7.942   8.090   0.774
 8753WAT     H126501   7.893   8.020   0.722
 8753WAT     H226502   8.041   8.080   0.758
 8754WAT      O26503   0.130   1.659   7.579
 8754WAT     H126504   0.118   1.669   7.678
 8754WAT     H226505   0.043   1.633   7.538
 8755WAT      O26506   3.482   6.942   1.543
 8755WAT     H126507   3.488   7.037   1.575
 8755WAT     H226508   3.537   6.883   1.603
 8756WAT      O26509   9.240   2.100   4.593
 8756WAT     H126510   9.227   2.186   4.642
 8756WAT     H226511   9.258   2.026   4.658
 8757WAT      O26512   3.710   7.336   6.704
 8757WAT     H126513   3.746   7.341   6.798
 8757WAT     H226514   3.783   7.358   6.639
 8758WAT      O26515   9.020   4.689   9.256
 8758WAT     H126516   9.019   4.654   9.350
 8758WAT     H226517   9.054   4.618   9.194
 8759WAT      O26518   7.201   5.857   3.033
 8759WAT     H126519   7.104   5.854   3.007
 8759WAT     H226520   7.218   5.791   3.105
 8760WAT      O26521   1.294   1.579   7.117
 8760WAT     H126522   1.260   1.616   7.031
 8760WAT     H226523   1.387   1.613   7.134
 8761WAT      O26524   2.070   0.011   2.412
 8761WAT     H126525   2.030  -0.041   2.487
 8761WAT     H226526   2.109  -0.052   2.345
 8762WAT      O26527   8.821   0.034   3.145
 8762WAT     H126528   8.809   0.038   3.046
 8762WAT     H226529   8.731   0.026   3.188
 8763WAT      O26530   3.749   8.408   1.886
 8763WAT     H126531   3.696   8.492   1.888
 8763WAT     H226532   3.690   8.330   1.907
 8764WAT      O26533   6.796   6.038   1.227
 8764WAT     H126534   6.748   6.126   1.228
 8764WAT     H226535   6.893   6.053   1.213
 8765WAT      O26536   5.802   1.187   7.885
 8765WAT     H126537   5.827   1.282   7.903
 8765WAT     H226538   5.844   1.128   7.953
 8766WAT      O26539   8.084   2.151   8.373
 8766WAT     H126540   8.172   2.105   8.365
 8766WAT     H226541   8.043   2.161   8.282
 8767WAT      O26542   8.949   6.259   6.195
 8767WAT     H126543   8.974   6.235   6.289
 8767WAT     H226544   8.850   6.275   6.189
 8768WAT      O26545   6.213   0.675   1.339
 8768WAT     H126546   6.119   0.684   1.372
 8768WAT     H226547   6.225   0.731   1.257
 8769WAT      O26548   7.542   0.313   5.637
 8769WAT     H126549   7.573   0.307   5.542
 8769WAT     H226550   7.496   0.228   5.662
 8770WAT      O26551   9.679   1.777   6.380
 8770WAT     H126552   9.679   1.690   6.330
 8770WAT     H226553   9.589   1.793   6.418
 8771WAT      O26554   4.084   7.304   4.570
 8771WAT     H126555   4.092   7.226   4.507
 8771WAT     H226556   4.163   7.306   4.631
 8772WAT      O26557   6.059   7.126   1.299
 8772WAT     H126558   6.105   7.060   1.240
 8772WAT     H226559   6.091   7.219   1.278
 8773WAT      O26560   2.753   0.220   9.102
 8773WAT     H126561   2.692   0.143   9.123
 8773WAT     H226562   2.839   0.208   9.150
 8774WAT      O26563   0.072   3.514   9.577
 8774WAT     H126564   0.086   3.419   9.605
 8774WAT     H226565   0.150   3.544   9.523
 8775WAT      O26566   3.905   8.809   6.281
 8775WAT     H126567   3.817   8.775   6.314
 8775WAT     H226568   3.979   8.767   6.334
 8776WAT      O26569   9.090   6.039   5.522
 8776WAT     H126570   9.184   6.010   5.535
 8776WAT     H226571   9.075   6.128   5.566
 8777WAT      O26572   6.398   6.151   0.592
 8777WAT     H126573   6.396   6.058   0.555
 8777WAT     H226574   6.492   6.186   0.589
 8778WAT      O26575   0.874   3.975   1.378
 8778WAT     H126576   0.800   4.023   1.425
 8778WAT     H226577   0.841   3.937   1.292
 8779WAT      O26578   6.185   1.012   9.845
 8779WAT     H126579   6.163   1.108   9.827
 8779WAT     H226580   6.279   0.994   9.819
 8780WAT      O26581   5.196   7.457   7.550
 8780WAT     H126582   5.151   7.453   7.640
 8780WAT     H226583   5.135   7.503   7.485
 8781WAT      O26584   2.129   1.019   9.193
 8781WAT     H126585   2.200   1.016   9.123
 8781WAT     H226586   2.077   0.934   9.191
 8782WAT      O26587   2.297   2.296   7.577
 8782WAT     H126588   2.344   2.220   7.533
 8782WAT     H226589   2.229   2.334   7.514
 8783WAT      O26590   4.929   1.159   1.395
 8783WAT     H126591   4.857   1.123   1.454
 8783WAT     H226592   4.890   1.187   1.307
 8784WAT      O26593   9.261   0.793   1.206
 8784WAT     H126594   9.249   0.694   1.191
 8784WAT     H226595   9.191   0.842   1.153
 8785WAT      O26596   6.569   4.359   2.153
 8785WAT     H126597   6.520   4.340   2.238
 8785WAT     H226598   6.665   4.331   2.163
 8786WAT      O26599   1.716   2.621   8.474
 8786WAT     H126600   1.631   2.648   8.429
 8786WAT     H226601   1.738   2.526   8.449
 8787WAT      O26602   9.420   8.365   4.078
 8787WAT     H126603   9.352   8.437   4.064
 8787WAT     H226604   9.496   8.378   4.015
 8788WAT      O26605   0.619   2.713   1.779
 8788WAT     H126606   0.692   2.743   1.840
 8788WAT     H226607   0.531   2.718   1.826
 8789WAT      O26608   2.303   5.538   2.222
 8789WAT     H126609   2.353   5.597   2.158
 8789WAT     H226610   2.281   5.589   2.305
 8790WAT      O26611   4.685   6.841   6.972
 8790WAT     H126612   4.634   6.867   6.890
 8790WAT     H226613   4.685   6.742   6.982
 8791WAT      O26614   3.818   0.981   7.677
 8791WAT     H126615   3.815   1.023   7.586
 8791WAT     H226616   3.761   0.899   7.677
 8792WAT      O26617   4.086   1.495   8.054
 8792WAT     H126618   3.991   1.465   8.046
 8792WAT     H226619   4.114   1.541   7.969
 8793WAT      O26620   3.960   0.606   3.472
 8793WAT     H126621   3.866   0.640   3.472
 8793WAT     H226622   4.005   0.630   3.557
 8794WAT      O26623   8.869   8.286   9.742
 8794WAT     H126624   8.851   8.385   9.738
 8794WAT     H226625   8.967   8.269   9.742
 8795WAT      O26626   0.210   5.807   1.876
 8795WAT     H126627   0.130   5.748   1.878
 8795WAT     H226628   0.187   5.894   1.831
 8796WAT      O26629   3.457   7.782   6.580
 8796WAT     H126630   3.454   7.684   6.563
 8796WAT     H226631   3.518   7.800   6.658
 8797WAT      O26632   9.318   5.377   1.882
 8797WAT     H126633   9.332   5.394   1.784
 8797WAT     H226634   9.221   5.392   1.904
 8798WAT      O26635   2.898   6.901   0.491
 8798WAT     H126636   2.866   6.912   0.585
 8798WAT     H226637   2.867   6.977   0.436
 8799WAT      O26638   9.026   5.714   2.228
 8799WAT     H126639   9.102   5.711   2.164
 8799WAT     H226640   9.043   5.784   2.297
 8800WAT      O26641   9.631   1.794   5.816
 8800WAT     H126642   9.725   1.762   5.813
 8800WAT     H226643   9.569   1.716   5.801
 8801WAT      O26644   3.567   7.841   1.727
 8801WAT     H126645   3.544   7.884   1.640
 8801WAT     H226646   3.660   7.865   1.753
 8802WAT      O26647   3.624   4.585   6.697
 8802WAT     H126648   3.535   4.542   6.682
 8802WAT     H226649   3.617   4.652   6.771
 8803WAT      O26650   5.567   1.309   7.778
 8803WAT     H126651   5.660   1.274   7.791
 8803WAT     H226652   5.507   1.269   7.846
 8804WAT      O26653   9.289   2.139   5.638
 8804WAT     H126654   9.317   2.203   5.709
 8804WAT     H226655   9.281   2.047   5.677
 8805WAT      O26656   8.246   5.632   0.930
 8805WAT     H126657   8.154   5.595   0.929
 8805WAT     H226658   8.246   5.721   0.976
 8806WAT      O26659   7.125   3.331   7.564
 8806WAT     H126660   7.200   3.395   7.579
 8806WAT     H226661   7.141   3.281   7.478
 8807WAT      O26662   8.645   5.205   2.322
 8807WAT     H126663   8.670   5.134   2.387
 8807WAT     H226664   8.550   5.192   2.292
 8808WAT      O26665   1.509   1.625   5.058
 8808WAT     H126666   1.499   1.622   5.158
 8808WAT     H226667   1.437   1.571   5.015
 8809WAT      O26668   7.168   7.780   0.854
 8809WAT     H126669   7.196   7.814   0.944
 8809WAT     H226670   7.242   7.792   0.789
 8810WAT      O26671   0.576   9.398   6.885
 8810WAT     H126672   0.576   9.399   6.785
 8810WAT     H226673   0.544   9.309   6.917
 8811WAT      O26674   4.024   1.984   4.270
 8811WAT     H126675   4.021   2.084   4.279
 8811WAT     H226676   4.014   1.942   4.360
 8812WAT      O26677   4.368   1.151   8.166
 8812WAT     H126678   4.297   1.183   8.228
 8812WAT     H226679   4.334   1.154   8.072
 8813WAT      O26680   7.389   0.829   3.926
 8813WAT     H126681   7.330   0.814   3.847
 8813WAT     H226682   7.385   0.926   3.952
 8814WAT      O26683   4.444   6.274   7.955
 8814WAT     H126684   4.366   6.307   8.008
 8814WAT     H226685   4.482   6.193   7.999
 8815WAT      O26686   3.728   2.188   5.500
 8815WAT     H126687   3.694   2.182   5.406
 8815WAT     H226688   3.752   2.096   5.532
 8816WAT      O26689   4.612   1.298   8.540
 8816WAT     H126690   4.589   1.216   8.488
 8816WAT     H226691   4.547   1.310   8.615
 8817WAT      O26692   5.954   2.186   5.192
 8817WAT     H126693   6.011   2.105   5.184
 8817WAT     H226694   5.994   2.260   5.137
 8818WAT      O26695   3.579   5.213   5.886
 8818WAT     H126696   3.662   5.181   5.842
 8818WAT     H226697   3.562   5.308   5.860
 8819WAT      O26698   1.227   6.694   4.698
 8819WAT     H126699   1.321   6.724   4.717
 8819WAT     H226700   1.223   6.657   4.605
 8820WAT      O26701   6.352   4.886   1.751
 8820WAT     H126702   6.412   4.817   1.792
 8820WAT     H226703   6.258   4.872   1.784
 8821WAT      O26704   5.705   2.124   8.143
 8821WAT     H126705   5.700   2.192   8.216
 8821WAT     H226706   5.798   2.086   8.139
 8822WAT      O26707   0.671   9.734   0.540
 8822WAT     H126708   0.667   9.701   0.445
 8822WAT     H226709   0.759   9.709   0.580
 8823WAT      O26710   1.233   4.620   9.185
 8823WAT     H126711   1.329   4.590   9.192
 8823WAT     H226712   1.195   4.631   9.276
 8824WAT      O26713   4.863   3.948   4.383
 8824WAT     H126714   4.820   3.938   4.293
 8824WAT     H226715   4.960   3.926   4.376
 8825WAT      O26716   3.433   5.051   6.937
 8825WAT     H126717   3.455   5.070   7.033
 8825WAT     H226718   3.361   4.981   6.933
 8826WAT      O26719   2.400   6.940   1.225
 8826WAT     H126720   2.357   6.888   1.298
 8826WAT     H226721   2.417   7.033   1.256
 8827WAT      O26722   7.937   2.152   4.110
 8827WAT     H126723   7.974   2.238   4.146
 8827WAT     H226724   7.980   2.075   4.156
 8828WAT      O26725   7.657   0.608   3.703
 8828WAT     H126726   7.701   0.533   3.653
 8828WAT     H226727   7.715   0.636   3.779
 8829WAT      O26728   4.704   8.564   1.534
 8829WAT     H126729   4.631   8.590   1.471
 8829WAT     H226730   4.775   8.634   1.532
 8830WAT      O26731   1.866   3.819   7.335
 8830WAT     H126732   1.868   3.844   7.238
 8830WAT     H226733   1.864   3.902   7.390
 8831WAT      O26734   7.230   2.538   6.712
 8831WAT     H126735   7.193   2.553   6.621
 8831WAT     H226736   7.164   2.486   6.767
 8832WAT      O26737   6.144   7.225   3.463
 8832WAT     H126738   6.205   7.290   3.420
 8832WAT     H226739   6.159   7.225   3.562
 8833WAT      O26740   0.130   0.501   7.293
 8833WAT     H126741   0.112   0.416   7.342
 8833WAT     H226742   0.076   0.575   7.335
 8834WAT      O26743   5.750   4.676   1.646
 8834WAT     H126744   5.682   4.623   1.595
 8834WAT     H226745   5.837   4.626   1.648
 8835WAT      O26746   2.351   2.189   8.540
 8835WAT     H126747   2.392   2.138   8.615
 8835WAT     H226748   2.370   2.286   8.551
 8836WAT      O26749   5.611   2.691   0.787
 8836WAT     H126750   5.579   2.659   0.876
 8836WAT     H226751   5.546   2.662   0.716
 8837WAT      O26752   0.455   9.349   9.538
 8837WAT     H126753   0.358   9.359   9.560
 8837WAT     H226754   0.465   9.320   9.443
 8838WAT      O26755   6.799   8.466   3.995
 8838WAT     H126756   6.741   8.417   3.930
 8838WAT     H226757   6.895   8.440   3.979
 8839WAT      O26758   4.950   5.443   5.931
 8839WAT     H126759   4.953   5.542   5.914
 8839WAT     H226760   5.021   5.398   5.877
 8840WAT      O26761   3.732   9.261   1.052
 8840WAT     H126762   3.654   9.300   1.101
 8840WAT     H226763   3.816   9.304   1.084
 8841WAT      O26764   3.890   2.353   4.109
 8841WAT     H126765   3.889   2.373   4.206
 8841WAT     H226766   3.813   2.398   4.064
 8842WAT      O26767   5.869   9.470   9.000
 8842WAT     H126768   5.785   9.508   9.041
 8842WAT     H226769   5.948   9.506   9.048
 8843WAT      O26770   1.741   4.849   6.451
 8843WAT     H126771   1.719   4.898   6.367
 8843WAT     H226772   1.771   4.756   6.428
 8844WAT      O26773   9.609   5.146   4.039
 8844WAT     H126774   9.664   5.096   4.106
 8844WAT     H226775   9.640   5.240   4.033
 8845WAT      O26776   4.839   0.597   9.256
 8845WAT     H126777   4.809   0.644   9.173
 8845WAT     H226778   4.938   0.598   9.261
 8846WAT      O26779   1.711   1.512   4.891
 8846WAT     H126780   1.659   1.555   4.966
 8846WAT     H226781   1.705   1.413   4.899
 8847WAT      O26782   1.984   9.826   6.333
 8847WAT     H126783   2.059   9.779   6.287
 8847WAT     H226784   1.960   9.909   6.282
 8848WAT      O26785   5.648   1.343   5.972
 8848WAT     H126786   5.729   1.397   5.996
 8848WAT     H226787   5.576   1.404   5.940
 8849WAT      O26788   0.272   0.140   7.145
 8849WAT     H126789   0.191   0.199   7.138
 8849WAT     H226790   0.249   0.056   7.193
 8850WAT      O26791   3.385   6.313   2.194
 8850WAT     H126792   3.324   6.390   2.174
 8850WAT     H226793   3.432   6.286   2.111
 8851WAT      O26794   1.161   7.587   4.343
 8851WAT     H126795   1.142   7.538   4.258
 8851WAT     H226796   1.097   7.663   4.353
 8852WAT      O26797   3.233   8.029   1.083
 8852WAT     H126798   3.189   8.104   1.034
 8852WAT     H226799   3.298   8.067   1.149
 8853WAT      O26800   2.764   8.819   9.035
 8853WAT     H126801   2.688   8.868   8.993
 8853WAT     H226802   2.747   8.808   9.133
 8854WAT      O26803   3.834   0.500   1.982
 8854WAT     H126804   3.797   0.423   2.034
 8854WAT     H226805   3.931   0.487   1.966
 8855WAT      O26806   2.106   7.040   5.842
 8855WAT     H126807   2.063   7.103   5.777
 8855WAT     H226808   2.172   6.982   5.794
 8856WAT      O26809   7.502   2.008   3.595
 8856WAT     H126810   7.466   2.075   3.660
 8856WAT     H226811   7.593   1.978   3.626
 8857WAT      O26812   0.176   8.572   9.099
 8857WAT     H126813   0.190   8.603   9.005
 8857WAT     H226814   0.081   8.542   9.110
 8858WAT      O26815   3.083   7.802   3.700
 8858WAT     H126816   3.087   7.703   3.709
 8858WAT     H226817   3.175   7.839   3.689
 8859WAT      O26818   3.368   3.740   8.548
 8859WAT     H126819   3.332   3.663   8.600
 8859WAT     H226820   3.465   3.724   8.527
 8860WAT      O26821   2.363   3.663   1.183
 8860WAT     H126822   2.434   3.719   1.225
 8860WAT     H226823   2.273   3.698   1.207
 8861WAT      O26824   9.813   9.457   4.543
 8861WAT     H126825   9.879   9.382   4.543
 8861WAT     H226826   9.720   9.420   4.545
 8862WAT      O26827   6.072   2.758   2.358
 8862WAT     H126828   6.087   2.749   2.260
 8862WAT     H226829   5.975   2.744   2.379
 8863WAT      O26830   8.424   9.226   5.849
 8863WAT     H126831   8.488   9.244   5.924
 8863WAT     H226832   8.419   9.307   5.791
 8864WAT      O26833   9.047   5.140   0.913
 8864WAT     H126834   8.968   5.187   0.873
 8864WAT     H226835   9.103   5.207   0.962
 8865WAT      O26836   2.636   2.620   5.596
 8865WAT     H126837   2.610   2.551   5.529
 8865WAT     H226838   2.705   2.681   5.556
 8866WAT      O26839   0.768   2.688   3.338
 8866WAT     H126840   0.709   2.694   3.259
 8866WAT     H226841   0.819   2.601   3.336
 8867WAT      O26842   0.427   5.842   1.327
 8867WAT     H126843   0.496   5.794   1.381
 8867WAT     H226844   0.345   5.855   1.383
 8868WAT      O26845   3.429   1.379   3.492
 8868WAT     H126846   3.376   1.445   3.545
 8868WAT     H226847   3.369   1.332   3.427
 8869WAT      O26848   4.709   8.065   3.282
 8869WAT     H126849   4.752   7.981   3.251
 8869WAT     H226850   4.610   8.052   3.287
 8870WAT      O26851   3.607   7.770   5.369
 8870WAT     H126852   3.520   7.726   5.391
 8870WAT     H226853   3.603   7.807   5.276
 8871WAT      O26854   5.369   0.703   4.186
 8871WAT     H126855   5.424   0.781   4.216
 8871WAT     H226856   5.273   0.719   4.211
 8872WAT      O26857   5.044   1.780   6.547
 8872WAT     H126858   5.129   1.800   6.497
 8872WAT     H226859   5.051   1.689   6.588
 8873WAT      O26860   1.047   7.226   1.014
 8873WAT     H126861   0.994   7.248   0.931
 8873WAT     H226862   1.009   7.276   1.092
 8874WAT      O26863   4.862   9.481   7.135
 8874WAT     H126864   4.957   9.500   7.161
 8874WAT     H226865   4.823   9.415   7.199
 8875WAT      O26866   0.786   3.601   9.244
 8875WAT     H126867   0.696   3.644   9.247
 8875WAT     H226868   0.775   3.503   9.228
 8876WAT      O26869   8.539   0.195   3.455
 8876WAT     H126870   8.557   0.160   3.547
 8876WAT     H226871   8.571   0.290   3.450
 8877WAT      O26872   1.745   9.157   0.795
 8877WAT     H126873   1.804   9.229   0.831
 8877WAT     H226874   1.745   9.080   0.857
 8878WAT      O26875   1.951   4.766   4.297
 8878WAT     H126876   1.914   4.705   4.367
 8878WAT     H226877   2.044   4.791   4.321
 8879WAT      O26878   6.150   8.706   3.452
 8879WAT     H126879   6.201   8.727   3.536
 8879WAT     H226880   6.152   8.785   3.392
 8880WAT      O26881   4.388   0.731   2.779
 8880WAT     H126882   4.330   0.683   2.714
 8880WAT     H226883   4.387   0.829   2.759
 8881WAT      O26884   5.821   7.166   0.374
 8881WAT     H126885   5.879   7.219   0.312
 8881WAT     H226886   5.730   7.157   0.334
 8882WAT      O26887   0.811   2.596   0.150
 8882WAT     H126888   0.825   2.540   0.068
 8882WAT     H226889   0.759   2.678   0.126
 8883WAT      O26890   2.744   6.047   3.196
 8883WAT     H126891   2.733   6.139   3.234
 8883WAT     H226892   2.841   6.024   3.190
 8884WAT      O26893   0.107   3.011   7.891
 8884WAT     H126894   0.067   3.027   7.801
 8884WAT     H226895   0.202   3.041   7.892
 8885WAT      O26896   3.893   7.972   3.403
 8885WAT     H126897   3.935   8.062   3.414
 8885WAT     H226898   3.912   7.917   3.484
 8886WAT      O26899   7.793   7.821   9.479
 8886WAT     H126900   7.760   7.757   9.410
 8886WAT     H226901   7.792   7.777   9.569
 8887WAT      O26902   6.272   2.234   3.665
 8887WAT     H126903   6.249   2.328   3.690
 8887WAT     H226904   6.285   2.229   3.566
 8888WAT      O26905   5.604   7.813   5.859
 8888WAT     H126906   5.511   7.829   5.894
 8888WAT     H226907   5.670   7.863   5.915
 8889WAT      O26908   2.136   9.145   8.305
 8889WAT     H126909   2.144   9.120   8.208
 8889WAT     H226910   2.173   9.071   8.361
 8890WAT      O26911   1.859   9.374   9.877
 8890WAT     H126912   1.791   9.441   9.908
 8890WAT     H226913   1.901   9.330   9.957
 8891WAT      O26914   9.879   4.454   1.209
 8891WAT     H126915   9.974   4.478   1.228
 8891WAT     H226916   9.818   4.511   1.264
 8892WAT      O26917   5.331   5.263   3.712
 8892WAT     H126918   5.391   5.201   3.662
 8892WAT     H226919   5.236   5.244   3.688
 8893WAT      O26920   1.555   7.119   5.726
 8893WAT     H126921   1.548   7.169   5.639
 8893WAT     H226922   1.532   7.181   5.801
 8894WAT      O26923   5.549   2.646   7.111
 8894WAT     H126924   5.638   2.685   7.089
 8894WAT     H226925   5.551   2.611   7.205
 8895WAT      O26926   2.047   8.305   8.997
 8895WAT     H126927   2.025   8.354   8.912
 8895WAT     H226928   1.970   8.248   9.024
 8896WAT      O26929   9.143   3.051   2.240
 8896WAT     H126930   9.145   3.142   2.282
 8896WAT     H226931   9.072   2.996   2.284
 8897WAT      O26932   0.622   5.628   7.978
 8897WAT     H126933   0.617   5.660   8.072
 8897WAT     H226934   0.529   5.614   7.942
 8898WAT      O26935   5.000   9.758   0.402
 8898WAT     H126936   4.990   9.828   0.473
 8898WAT     H226937   5.086   9.710   0.415
 8899WAT      O26938   5.926   5.021   0.064
 8899WAT     H126939   5.901   4.982   0.153
 8899WAT     H226940   6.021   4.999   0.043
 8900WAT      O26941   8.378   3.059   9.689
 8900WAT     H126942   8.310   3.007   9.741
 8900WAT     H226943   8.335   3.139   9.648
 8901WAT      O26944   4.946   9.031   4.885
 8901WAT     H126945   4.928   9.094   4.809
 8901WAT     H226946   4.871   8.965   4.892
 8902WAT      O26947   5.833   2.014   4.507
 8902WAT     H126948   5.775   1.934   4.520
 8902WAT     H226949   5.872   2.012   4.414
 8903WAT      O26950   4.881   9.280   5.202
 8903WAT     H126951   4.920   9.188   5.198
 8903WAT     H226952   4.819   9.294   5.125
 8904WAT      O26953   4.919   3.557   1.445
 8904WAT     H126954   4.968   3.531   1.528
 8904WAT     H226955   4.821   3.564   1.465
 8905WAT      O26956   4.729   8.825   8.539
 8905WAT     H126957   4.824   8.856   8.542
 8905WAT     H226958   4.669   8.904   8.544
 8906WAT      O26959   3.216   5.826   4.281
 8906WAT     H126960   3.217   5.727   4.286
 8906WAT     H226961   3.150   5.856   4.212
 8907WAT      O26962   8.969   2.736   3.003
 8907WAT     H126963   8.954   2.640   2.982
 8907WAT     H226964   8.999   2.784   2.920
 8908WAT      O26965   7.040   8.127   2.968
 8908WAT     H126966   6.957   8.177   2.944
 8908WAT     H226967   7.065   8.148   3.063
 8909WAT      O26968   4.112   0.789   5.029
 8909WAT     H126969   4.181   0.844   4.982
 8909WAT     H226970   4.155   0.707   5.066
 8910WAT      O26971   8.020   6.634   3.215
 8910WAT     H126972   8.091   6.578   3.170
 8910WAT     H226973   8.036   6.730   3.193
 8911WAT      O26974   3.287   3.568   8.735
 8911WAT     H126975   3.331   3.478   8.736
 8911WAT     H226976   3.195   3.560   8.773
 8912WAT      O26977   0.216   4.977   0.109
 8912WAT     H126978   0.132   5.004   0.062
 8912WAT     H226979   0.249   4.891   0.071
 8913WAT      O26980   1.808   1.846   4.064
 8913WAT     H126981   1.812   1.821   4.161
 8913WAT     H226982   1.722   1.814   4.026
 8914WAT      O26983   6.649   9.328   8.531
 8914WAT     H126984   6.728   9.273   8.504
 8914WAT     H226985   6.652   9.346   8.629
 8915WAT      O26986   9.205   6.323   1.021
 8915WAT     H126987   9.147   6.391   1.067
 8915WAT     H226988   9.300   6.338   1.046
 8916WAT      O26989   8.320   1.828   0.694
 8916WAT     H126990   8.262   1.784   0.763
 8916WAT     H226991   8.295   1.795   0.603
 8917WAT      O26992   4.090   1.013   7.061
 8917WAT     H126993   4.032   0.951   7.008
 8917WAT     H226994   4.185   0.981   7.059
 8918WAT      O26995   4.064   1.115   0.394
 8918WAT     H126996   3.994   1.184   0.379
 8918WAT     H226997   4.092   1.076   0.306
 8919WAT      O26998   7.190   4.982   0.282
 8919WAT     H126999   7.153   4.949   0.369
 8919WAT     H227000   7.117   4.989   0.215
 8920WAT      O27001   5.446   3.331   1.208
 8920WAT     H127002   5.419   3.412   1.260
 8920WAT     H227003   5.380   3.258   1.225
 8921WAT      O27004   0.027   1.300   6.197
 8921WAT     H127005  -0.008   1.259   6.113
 8921WAT     H227006   0.053   1.228   6.261
 8922WAT      O27007   0.830   7.752   2.986
 8922WAT     H127008   0.778   7.834   2.962
 8922WAT     H227009   0.768   7.677   3.004
 8923WAT      O27010   6.047   9.798   8.467
 8923WAT     H127011   6.051   9.739   8.386
 8923WAT     H227012   5.958   9.787   8.512
 8924WAT      O27013   8.849   9.231   6.513
 8924WAT     H127014   8.907   9.289   6.455
 8924WAT     H227015   8.853   9.137   6.480
 8925WAT      O27016   2.479   1.517   1.657
 8925WAT     H127017   2.454   1.516   1.560
 8925WAT     H227018   2.495   1.424   1.689
 8926WAT      O27019   0.610   9.480   2.414
 8926WAT     H127020   0.644   9.403   2.359
 8926WAT     H227021   0.662   9.562   2.392
 8927WAT      O27022   9.699   5.155   8.791
 8927WAT     H127023   9.719   5.233   8.851
 8927WAT     H227024   9.772   5.087   8.798
 8928WAT      O27025   5.014   8.102   3.585
 8928WAT     H127026   4.919   8.092   3.555
 8928WAT     H227027   5.039   8.025   3.643
 8929WAT      O27028   8.805   1.477   9.063
 8929WAT     H127029   8.719   1.447   9.019
 8929WAT     H227030   8.866   1.399   9.073
 8930WAT      O27031   8.875   2.255   6.927
 8930WAT     H127032   8.899   2.172   6.978
 8930WAT     H227033   8.934   2.330   6.955
 8931WAT      O27034   7.343   5.364   4.134
 8931WAT     H127035   7.435   5.329   4.152
 8931WAT     H227036   7.345   5.421   4.052
 8932WAT      O27037   3.090   1.454   9.631
 8932WAT     H127038   3.126   1.530   9.685
 8932WAT     H227039   3.029   1.490   9.560
 8933WAT      O27040   0.329   0.697   2.116
 8933WAT     H127041   0.330   0.725   2.020
 8933WAT     H227042   0.287   0.770   2.171
 8934WAT      O27043   1.920   9.243   9.242
 8934WAT     H127044   1.944   9.197   9.328
 8934WAT     H227045   1.925   9.342   9.254
 8935WAT      O27046   9.298   4.296   0.371
 8935WAT     H127047   9.234   4.269   0.299
 8935WAT     H227048   9.348   4.378   0.341
 8936WAT      O27049   7.014   2.243   9.214
 8936WAT     H127050   6.975   2.156   9.184
 8936WAT     H227051   6.992   2.258   9.310
 8937WAT      O27052   9.721   5.569   7.744
 8937WAT     H127053   9.732   5.654   7.796
 8937WAT     H227054   9.735   5.491   7.804
 8938WAT      O27055   7.546   8.068   6.740
 8938WAT     H127056   7.628   8.026   6.778
 8938WAT     H227057   7.530   8.032   6.648
 8939WAT      O27058   7.994   0.360   7.135
 8939WAT     H127059   8.048   0.437   7.101
 8939WAT     H227060   8.017   0.278   7.083
 8940WAT      O27061   7.938   6.388   6.287
 8940WAT     H127062   7.868   6.450   6.324
 8940WAT     H227063   7.894   6.305   6.253
 8941WAT      O27064   3.240   6.581   0.466
 8941WAT     H127065   3.146   6.585   0.498
 8941WAT     H227066   3.254   6.495   0.416
 8942WAT      O27067   8.335   5.850   3.061
 8942WAT     H127068   8.419   5.837   3.114
 8942WAT     H227069   8.357   5.853   2.964
 8943WAT      O27070   0.162   1.439   1.272
 8943WAT     H127071   0.096   1.389   1.216
 8943WAT     H227072   0.255   1.422   1.239
 8944WAT      O27073   0.138   7.153   5.040
 8944WAT     H127074   0.069   7.126   5.107
 8944WAT     H227075   0.229   7.134   5.076
 8945WAT      O27076   8.883   6.866   6.611
 8945WAT     H127077   8.794   6.911   6.622
 8945WAT     H227078   8.888   6.787   6.672
 8946WAT      O27079   3.417   8.308   3.569
 8946WAT     H127080   3.344   8.253   3.530
 8946WAT     H227081   3.450   8.373   3.501
 8947WAT      O27082   3.852   8.556   4.395
 8947WAT     H127083   3.864   8.559   4.296
 8947WAT     H227084   3.916   8.489   4.434
 8948WAT      O27085   6.197   3.302   2.129
 8948WAT     H127086   6.231   3.221   2.176
 8948WAT     H227087   6.139   3.355   2.191
 8949WAT      O27088   9.508   8.276   1.941
 8949WAT     H127089   9.498   8.329   1.857
 8949WAT     H227090   9.421   8.232   1.963
 8950WAT      O27091   1.424   4.276   0.438
 8950WAT     H127092   1.500   4.214   0.419
 8950WAT     H227093   1.449   4.369   0.412
 8951WAT      O27094   1.641   4.633   7.755
 8951WAT     H127095   1.736   4.657   7.737
 8951WAT     H227096   1.582   4.673   7.685
 8952WAT      O27097   9.678   3.989   5.939
 8952WAT     H127098   9.671   3.936   5.855
 8952WAT     H227099   9.693   4.085   5.916
 8953WAT      O27100   6.855   2.203   7.449
 8953WAT     H127101   6.841   2.183   7.352
 8953WAT     H227102   6.921   2.137   7.487
 8954WAT      O27103   7.508   5.528   3.483
 8954WAT     H127104   7.471   5.593   3.549
 8954WAT     H227105   7.512   5.570   3.393
 8955WAT      O27106   0.841   8.142   0.873
 8955WAT     H127107   0.863   8.189   0.787
 8955WAT     H227108   0.742   8.147   0.889
 8956WAT      O27109   2.010   8.551   2.161
 8956WAT     H127110   1.917   8.583   2.139
 8956WAT     H227111   2.004   8.461   2.204
 8957WAT      O27112   5.486   1.388   9.031
 8957WAT     H127113   5.549   1.418   8.959
 8957WAT     H227114   5.524   1.413   9.120
 8958WAT      O27115   0.617   6.130   0.444
 8958WAT     H127116   0.536   6.080   0.415
 8958WAT     H227117   0.699   6.081   0.415
 8959WAT      O27118   4.681   7.940   8.011
 8959WAT     H127119   4.621   8.020   8.010
 8959WAT     H227120   4.687   7.901   7.919
 8960WAT      O27121   6.072   2.357   7.143
 8960WAT     H127122   6.024   2.346   7.055
 8960WAT     H227123   6.170   2.367   7.126
 8961WAT      O27124   6.544   0.989   7.998
 8961WAT     H127125   6.614   0.930   7.959
 8961WAT     H227126   6.476   0.933   8.046
 8962WAT      O27127   5.579   7.105   5.707
 8962WAT     H127128   5.519   7.050   5.765
 8962WAT     H227129   5.619   7.179   5.761
 8963WAT      O27130   0.609   5.908   3.817
 8963WAT     H127131   0.650   5.928   3.907
 8963WAT     H227132   0.680   5.906   3.748
 8964WAT      O27133   3.258   4.170   3.010
 8964WAT     H127134   3.219   4.258   3.037
 8964WAT     H227135   3.321   4.138   3.080
 8965WAT      O27136   9.259  -0.002   7.217
 8965WAT     H127137   9.211   0.079   7.250
 8965WAT     H227138   9.357   0.017   7.214
 8966WAT      O27139   5.067   9.219   8.130
 8966WAT     H127140   5.143   9.159   8.154
 8966WAT     H227141   4.983   9.184   8.171
 8967WAT      O27142   4.043   6.879   6.242
 8967WAT     H127143   4.085   6.819   6.310
 8967WAT     H227144   3.946   6.855   6.232
 8968WAT      O27145   0.522   7.768   2.649
 8968WAT     H127146   0.512   7.704   2.573
 8968WAT     H227147   0.603   7.825   2.634
 8969WAT      O27148   7.999   2.427   4.130
 8969WAT     H127149   8.035   2.431   4.224
 8969WAT     H227150   7.899   2.421   4.134
 8970WAT      O27151   8.626   4.015   2.063
 8970WAT     H127152   8.612   4.097   2.120
 8970WAT     H227153   8.690   4.036   1.990
 8971WAT      O27154   5.904   0.139   9.093
 8971WAT     H127155   5.952   0.065   9.045
 8971WAT     H227156   5.928   0.227   9.050
 8972WAT      O27157   5.419   2.139   6.818
 8972WAT     H127158   5.354   2.102   6.751
 8972WAT     H227159   5.383   2.223   6.856
 8973WAT      O27160   7.496   0.699   8.283
 8973WAT     H127161   7.471   0.607   8.313
 8973WAT     H227162   7.594   0.714   8.297
 8974WAT      O27163   6.514   0.970   7.097
 8974WAT     H127164   6.488   0.879   7.130
 8974WAT     H227165   6.614   0.978   7.097
 8975WAT      O27166   2.965   4.037   6.655
 8975WAT     H127167   2.907   4.032   6.737
 8975WAT     H227168   2.936   4.115   6.599
 8976WAT      O27169   8.752   4.780   1.545
 8976WAT     H127170   8.750   4.878   1.525
 8976WAT     H227171   8.663   4.751   1.580
 8977WAT      O27172   3.135   0.928   2.673
 8977WAT     H127173   3.220   0.941   2.621
 8977WAT     H227174   3.118   1.009   2.730
 8978WAT      O27175   1.745   0.873   8.809
 8978WAT     H127176   1.805   0.940   8.855
 8978WAT     H227177   1.801   0.809   8.757
 8979WAT      O27178   3.883   6.431   7.756
 8979WAT     H127179   3.975   6.463   7.735
 8979WAT     H227180   3.860   6.454   7.851
 8980WAT      O27181   7.885   0.323   1.678
 8980WAT     H127182   7.878   0.405   1.734
 8980WAT     H227183   7.981   0.308   1.653
 8981WAT      O27184   4.584   8.548   9.701
 8981WAT     H127185   4.643   8.525   9.778
 8981WAT     H227186   4.594   8.645   9.678
 8982WAT      O27187   5.030   9.070   6.465
 8982WAT     H127188   5.084   9.141   6.420
 8982WAT     H227189   4.945   9.056   6.416
 8983WAT      O27190   1.385   4.749   3.483
 8983WAT     H127191   1.461   4.800   3.442
 8983WAT     H227192   1.301   4.767   3.432
 8984WAT      O27193   4.485   5.500   2.245
 8984WAT     H127194   4.488   5.444   2.162
 8984WAT     H227195   4.471   5.442   2.325
 8985WAT      O27196   1.137   4.036   2.834
 8985WAT     H127197   1.141   3.940   2.804
 8985WAT     H227198   1.066   4.084   2.782
 8986WAT      O27199   5.591   8.678   2.668
 8986WAT     H127200   5.585   8.704   2.764
 8986WAT     H227201   5.617   8.757   2.613
 8987WAT      O27202   4.643   6.699   2.513
 8987WAT     H127203   4.650   6.743   2.603
 8987WAT     H227204   4.548   6.702   2.482
 8988WAT      O27205   4.130   0.603   2.335
 8988WAT     H127206   4.108   0.507   2.313
 8988WAT     H227207   4.197   0.637   2.270
 8989WAT      O27208   0.906   7.028   0.297
 8989WAT     H127209   0.830   6.982   0.343
 8989WAT     H227210   0.871   7.098   0.236
 8990WAT      O27211   6.610   8.919   8.257
 8990WAT     H127212   6.639   8.846   8.194
 8990WAT     H227213   6.687   8.943   8.317
 8991WAT      O27214   3.088   8.076   9.501
 8991WAT     H127215   2.992   8.104   9.507
 8991WAT     H227216   3.093   7.976   9.491
 8992WAT      O27217   5.955   2.132   8.730
 8992WAT     H127218   6.034   2.091   8.776
 8992WAT     H227219   5.871   2.095   8.770
 8993WAT      O27220   9.551   8.855   1.447
 8993WAT     H127221   9.610   8.773   1.451
 8993WAT     H227222   9.591   8.921   1.384
 8994WAT      O27223   3.164   6.734   6.467
 8994WAT     H127224   3.075   6.694   6.448
 8994WAT     H227225   3.208   6.684   6.542
 8995WAT      O27226   8.611   0.993   9.852
 8995WAT     H127227   8.705   0.996   9.887
 8995WAT     H227228   8.602   1.056   9.775
 8996WAT      O27229   7.371   2.002   8.679
 8996WAT     H127230   7.373   2.095   8.715
 8996WAT     H227231   7.458   1.957   8.699
 8997WAT      O27232   7.111   1.137   1.150
 8997WAT     H127233   7.017   1.117   1.121
 8997WAT     H227234   7.175   1.111   1.078
 8998WAT      O27235   6.983   1.118   6.197
 8998WAT     H127236   6.909   1.137   6.261
 8998WAT     H227237   6.957   1.041   6.138
 8999WAT      O27238   2.437   4.848   0.721
 8999WAT     H127239   2.358   4.881   0.773
 8999WAT     H227240   2.519   4.854   0.777
 9000WAT      O27241   4.529   6.792   2.170
 9000WAT     H127242   4.495   6.749   2.254
 9000WAT     H227243   4.451   6.825   2.116
 9001WAT      O27244   5.785   9.070   9.131
 9001WAT     H127245   5.704   9.035   9.084
 9001WAT     H227246   5.757   9.118   9.214
 9002WAT      O27247   4.349   8.820   6.309
 9002WAT     H127248   4.382   8.877   6.384
 9002WAT     H227249   4.426   8.790   6.253
 9003WAT      O27250   0.174   2.627   5.023
 9003WAT     H127251   0.086   2.636   5.069
 9003WAT     H227252   0.219   2.543   5.052
 9004WAT      O27253   5.542   8.949   5.845
 9004WAT     H127254   5.524   8.967   5.941
 9004WAT     H227255   5.607   8.874   5.835
 9005WAT      O27256   7.269   2.161   3.097
 9005WAT     H127257   7.356   2.165   3.147
 9005WAT     H227258   7.271   2.085   3.033
 9006WAT      O27259   0.041   5.086   4.083
 9006WAT     H127260   0.023   4.988   4.076
 9006WAT     H227261   0.011   5.131   3.999
 9007WAT      O27262   5.068   5.770   3.401
 9007WAT     H127263   5.161   5.806   3.395
 9007WAT     H227264   5.069   5.681   3.446
 9008WAT      O27265   5.521   7.892   8.723
 9008WAT     H127266   5.453   7.856   8.659
 9008WAT     H227267   5.540   7.988   8.702
 9009WAT      O27268   5.924   7.069   7.278
 9009WAT     H127269   5.993   7.089   7.347
 9009WAT     H227270   5.959   7.003   7.212
 9010WAT      O27271   8.620   3.301   5.117
 9010WAT     H127272   8.693   3.321   5.053
 9010WAT     H227273   8.586   3.387   5.157
 9011WAT      O27274   7.865   2.872   4.133
 9011WAT     H127275   7.888   2.835   4.223
 9011WAT     H227276   7.918   2.825   4.062
 9012WAT      O27277   1.939   8.725   8.636
 9012WAT     H127278   1.985   8.812   8.617
 9012WAT     H227279   2.006   8.651   8.634
 9013WAT      O27280   3.769   4.366   5.325
 9013WAT     H127281   3.704   4.442   5.332
 9013WAT     H227282   3.759   4.307   5.405
 9014WAT      O27283   6.216   0.205   4.479
 9014WAT     H127284   6.253   0.296   4.461
 9014WAT     H227285   6.117   0.208   4.476
 9015WAT      O27286   2.039   7.618   3.662
 9015WAT     H127287   1.969   7.688   3.676
 9015WAT     H227288   1.996   7.531   3.640
 9016WAT      O27289   3.582   8.158   8.635
 9016WAT     H127290   3.670   8.181   8.675
 9016WAT     H227291   3.534   8.243   8.611
 9017WAT      O27292   6.986   2.356   5.535
 9017WAT     H127293   7.052   2.318   5.471
 9017WAT     H227294   7.032   2.421   5.596
 9018WAT      O27295   0.994   8.849   7.679
 9018WAT     H127296   0.917   8.872   7.739
 9018WAT     H227297   1.002   8.749   7.673
 9019WAT      O27298   7.369   5.687   2.593
 9019WAT     H127299   7.371   5.633   2.677
 9019WAT     H227300   7.437   5.650   2.529
 9020WAT      O27301   5.062   5.062   6.252
 9020WAT     H127302   4.976   5.011   6.252
 9020WAT     H227303   5.085   5.089   6.345
 9021WAT      O27304   6.515   5.369   7.223
 9021WAT     H127305   6.561   5.285   7.194
 9021WAT     H227306   6.444   5.392   7.156
 9022WAT      O27307   8.837   6.190   5.496
 9022WAT     H127308   8.886   6.207   5.581
 9022WAT     H227309   8.879   6.111   5.449
 9023WAT      O27310   7.457   6.557   2.947
 9023WAT     H127311   7.425   6.557   3.042
 9023WAT     H227312   7.550   6.593   2.943
 9024WAT      O27313   0.669   6.476   2.553
 9024WAT     H127314   0.638   6.563   2.591
 9024WAT     H227315   0.616   6.455   2.471
 9025WAT      O27316   8.656   3.162   1.512
 9025WAT     H127317   8.734   3.139   1.570
 9025WAT     H227318   8.578   3.187   1.569
 9026WAT      O27319   2.438   2.359   7.167
 9026WAT     H127320   2.463   2.427   7.235
 9026WAT     H227321   2.384   2.286   7.210
 9027WAT      O27322   0.583   9.570   6.559
 9027WAT     H127323   0.660   9.586   6.620
 9027WAT     H227324   0.553   9.475   6.567
 9028WAT      O27325   4.860   0.203   9.262
 9028WAT     H127326   4.872   0.266   9.339
 9028WAT     H227327   4.765   0.208   9.230
 9029WAT      O27328   8.053   1.409   2.511
 9029WAT     H127329   8.041   1.330   2.571
 9029WAT     H227330   7.973   1.468   2.518
 9030WAT      O27331   1.567   7.939   9.844
 9030WAT     H127332   1.494   8.007   9.837
 9030WAT     H227333   1.634   7.954   9.772
 9031WAT      O27334   0.117   1.682   5.613
 9031WAT     H127335   0.067   1.643   5.535
 9031WAT     H227336   0.199   1.627   5.629
 9032WAT      O27337   7.235   2.115   4.916
 9032WAT     H127338   7.211   2.027   4.955
 9032WAT     H227339   7.305   2.103   4.846
 9033WAT      O27340   4.915   7.922   1.225
 9033WAT     H127341   4.941   7.831   1.257
 9033WAT     H227342   4.831   7.951   1.270
 9034WAT      O27343   4.813   4.515   7.668
 9034WAT     H127344   4.737   4.463   7.629
 9034WAT     H227345   4.861   4.458   7.734
 9035WAT      O27346   9.083   6.736   0.852
 9035WAT     H127347   9.013   6.730   0.923
 9035WAT     H227348   9.166   6.775   0.890
 9036WAT      O27349   7.096   1.899   4.134
 9036WAT     H127350   7.062   1.806   4.148
 9036WAT     H227351   7.153   1.901   4.052
 9037WAT      O27352   8.439   3.067   5.126
 9037WAT     H127353   8.526   3.103   5.159
 9037WAT     H227354   8.369   3.139   5.130
 9038WAT      O27355   8.042   2.429   7.008
 9038WAT     H127356   8.074   2.363   6.940
 9038WAT     H227357   8.000   2.507   6.960
 9039WAT      O27358   6.065   4.614   2.873
 9039WAT     H127359   6.094   4.646   2.783
 9039WAT     H227360   6.142   4.615   2.937
 9040WAT      O27361   3.731   0.866   6.302
 9040WAT     H127362   3.731   0.783   6.357
 9040WAT     H227363   3.772   0.847   6.212
 9041WAT      O27364   0.304   0.061   6.011
 9041WAT     H127365   0.400   0.089   6.018
 9041WAT     H227366   0.260   0.068   6.100
 9042WAT      O27367   3.820   3.365   5.301
 9042WAT     H127368   3.799   3.423   5.222
 9042WAT     H227369   3.822   3.421   5.384
 9043WAT      O27370   4.439   9.736   4.294
 9043WAT     H127371   4.456   9.669   4.367
 9043WAT     H227372   4.384   9.811   4.331
 9044WAT      O27373   7.621   8.348   0.607
 9044WAT     H127374   7.715   8.348   0.642
 9044WAT     H227375   7.620   8.385   0.514
 9045WAT      O27376   6.998   3.429   1.014
 9045WAT     H127377   6.903   3.459   1.003
 9045WAT     H227378   7.031   3.391   0.928
 9046WAT      O27379   1.899   3.631   5.760
 9046WAT     H127380   1.888   3.599   5.854
 9046WAT     H227381   1.992   3.612   5.729
 9047WAT      O27382   7.076   7.500   1.292
 9047WAT     H127383   7.095   7.538   1.201
 9047WAT     H227384   7.128   7.551   1.361
 9048WAT      O27385   3.380   4.001   4.193
 9048WAT     H127386   3.315   4.073   4.169
 9048WAT     H227387   3.471   4.027   4.160
 9049WAT      O27388   9.536   3.787   8.431
 9049WAT     H127389   9.582   3.715   8.379
 9049WAT     H227390   9.488   3.746   8.509
 9050WAT      O27391   5.876   6.408   3.804
 9050WAT     H127392   5.783   6.390   3.770
 9050WAT     H227393   5.942   6.367   3.741
 9051WAT      O27394   0.462   0.236   0.402
 9051WAT     H127395   0.537   0.261   0.341
 9051WAT     H227396   0.411   0.160   0.363
 9052WAT      O27397   8.609   8.004   0.600
 9052WAT     H127398   8.575   7.911   0.589
 9052WAT     H227399   8.626   8.023   0.696
 9053WAT      O27400   8.806   3.861   0.210
 9053WAT     H127401   8.758   3.822   0.131
 9053WAT     H227402   8.857   3.789   0.257
 9054WAT      O27403   2.281   0.185   9.260
 9054WAT     H127404   2.310   0.100   9.217
 9054WAT     H227405   2.230   0.164   9.344
 9055WAT      O27406   9.848   4.199   2.535
 9055WAT     H127407   9.802   4.160   2.455
 9055WAT     H227408   9.930   4.247   2.506
 9056WAT      O27409   1.350   1.383   2.276
 9056WAT     H127410   1.292   1.319   2.328
 9056WAT     H227411   1.325   1.379   2.179
 9057WAT      O27412   3.774   5.764   6.884
 9057WAT     H127413   3.679   5.769   6.915
 9057WAT     H227414   3.829   5.829   6.936
 9058WAT      O27415   8.975   0.266   4.708
 9058WAT     H127416   9.068   0.250   4.740
 9058WAT     H227417   8.922   0.314   4.778
 9059WAT      O27418   2.120   1.588   1.564
 9059WAT     H127419   2.125   1.685   1.542
 9059WAT     H227420   2.192   1.539   1.514
 9060WAT      O27421   1.936   5.626   5.907
 9060WAT     H127422   2.024   5.672   5.924
 9060WAT     H227423   1.903   5.650   5.816
 9061WAT      O27424   5.422   3.966   9.595
 9061WAT     H127425   5.516   3.974   9.561
 9061WAT     H227426   5.369   3.907   9.534
 9062WAT      O27427   6.635   0.589   3.640
 9062WAT     H127428   6.595   0.649   3.709
 9062WAT     H227429   6.587   0.502   3.640
 9063WAT      O27430   9.556   6.693   6.061
 9063WAT     H127431   9.533   6.757   6.134
 9063WAT     H227432   9.568   6.742   5.975
 9064WAT      O27433   1.951   4.608   7.637
 9064WAT     H127434   1.987   4.701   7.648
 9064WAT     H227435   1.935   4.589   7.540
 9065WAT      O27436   7.046   8.914   5.659
 9065WAT     H127437   6.999   8.966   5.588
 9065WAT     H227438   7.105   8.975   5.712
 9066WAT      O27439   6.670   8.741   9.578
 9066WAT     H127440   6.729   8.661   9.572
 9066WAT     H227441   6.718   8.816   9.624
 9067WAT      O27442   9.862   2.111   6.681
 9067WAT     H127443   9.770   2.074   6.694
 9067WAT     H227444   9.928   2.036   6.679
 9068WAT      O27445   8.107   5.840   1.571
 9068WAT     H127446   8.133   5.766   1.509
 9068WAT     H227447   8.010   5.860   1.560
 9069WAT      O27448   5.916   9.511   6.091
 9069WAT     H127449   5.827   9.540   6.126
 9069WAT     H227450   5.953   9.583   6.032
 9070WAT      O27451   8.434   4.920   7.075
 9070WAT     H127452   8.383   4.943   6.992
 9070WAT     H227453   8.499   4.846   7.054
 9071WAT      O27454   1.959   7.789   0.266
 9071WAT     H127455   1.970   7.888   0.273
 9071WAT     H227456   2.001   7.756   0.181
 9072WAT      O27457   9.891   9.234   2.055
 9072WAT     H127458   9.916   9.224   1.958
 9072WAT     H227459   9.823   9.306   2.065
 9073WAT      O27460   2.461   4.721   4.614
 9073WAT     H127461   2.400   4.767   4.679
 9073WAT     H227462   2.544   4.692   4.661
 9074WAT      O27463   1.687   2.696   7.373
 9074WAT     H127464   1.597   2.699   7.329
 9074WAT     H227465   1.709   2.787   7.409
 9075WAT      O27466   2.029   2.650   9.344
 9075WAT     H127467   2.036   2.715   9.268
 9075WAT     H227468   2.121   2.621   9.372
 9076WAT      O27469   6.796   4.321   0.503
 9076WAT     H127470   6.836   4.232   0.524
 9076WAT     H227471   6.790   4.333   0.404
 9077WAT      O27472   0.399   9.014   9.715
 9077WAT     H127473   0.432   8.964   9.795
 9077WAT     H227474   0.423   8.963   9.632
 9078WAT      O27475   9.885   7.365   7.847
 9078WAT     H127476   9.809   7.418   7.811
 9078WAT     H227477   9.889   7.374   7.946
 9079WAT      O27478   1.002   0.627   4.567
 9079WAT     H127479   0.913   0.618   4.523
 9079WAT     H227480   1.023   0.723   4.582
 9080WAT      O27481   3.120   5.682   6.340
 9080WAT     H127482   3.113   5.780   6.361
 9080WAT     H227483   3.211   5.650   6.366
 9081WAT      O27484   6.545   5.305   1.759
 9081WAT     H127485   6.503   5.228   1.711
 9081WAT     H227486   6.575   5.374   1.693
 9082WAT      O27487   4.415   1.307   6.795
 9082WAT     H127488   4.384   1.369   6.722
 9082WAT     H227489   4.346   1.305   6.868
 9083WAT      O27490   2.693   7.257   9.747
 9083WAT     H127491   2.696   7.270   9.846
 9083WAT     H227492   2.709   7.344   9.702
 9084WAT      O27493   8.519   4.194   1.650
 9084WAT     H127494   8.616   4.215   1.654
 9084WAT     H227495   8.482   4.186   1.743
 9085WAT      O27496   3.165   4.414   3.060
 9085WAT     H127497   3.217   4.477   3.119
 9085WAT     H227498   3.080   4.389   3.106
 9086WAT      O27499   6.543   2.482   5.580
 9086WAT     H127500   6.456   2.441   5.607
 9086WAT     H227501   6.612   2.411   5.567
 9087WAT      O27502   1.859   9.671   7.000
 9087WAT     H127503   1.876   9.694   7.096
 9087WAT     H227504   1.803   9.588   6.996
 9088WAT      O27505   6.241   5.195   3.347
 9088WAT     H127506   6.193   5.107   3.340
 9088WAT     H227507   6.316   5.197   3.281
 9089WAT      O27508   5.003   3.042   5.873
 9089WAT     H127509   5.058   2.999   5.944
 9089WAT     H227510   5.054   3.119   5.833
 9090WAT      O27511   8.056   5.368   1.132
 9090WAT     H127512   7.976   5.427   1.146
 9090WAT     H227513   8.044   5.316   1.047
 9091WAT      O27514   6.869   3.549   9.436
 9091WAT     H127515   6.907   3.558   9.344
 9091WAT     H227516   6.804   3.624   9.452
 9092WAT      O27517   9.582   4.828   1.153
 9092WAT     H127518   9.592   4.921   1.117
 9092WAT     H227519   9.498   4.788   1.117
 9093WAT      O27520   1.344   3.562   5.782
 9093WAT     H127521   1.343   3.584   5.685
 9093WAT     H227522   1.415   3.493   5.800
 9094WAT      O27523   8.510   8.749   7.356
 9094WAT     H127524   8.598   8.720   7.394
 9094WAT     H227525   8.483   8.837   7.396
 9095WAT      O27526   2.097   4.521   5.863
 9095WAT     H127527   2.078   4.614   5.834
 9095WAT     H227528   2.163   4.479   5.800
 9096WAT      O27529   6.609   3.432   6.925
 9096WAT     H127530   6.573   3.507   6.980
 9096WAT     H227531   6.658   3.368   6.984
 9097WAT      O27532   9.636   1.139   6.819
 9097WAT     H127533   9.573   1.191   6.761
 9097WAT     H227534   9.587   1.061   6.859
 9098WAT      O27535   3.669   7.520   4.661
 9098WAT     H127536   3.615   7.488   4.739
 9098WAT     H227537   3.764   7.532   4.689
 9099WAT      O27538   6.613   1.647   8.774
 9099WAT     H127539   6.705   1.650   8.811
 9099WAT     H227540   6.610   1.696   8.687
 9100WAT      O27541   1.569   5.972   7.936
 9100WAT     H127542   1.482   5.958   7.982
 9100WAT     H227543   1.643   5.933   7.992
 9101WAT      O27544   5.556   4.076   2.828
 9101WAT     H127545   5.505   4.146   2.778
 9101WAT     H227546   5.536   3.986   2.789
 9102WAT      O27547   0.640   8.548   2.852
 9102WAT     H127548   0.708   8.587   2.789
 9102WAT     H227549   0.682   8.473   2.904
 9103WAT      O27550   3.837   5.735   0.444
 9103WAT     H127551   3.888   5.665   0.394
 9103WAT     H227552   3.765   5.773   0.385
 9104WAT      O27553   6.112   4.168   4.287
 9104WAT     H127554   6.050   4.243   4.266
 9104WAT     H227555   6.164   4.191   4.370
 9105WAT      O27556   3.962   7.667   3.816
 9105WAT     H127557   3.869   7.636   3.797
 9105WAT     H227558   4.024   7.589   3.820
 9106WAT      O27559   6.384   7.841   1.209
 9106WAT     H127560   6.462   7.782   1.231
 9106WAT     H227561   6.382   7.857   1.110
 9107WAT      O27562   4.191   8.177   4.170
 9107WAT     H127563   4.167   8.272   4.193
 9107WAT     H227564   4.125   8.140   4.106
 9108WAT      O27565   9.551   6.417   3.716
 9108WAT     H127566   9.614   6.396   3.791
 9108WAT     H227567   9.603   6.429   3.631
 9109WAT      O27568   3.656   3.075   4.093
 9109WAT     H127569   3.641   3.170   4.119
 9109WAT     H227570   3.579   3.019   4.125
 9110WAT      O27571   9.876   3.938   7.120
 9110WAT     H127572   9.872   3.839   7.105
 9110WAT     H227573   9.940   3.957   7.194
 9111WAT      O27574   1.170   7.824   6.162
 9111WAT     H127575   1.171   7.868   6.252
 9111WAT     H227576   1.170   7.725   6.173
 9112WAT      O27577   8.741   8.699   5.699
 9112WAT     H127578   8.726   8.798   5.705
 9112WAT     H227579   8.701   8.655   5.779
 9113WAT      O27580   4.119   7.162   1.379
 9113WAT     H127581   4.207   7.204   1.359
 9113WAT     H227582   4.105   7.157   1.478
 9114WAT      O27583   9.809   0.949   0.425
 9114WAT     H127584   9.881   0.931   0.358
 9114WAT     H227585   9.758   0.865   0.443
 9115WAT      O27586   9.480   7.840   7.731
 9115WAT     H127587   9.474   7.885   7.820
 9115WAT     H227588   9.560   7.876   7.682
 9116WAT      O27589   5.878   7.620   6.167
 9116WAT     H127590   5.918   7.530   6.155
 9116WAT     H227591   5.941   7.678   6.219
 9117WAT      O27592   8.367   6.873   0.074
 9117WAT     H127593   8.419   6.826   0.146
 9117WAT     H227594   8.339   6.963   0.106
 9118WAT      O27595   3.314   6.973   0.209
 9118WAT     H127596   3.309   6.921   0.124
 9118WAT     H227597   3.249   6.935   0.275
 9119WAT      O27598   4.677   2.125   5.418
 9119WAT     H127599   4.626   2.190   5.475
 9119WAT     H227600   4.713   2.172   5.338
 9120WAT      O27601   4.272   8.873   2.972
 9120WAT     H127602   4.206   8.922   3.029
 9120WAT     H227603   4.361   8.871   3.019
 9121WAT      O27604   2.595   7.342   3.536
 9121WAT     H127605   2.628   7.427   3.576
 9121WAT     H227606   2.651   7.265   3.567
 9122WAT      O27607   0.939   6.138   6.272
 9122WAT     H127608   0.852   6.108   6.233
 9122WAT     H227609   0.930   6.232   6.304
 9123WAT      O27610   4.951   5.809   3.724
 9123WAT     H127611   4.919   5.731   3.670
 9123WAT     H227612   5.002   5.872   3.665
 9124WAT      O27613   1.539   7.754   1.176
 9124WAT     H127614   1.612   7.810   1.137
 9124WAT     H227615   1.547   7.660   1.143
 9125WAT      O27616   4.281   0.518   9.764
 9125WAT     H127617   4.318   0.608   9.787
 9125WAT     H227618   4.262   0.467   9.848
 9126WAT      O27619   8.273   9.692   9.534
 9126WAT     H127620   8.201   9.623   9.539
 9126WAT     H227621   8.354   9.660   9.584
 9127WAT      O27622   1.212   8.939   7.539
 9127WAT     H127623   1.290   8.958   7.598
 9127WAT     H227624   1.133   8.912   7.594
 9128WAT      O27625   8.883   2.704   0.543
 9128WAT     H127626   8.869   2.611   0.509
 9128WAT     H227627   8.882   2.704   0.643
 9129WAT      O27628   1.383   1.639   5.633
 9129WAT     H127629   1.474   1.672   5.607
 9129WAT     H227630   1.358   1.562   5.574
 9130WAT      O27631   6.631   5.480   6.254
 9130WAT     H127632   6.676   5.567   6.274
 9130WAT     H227633   6.683   5.405   6.295
 9131WAT      O27634   8.234   1.792   7.421
 9131WAT     H127635   8.319   1.786   7.473
 9131WAT     H227636   8.160   1.818   7.483
 9132WAT      O27637   2.783   1.731   3.530
 9132WAT     H127638   2.719   1.670   3.575
 9132WAT     H227639   2.799   1.699   3.436
 9133WAT      O27640   1.869   3.144   3.541
 9133WAT     H127641   1.775   3.114   3.523
 9133WAT     H227642   1.883   3.156   3.639
 9134WAT      O27643   4.279   0.372   7.466
 9134WAT     H127644   4.368   0.406   7.436
 9134WAT     H227645   4.286   0.339   7.560
 9135WAT      O27646   3.130   8.224   0.928
 9135WAT     H127647   3.169   8.292   0.867
 9135WAT     H227648   3.033   8.212   0.909
 9136WAT      O27649   5.345   7.029   8.912
 9136WAT     H127650   5.357   7.018   8.814
 9136WAT     H227651   5.263   7.084   8.930
 9137WAT      O27652   6.635   7.450   8.931
 9137WAT     H127653   6.655   7.500   9.015
 9137WAT     H227654   6.545   7.477   8.896
 9138WAT      O27655   3.646   6.458   7.301
 9138WAT     H127656   3.615   6.365   7.283
 9138WAT     H227657   3.700   6.491   7.223
 9139WAT      O27658   1.194   0.603   2.557
 9139WAT     H127659   1.188   0.701   2.576
 9139WAT     H227660   1.101   0.565   2.548
 9140WAT      O27661   5.670   8.702   3.197
 9140WAT     H127662   5.637   8.797   3.204
 9140WAT     H227663   5.622   8.645   3.264
 9141WAT      O27664   6.386   9.123   2.840
 9141WAT     H127665   6.471   9.173   2.859
 9141WAT     H227666   6.366   9.127   2.743
 9142WAT      O27667   3.293   4.744   4.053
 9142WAT     H127668   3.294   4.648   4.024
 9142WAT     H227669   3.239   4.752   4.137
 9143WAT      O27670   7.349   7.037   0.241
 9143WAT     H127671   7.389   7.093   0.313
 9143WAT     H227672   7.418   6.975   0.204
 9144WAT      O27673   6.417   0.687   3.440
 9144WAT     H127674   6.474   0.751   3.388
 9144WAT     H227675   6.474   0.639   3.507
 9145WAT      O27676   8.263   4.028   2.215
 9145WAT     H127677   8.345   4.005   2.266
 9145WAT     H227678   8.211   3.945   2.195
 9146WAT      O27679   5.108   0.954   7.148
 9146WAT     H127680   5.125   1.011   7.068
 9146WAT     H227681   5.070   0.866   7.120
 9147WAT      O27682   4.512   7.322   3.817
 9147WAT     H127683   4.587   7.301   3.754
 9147WAT     H227684   4.458   7.397   3.779
 9148WAT      O27685   8.891   2.170   8.476
 9148WAT     H127686   8.961   2.214   8.419
 9148WAT     H227687   8.925   2.162   8.569
 9149WAT      O27688   3.585   5.006   4.518
 9149WAT     H127689   3.607   4.960   4.605
 9149WAT     H227690   3.493   5.043   4.522
 9150WAT      O27691   7.149   3.566   3.935
 9150WAT     H127692   7.094   3.504   3.880
 9150WAT     H227693   7.246   3.549   3.917
 9151WAT      O27694   9.275   4.643   0.343
 9151WAT     H127695   9.279   4.630   0.442
 9151WAT     H227696   9.215   4.722   0.323
 9152WAT      O27697   2.638   2.757   5.244
 9152WAT     H127698   2.555   2.703   5.252
 9152WAT     H227699   2.668   2.758   5.148
 9153WAT      O27700   3.904   6.411   0.554
 9153WAT     H127701   4.003   6.400   0.540
 9153WAT     H227702   3.886   6.498   0.599
 9154WAT      O27703   0.039   7.726   9.622
 9154WAT     H127704  -0.010   7.641   9.641
 9154WAT     H227705   0.138   7.711   9.632
 9155WAT      O27706   3.253   5.036   2.506
 9155WAT     H127707   3.316   4.996   2.573
 9155WAT     H227708   3.297   5.116   2.463
 9156WAT      O27709   3.759   9.049   5.225
 9156WAT     H127710   3.675   9.100   5.203
 9156WAT     H227711   3.756   9.019   5.320
 9157WAT      O27712   3.812   8.122   7.187
 9157WAT     H127713   3.843   8.171   7.269
 9157WAT     H227714   3.777   8.188   7.121
 9158WAT      O27715   5.455   9.249   1.504
 9158WAT     H127716   5.379   9.301   1.545
 9158WAT     H227717   5.517   9.219   1.577
 9159WAT      O27718   3.525   4.789   4.308
 9159WAT     H127719   3.584   4.860   4.347
 9159WAT     H227720   3.463   4.831   4.241
 9160WAT      O27721   0.894   9.695   6.095
 9160WAT     H127722   0.886   9.662   6.189
 9160WAT     H227723   0.949   9.631   6.042
 9161WAT      O27724   6.423   6.582   2.402
 9161WAT     H127725   6.507   6.568   2.350
 9161WAT     H227726   6.408   6.680   2.415
 9162WAT      O27727   1.250   1.830   5.802
 9162WAT     H127728   1.289   1.763   5.739
 9162WAT     H227729   1.274   1.922   5.773
 9163WAT      O27730   0.836   9.805   2.897
 9163WAT     H127731   0.883   9.758   2.971
 9163WAT     H227732   0.869   9.900   2.892
 9164WAT      O27733   7.883   4.312   2.136
 9164WAT     H127734   7.822   4.389   2.118
 9164WAT     H227735   7.927   4.326   2.226
 9165WAT      O27736   5.819   6.701   1.542
 9165WAT     H127737   5.811   6.783   1.598
 9165WAT     H227738   5.767   6.627   1.585
 9166WAT      O27739   6.423   7.571   6.599
 9166WAT     H127740   6.405   7.555   6.696
 9166WAT     H227741   6.397   7.490   6.546
 9167WAT      O27742   1.062   6.704   1.107
 9167WAT     H127743   0.998   6.767   1.064
 9167WAT     H227744   1.013   6.647   1.174
 9168WAT      O27745   0.664   2.076   5.683
 9168WAT     H127746   0.735   2.008   5.704
 9168WAT     H227747   0.615   2.048   5.601
 9169WAT      O27748   8.453   0.822   1.446
 9169WAT     H127749   8.511   0.743   1.428
 9169WAT     H227750   8.497   0.905   1.411
 9170WAT      O27751   1.636   0.828   9.490
 9170WAT     H127752   1.614   0.921   9.519
 9170WAT     H227753   1.714   0.794   9.541
 9171WAT      O27754   5.886   9.289   7.474
 9171WAT     H127755   5.950   9.216   7.451
 9171WAT     H227756   5.845   9.325   7.390
 9172WAT      O27757   8.757   1.656   8.723
 9172WAT     H127758   8.791   1.701   8.640
 9172WAT     H227759   8.782   1.711   8.803
 9173WAT      O27760   2.804   5.613   7.209
 9173WAT     H127761   2.843   5.557   7.282
 9173WAT     H227762   2.814   5.710   7.233
 9174WAT      O27763   6.959   4.056   1.556
 9174WAT     H127764   7.043   4.021   1.597
 9174WAT     H227765   6.944   4.151   1.584
 9175WAT      O27766   8.277   8.179   1.698
 9175WAT     H127767   8.361   8.185   1.644
 9175WAT     H227768   8.202   8.222   1.647
 9176WAT      O27769   8.728   8.130   8.933
 9176WAT     H127770   8.661   8.095   8.868
 9176WAT     H227771   8.815   8.084   8.921
 9177WAT      O27772   8.230   7.955   6.255
 9177WAT     H127773   8.136   7.923   6.263
 9177WAT     H227774   8.250   8.020   6.329
 9178WAT      O27775   5.047   5.142   5.201
 9178WAT     H127776   5.008   5.228   5.234
 9178WAT     H227777   4.972   5.078   5.180
 9179WAT      O27778   1.945   8.194   7.862
 9179WAT     H127779   1.880   8.131   7.905
 9179WAT     H227780   1.959   8.167   7.767
 9180WAT      O27781   8.970   3.225   3.513
 9180WAT     H127782   9.054   3.191   3.556
 9180WAT     H227783   8.990   3.259   3.421
 9181WAT      O27784   3.434   7.411   9.765
 9181WAT     H127785   3.463   7.428   9.671
 9181WAT     H227786   3.515   7.395   9.822
 9182WAT      O27787   9.641   9.346   0.570
 9182WAT     H127788   9.625   9.265   0.513
 9182WAT     H227789   9.727   9.335   0.620
 9183WAT      O27790   4.608   4.883   4.130
 9183WAT     H127791   4.547   4.940   4.185
 9183WAT     H227792   4.699   4.925   4.125
 9184WAT      O27793   9.840   0.034   6.536
 9184WAT     H127794   9.886   0.118   6.509
 9184WAT     H227795   9.800   0.046   6.627
 9185WAT      O27796   6.865   3.614   4.385
 9185WAT     H127797   6.808   3.532   4.393
 9185WAT     H227798   6.814   3.685   4.337
 9186WAT      O27799   0.906   8.719   2.870
 9186WAT     H127800   0.862   8.712   2.960
 9186WAT     H227801   0.971   8.794   2.870
 9187WAT      O27802   9.639   4.438   5.709
 9187WAT     H127803   9.678   4.387   5.633
 9187WAT     H227804   9.579   4.510   5.674
 9188WAT      O27805   3.606   7.826   5.101
 9188WAT     H127806   3.537   7.874   5.046
 9188WAT     H227807   3.689   7.815   5.047
 9189WAT      O27808   6.734   2.310   5.550
 9189WAT     H127809   6.826   2.348   5.544
 9189WAT     H227810   6.730   2.246   5.627
 9190WAT      O27811   3.854   2.562   9.535
 9190WAT     H127812   3.928   2.624   9.511
 9190WAT     H227813   3.866   2.475   9.487
 9191WAT      O27814   7.381   3.155   3.130
 9191WAT     H127815   7.451   3.202   3.182
 9191WAT     H227816   7.290   3.178   3.166
 9192WAT      O27817   8.906   4.579   5.428
 9192WAT     H127818   8.986   4.528   5.394
 9192WAT     H227819   8.823   4.540   5.389
 9193WAT      O27820   5.345   3.708   3.164
 9193WAT     H127821   5.407   3.632   3.143
 9193WAT     H227822   5.262   3.699   3.110
 9194WAT      O27823   7.771   6.833   1.930
 9194WAT     H127824   7.798   6.914   1.879
 9194WAT     H227825   7.673   6.817   1.919
 9195WAT      O27826   2.202   3.836   2.488
 9195WAT     H127827   2.155   3.883   2.563
 9195WAT     H227828   2.301   3.846   2.500
 9196WAT      O27829   5.568   4.742   6.710
 9196WAT     H127830   5.489   4.784   6.665
 9196WAT     H227831   5.573   4.645   6.685
 9197WAT      O27832   7.187   5.060   0.851
 9197WAT     H127833   7.204   5.072   0.949
 9197WAT     H227834   7.093   5.029   0.837
 9198WAT      O27835   3.586   5.601   9.398
 9198WAT     H127836   3.608   5.512   9.439
 9198WAT     H227837   3.487   5.610   9.389
 9199WAT      O27838   8.818   2.485   1.975
 9199WAT     H127839   8.744   2.529   2.026
 9199WAT     H227840   8.811   2.509   1.878
 9200WAT      O27841   1.107   1.056   9.820
 9200WAT     H127842   1.057   1.127   9.770
 9200WAT     H227843   1.127   1.088   9.913
 9201WAT      O27844   2.643   0.771   5.600
 9201WAT     H127845   2.602   0.813   5.680
 9201WAT     H227846   2.678   0.842   5.538
 9202WAT      O27847   1.911   3.752   2.948
 9202WAT     H127848   1.814   3.741   2.924
 9202WAT     H227849   1.935   3.685   3.018
 9203WAT      O27850   7.709   7.892   2.671
 9203WAT     H127851   7.759   7.925   2.751
 9203WAT     H227852   7.617   7.865   2.698
 9204WAT      O27853   4.599   1.743   0.035
 9204WAT     H127854   4.680   1.784  -0.006
 9204WAT     H227855   4.568   1.667  -0.022
 9205WAT      O27856   0.540   9.564   0.045
 9205WAT     H127857   0.567   9.469   0.036
 9205WAT     H227858   0.481   9.590  -0.032
 9206WAT      O27859   2.275   4.468   2.119
 9206WAT     H127860   2.215   4.402   2.074
 9206WAT     H227861   2.338   4.506   2.051
 9207WAT      O27862   7.261   0.704   2.431
 9207WAT     H127863   7.252   0.610   2.463
 9207WAT     H227864   7.303   0.705   2.341
 9208WAT      O27865   5.253   2.030   8.085
 9208WAT     H127866   5.221   2.036   7.991
 9208WAT     H227867   5.250   2.121   8.127
 9209WAT      O27868   7.205   1.293   8.158
 9209WAT     H127869   7.259   1.210   8.172
 9209WAT     H227870   7.174   1.297   8.063
 9210WAT      O27871   8.279   4.431   4.888
 9210WAT     H127872   8.203   4.373   4.916
 9210WAT     H227873   8.279   4.440   4.788
 9211WAT      O27874   9.132   3.186   9.436
 9211WAT     H127875   9.118   3.185   9.337
 9211WAT     H227876   9.108   3.097   9.474
 9212WAT      O27877   1.197   8.199   9.389
 9212WAT     H127878   1.174   8.221   9.483
 9212WAT     H227879   1.142   8.122   9.358
 9213WAT      O27880   8.222   4.839   1.020
 9213WAT     H127881   8.225   4.827   1.119
 9213WAT     H227882   8.283   4.773   0.976
 9214WAT      O27883   2.181   6.226   4.159
 9214WAT     H127884   2.193   6.288   4.081
 9214WAT     H227885   2.083   6.208   4.171
 9215WAT      O27886   2.004   8.629   1.391
 9215WAT     H127887   2.088   8.632   1.447
 9215WAT     H227888   1.962   8.719   1.390
 9216WAT      O27889   4.699   4.830   8.909
 9216WAT     H127890   4.742   4.832   8.819
 9216WAT     H227891   4.702   4.922   8.949
 9217WAT      O27892   4.028   1.818   2.116
 9217WAT     H127893   4.031   1.773   2.027
 9217WAT     H227894   4.110   1.795   2.168
 9218WAT      O27895   3.926   6.882   7.391
 9218WAT     H127896   4.000   6.819   7.415
 9218WAT     H227897   3.841   6.851   7.435
 9219WAT      O27898   3.832   5.966   4.792
 9219WAT     H127899   3.873   6.048   4.832
 9219WAT     H227900   3.809   5.983   4.696
 9220WAT      O27901   0.386   7.714   0.636
 9220WAT     H127902   0.462   7.774   0.610
 9220WAT     H227903   0.355   7.661   0.557
 9221WAT      O27904   3.838   6.635   0.681
 9221WAT     H127905   3.749   6.678   0.698
 9221WAT     H227906   3.874   6.598   0.766
 9222WAT      O27907   4.257   7.881   2.794
 9222WAT     H127908   4.262   7.789   2.756
 9222WAT     H227909   4.349   7.911   2.821
 9223WAT      O27910   2.535   2.936   2.800
 9223WAT     H127911   2.575   2.875   2.869
 9223WAT     H227912   2.568   3.029   2.813
 9224WAT      O27913   1.201   8.252   0.736
 9224WAT     H127914   1.225   8.166   0.691
 9224WAT     H227915   1.189   8.237   0.834
 9225WAT      O27916   5.177   3.893   0.598
 9225WAT     H127917   5.141   3.937   0.516
 9225WAT     H227918   5.108   3.898   0.671
 9226WAT      O27919   4.170   8.738   4.909
 9226WAT     H127920   4.210   8.712   4.997
 9226WAT     H227921   4.139   8.832   4.913
 9227WAT      O27922   8.882   2.226   0.597
 9227WAT     H127923   8.917   2.234   0.691
 9227WAT     H227924   8.860   2.131   0.577
 9228WAT      O27925   8.685   0.845   3.289
 9228WAT     H127926   8.718   0.829   3.382
 9228WAT     H227927   8.755   0.894   3.237
 9229WAT      O27928   8.879   2.203   9.262
 9229WAT     H127929   8.879   2.269   9.338
 9229WAT     H227930   8.834   2.119   9.291
 9230WAT      O27931   6.990   2.547   0.674
 9230WAT     H127932   7.036   2.465   0.638
 9230WAT     H227933   7.019   2.563   0.768
 9231WAT      O27934   9.762   0.586   7.685
 9231WAT     H127935   9.742   0.497   7.643
 9231WAT     H227936   9.828   0.575   7.759
 9232WAT      O27937   4.186   0.909   5.335
 9232WAT     H127938   4.165   0.960   5.251
 9232WAT     H227939   4.102   0.893   5.386
 9233WAT      O27940   9.331   8.839   7.159
 9233WAT     H127941   9.346   8.912   7.093
 9233WAT     H227942   9.271   8.769   7.118
 9234WAT      O27943   9.097   6.720   9.601
 9234WAT     H127944   9.039   6.788   9.557
 9234WAT     H227945   9.186   6.761   9.623
 9235WAT      O27946   1.106   6.011   3.009
 9235WAT     H127947   1.070   6.082   3.069
 9235WAT     H227948   1.051   5.928   3.019
 9236WAT      O27949   6.662   3.013   1.014
 9236WAT     H127950   6.684   3.029   0.918
 9236WAT     H227951   6.638   3.100   1.058
 9237WAT      O27952   2.373   8.654   3.447
 9237WAT     H127953   2.348   8.749   3.430
 9237WAT     H227954   2.367   8.634   3.544
 9238WAT      O27955   7.462   6.083   3.790
 9238WAT     H127956   7.515   6.092   3.874
 9238WAT     H227957   7.524   6.074   3.712
 9239WAT      O27958   5.193   5.422   4.038
 9239WAT     H127959   5.293   5.432   4.034
 9239WAT     H227960   5.149   5.503   4.000
 9240WAT      O27961   7.127   5.020   3.385
 9240WAT     H127962   7.159   5.103   3.338
 9240WAT     H227963   7.044   5.041   3.437
 9241WAT      O27964   2.224   5.531   6.003
 9241WAT     H127965   2.171   5.448   6.022
 9241WAT     H227966   2.226   5.547   5.904
 9242WAT      O27967   2.979   0.173   4.706
 9242WAT     H127968   3.052   0.106   4.689
 9242WAT     H227969   2.974   0.191   4.805
 9243WAT      O27970   8.010   5.786   5.717
 9243WAT     H127971   7.975   5.879   5.724
 9243WAT     H227972   8.106   5.788   5.692
 9244WAT      O27973   7.847   8.267   4.203
 9244WAT     H127974   7.804   8.313   4.281
 9244WAT     H227975   7.787   8.192   4.172
 9245WAT      O27976   4.010   5.413   2.447
 9245WAT     H127977   3.933   5.360   2.481
 9245WAT     H227978   3.995   5.510   2.465
 9246WAT      O27979   8.825   6.448   8.901
 9246WAT     H127980   8.823   6.440   9.000
 9246WAT     H227981   8.911   6.413   8.865
 9247WAT      O27982   5.274   2.940   5.694
 9247WAT     H127983   5.212   2.889   5.635
 9247WAT     H227984   5.226   3.017   5.735
 9248WAT      O27985   1.743   0.512   9.195
 9248WAT     H127986   1.769   0.491   9.289
 9248WAT     H227987   1.646   0.495   9.182
 9249WAT      O27988   1.843   8.713   5.324
 9249WAT     H127989   1.859   8.765   5.240
 9249WAT     H227990   1.748   8.726   5.354
 9250WAT      O27991   9.783   1.425   7.097
 9250WAT     H127992   9.801   1.383   7.007
 9250WAT     H227993   9.852   1.393   7.162
 9251WAT      O27994   1.467   6.616   3.806
 9251WAT     H127995   1.464   6.579   3.899
 9251WAT     H227996   1.510   6.706   3.808
 9252WAT      O27997   7.293   3.215   8.758
 9252WAT     H127998   7.366   3.235   8.692
 9252WAT     H227999   7.331   3.165   8.835
 9253WAT      O28000   8.826   7.296   8.214
 9253WAT     H128001   8.789   7.329   8.301
 9253WAT     H228002   8.826   7.371   8.147
 9254WAT      O28003   5.768   2.644   4.732
 9254WAT     H128004   5.773   2.653   4.633
 9254WAT     H228005   5.775   2.734   4.774
 9255WAT      O28006   9.635   7.175   6.341
 9255WAT     H128007   9.665   7.082   6.365
 9255WAT     H228008   9.647   7.235   6.420
 9256WAT      O28009   7.709   5.813   3.567
 9256WAT     H128010   7.756   5.748   3.625
 9256WAT     H228011   7.764   5.832   3.486
 9257WAT      O28012   3.431   5.424   7.872
 9257WAT     H128013   3.377   5.502   7.903
 9257WAT     H228014   3.400   5.396   7.781
 9258WAT      O28015   9.877   1.657   2.705
 9258WAT     H128016   9.958   1.715   2.694
 9258WAT     H228017   9.861   1.639   2.802
 9259WAT      O28018   9.877   1.475   8.991
 9259WAT     H128019   9.802   1.539   8.975
 9259WAT     H228020   9.954   1.523   9.033
 9260WAT      O28021   3.602   1.128   9.562
 9260WAT     H128022   3.522   1.164   9.513
 9260WAT     H228023   3.584   1.035   9.591
 9261WAT      O28024   2.803   0.529   1.890
 9261WAT     H128025   2.860   0.472   1.949
 9261WAT     H228026   2.767   0.606   1.943
 9262WAT      O28027   5.918   5.648   1.642
 9262WAT     H128028   5.996   5.586   1.656
 9262WAT     H228029   5.869   5.622   1.559
 9263WAT      O28030   6.248   0.773   7.050
 9263WAT     H128031   6.161   0.808   7.083
 9263WAT     H228032   6.240   0.745   6.955
 9264WAT      O28033   3.818   5.695   9.127
 9264WAT     H128034   3.722   5.684   9.102
 9264WAT     H228035   3.836   5.648   9.214
 9265WAT      O28036   6.642   2.688   0.783
 9265WAT     H128037   6.666   2.764   0.723
 9265WAT     H228038   6.721   2.665   0.840
 9266WAT      O28039   1.359   1.761   0.416
 9266WAT     H128040   1.302   1.842   0.398
 9266WAT     H228041   1.305   1.678   0.403
 9267WAT      O28042   4.713   2.850   5.180
 9267WAT     H128043   4.737   2.784   5.250
 9267WAT     H228044   4.788   2.916   5.169
 9268WAT      O28045   2.428   4.364   1.596
 9268WAT     H128046   2.441   4.439   1.531
 9268WAT     H228047   2.488   4.288   1.573
 9269WAT      O28048   5.333   6.052   2.748
 9269WAT     H128049   5.420   6.092   2.777
 9269WAT     H228050   5.260   6.119   2.761
 9270WAT      O28051   2.724   3.591   2.281
 9270WAT     H128052   2.758   3.546   2.364
 9270WAT     H228053   2.626   3.609   2.290
 9271WAT      O28054   7.383   3.034   3.671
 9271WAT     H128055   7.375   2.961   3.739
 9271WAT     H228056   7.313   3.023   3.601
 9272WAT      O28057   2.547   0.549   7.045
 9272WAT     H128058   2.523   0.640   7.013
 9272WAT     H228059   2.520   0.481   6.977
 9273WAT      O28060   4.578   1.177   5.966
 9273WAT     H128061   4.520   1.095   5.968
 9273WAT     H228062   4.529   1.251   5.919
 9274WAT      O28063   4.686   5.652   9.408
 9274WAT     H128064   4.768   5.597   9.419
 9274WAT     H228065   4.652   5.643   9.315
 9275WAT      O28066   4.230   6.957   4.010
 9275WAT     H128067   4.235   7.001   3.921
 9275WAT     H228068   4.211   7.025   4.080
 9276WAT      O28069   3.827   4.536   5.808
 9276WAT     H128070   3.829   4.610   5.876
 9276WAT     H228071   3.790   4.453   5.850
 9277WAT      O28072   9.165   6.516   0.223
 9277WAT     H128073   9.249   6.568   0.207
 9277WAT     H228074   9.169   6.472   0.312
 9278WAT      O28075   5.742   3.696   9.590
 9278WAT     H128076   5.772   3.601   9.594
 9278WAT     H228077   5.691   3.719   9.672
 9279WAT      O28078   0.601   6.751   3.470
 9279WAT     H128079   0.650   6.808   3.405
 9279WAT     H228080   0.550   6.809   3.534
 9280WAT      O28081   5.047   8.602   1.827
 9280WAT     H128082   5.078   8.666   1.756
 9280WAT     H228083   5.023   8.515   1.785
 9281WAT      O28084   6.124   8.744   2.690
 9281WAT     H128085   6.040   8.702   2.654
 9281WAT     H228086   6.162   8.686   2.762
 9282WAT      O28087   7.584   2.400   6.023
 9282WAT     H128088   7.519   2.363   5.957
 9282WAT     H228089   7.570   2.356   6.112
 9283WAT      O28090   8.569   3.660   8.228
 9283WAT     H128091   8.603   3.750   8.200
 9283WAT     H228092   8.614   3.632   8.313
 9284WAT      O28093   5.124   0.231   0.266
 9284WAT     H128094   5.072   0.205   0.347
 9284WAT     H228095   5.128   0.154   0.202
 9285WAT      O28096   7.172   5.504   5.126
 9285WAT     H128097   7.205   5.594   5.098
 9285WAT     H228098   7.163   5.445   5.047
 9286WAT      O28099   1.093   9.663   1.524
 9286WAT     H128100   1.030   9.713   1.466
 9286WAT     H228101   1.185   9.700   1.514
 9287WAT      O28102   8.420   3.170   8.536
 9287WAT     H128103   8.336   3.212   8.501
 9287WAT     H228104   8.405   3.073   8.552
 9288WAT      O28105   5.833   1.806   1.768
 9288WAT     H128106   5.840   1.863   1.686
 9288WAT     H228107   5.895   1.841   1.838
 9289WAT      O28108   6.934   3.093   3.971
 9289WAT     H128109   6.927   3.093   3.871
 9289WAT     H228110   6.981   3.176   4.000
 9290WAT      O28111   3.597   0.840   4.643
 9290WAT     H128112   3.500   0.858   4.631
 9290WAT     H228113   3.649   0.888   4.572
 9291WAT      O28114   3.290   9.061   2.429
 9291WAT     H128115   3.204   9.041   2.382
 9291WAT     H228116   3.290   9.016   2.518
 9292WAT      O28117   4.608   1.852   7.444
 9292WAT     H128118   4.633   1.808   7.529
 9292WAT     H228119   4.530   1.805   7.403
 9293WAT      O28120   1.235   0.122   2.085
 9293WAT     H128121   1.228   0.164   1.994
 9293WAT     H228122   1.320   0.070   2.091
 9294WAT      O28123   9.081   3.513   6.622
 9294WAT     H128124   9.158   3.525   6.685
 9294WAT     H228125   9.104   3.443   6.555
 9295WAT      O28126   8.859   8.206   1.927
 9295WAT     H128127   8.936   8.262   1.957
 9295WAT     H228128   8.774   8.242   1.964
 9296WAT      O28129   3.912   8.690   7.134
 9296WAT     H128130   3.894   8.666   7.038
 9296WAT     H228131   3.858   8.632   7.194
 9297WAT      O28132   7.170   6.037   6.349
 9297WAT     H128133   7.164   6.106   6.277
 9297WAT     H228134   7.183   5.947   6.308
 9298WAT      O28135   2.993   6.886   4.087
 9298WAT     H128136   2.900   6.910   4.060
 9298WAT     H228137   3.049   6.872   4.006
 9299WAT      O28138   0.777   2.007   4.272
 9299WAT     H128139   0.793   1.910   4.253
 9299WAT     H228140   0.684   2.032   4.246
 9300WAT      O28141   8.849   2.657   4.882
 9300WAT     H128142   8.765   2.684   4.929
 9300WAT     H228143   8.826   2.608   4.798
 9301WAT      O28144   0.664   3.928   8.786
 9301WAT     H128145   0.569   3.921   8.757
 9301WAT     H228146   0.710   3.840   8.769
 9302WAT      O28147   5.864   9.139   1.533
 9302WAT     H128148   5.863   9.039   1.521
 9302WAT     H228149   5.909   9.182   1.455
 9303WAT      O28150   2.371   8.801   6.633
 9303WAT     H128151   2.292   8.862   6.634
 9303WAT     H228152   2.377   8.752   6.720
 9304WAT      O28153   5.859   7.445   6.455
 9304WAT     H128154   5.867   7.484   6.546
 9304WAT     H228155   5.763   7.445   6.426
 9305WAT      O28156   0.739   9.436   8.179
 9305WAT     H128157   0.789   9.390   8.253
 9305WAT     H228158   0.676   9.503   8.218
 9306WAT      O28159   2.631   4.648   5.640
 9306WAT     H128160   2.605   4.733   5.594
 9306WAT     H228161   2.637   4.664   5.738
 9307WAT      O28162   6.693   7.341   3.770
 9307WAT     H128163   6.765   7.353   3.703
 9307WAT     H228164   6.728   7.360   3.862
 9308WAT      O28165   5.906  -0.002   3.324
 9308WAT     H128166   5.936  -0.025   3.417
 9308WAT     H228167   5.956   0.078   3.292
 9309WAT      O28168   3.071   5.908   8.817
 9309WAT     H128169   3.014   5.990   8.819
 9309WAT     H228170   3.166   5.934   8.833
 9310WAT      O28171   1.589   4.137   3.877
 9310WAT     H128172   1.683   4.111   3.901
 9310WAT     H228173   1.525   4.070   3.915
 9311WAT      O28174   2.627   8.596   8.626
 9311WAT     H128175   2.664   8.551   8.707
 9311WAT     H228176   2.681   8.678   8.606
 9312WAT      O28177   8.072   3.924   1.683
 9312WAT     H128178   8.140   3.853   1.702
 9312WAT     H228179   8.115   4.014   1.694
 9313WAT      O28180   3.430   0.738   2.429
 9313WAT     H128181   3.473   0.795   2.499
 9313WAT     H228182   3.497   0.672   2.394
 9314WAT      O28183   7.611   3.774   1.860
 9314WAT     H128184   7.523   3.736   1.890
 9314WAT     H228185   7.674   3.777   1.938
 9315WAT      O28186   0.423   4.132   9.186
 9315WAT     H128187   0.323   4.124   9.185
 9315WAT     H228188   0.449   4.221   9.149
 9316WAT      O28189   5.247   5.045   3.917
 9316WAT     H128190   5.177   4.975   3.931
 9316WAT     H228191   5.229   5.094   3.832
 9317WAT      O28192   0.662   3.492   1.542
 9317WAT     H128193   0.680   3.397   1.565
 9317WAT     H228194   0.691   3.510   1.448
 9318WAT      O28195   4.450   1.825   8.373
 9318WAT     H128196   4.421   1.845   8.467
 9318WAT     H228197   4.412   1.738   8.344
 9319WAT      O28198   8.524   8.187   0.391
 9319WAT     H128199   8.547   8.118   0.460
 9319WAT     H228200   8.598   8.254   0.386
 9320WAT      O28201   4.787   7.467   0.734
 9320WAT     H128202   4.864   7.527   0.755
 9320WAT     H228203   4.803   7.422   0.646
 9321WAT      O28204   8.015   3.309   2.134
 9321WAT     H128205   8.086   3.317   2.064
 9321WAT     H228206   7.965   3.395   2.139
 9322WAT      O28207   4.217   6.045   4.639
 9322WAT     H128208   4.284   6.008   4.703
 9322WAT     H228209   4.231   6.005   4.548
 9323WAT      O28210   4.099   7.689   0.470
 9323WAT     H128211   4.160   7.739   0.532
 9323WAT     H228212   4.148   7.664   0.387
 9324WAT      O28213   1.177   7.615   6.467
 9324WAT     H128214   1.241   7.539   6.471
 9324WAT     H228215   1.199   7.682   6.538
 9325WAT      O28216   4.722   4.618   3.047
 9325WAT     H128217   4.757   4.571   2.965
 9325WAT     H228218   4.662   4.557   3.097
 9326WAT      O28219   0.527   0.213   2.283
 9326WAT     H128220   0.457   0.154   2.321
 9326WAT     H228221   0.484   0.290   2.235
 9327WAT      O28222   7.879   9.245   3.559
 9327WAT     H128223   7.824   9.328   3.550
 9327WAT     H228224   7.851   9.196   3.642
 9328WAT      O28225   7.768   0.563   2.608
 9328WAT     H128226   7.856   0.567   2.561
 9328WAT     H228227   7.694   0.582   2.543
 9329WAT      O28228   0.863   8.243   8.728
 9329WAT     H128229   0.839   8.301   8.806
 9329WAT     H228230   0.955   8.267   8.695
 9330WAT      O28231   3.403   4.449   7.290
 9330WAT     H128232   3.445   4.367   7.250
 9330WAT     H228233   3.372   4.509   7.216
 9331WAT      O28234   5.933   3.596   0.546
 9331WAT     H128235   5.979   3.540   0.615
 9331WAT     H228236   5.999   3.629   0.479
 9332WAT      O28237   8.488   5.005   0.087
 9332WAT     H128238   8.529   4.918   0.058
 9332WAT     H228239   8.522   5.079   0.028
 9333WAT      O28240   1.230   0.214   6.952
 9333WAT     H128241   1.327   0.235   6.945
 9333WAT     H228242   1.178   0.281   6.898
 9334WAT      O28243   8.605   2.405   7.458
 9334WAT     H128244   8.613   2.443   7.366
 9334WAT     H228245   8.611   2.305   7.453
 9335WAT      O28246   8.602   9.779   5.086
 9335WAT     H128247   8.676   9.844   5.070
 9335WAT     H228248   8.640   9.688   5.104
 9336WAT      O28249   0.979   2.831   9.503
 9336WAT     H128250   1.034   2.795   9.428
 9336WAT     H228251   1.015   2.797   9.590
 9337WAT      O28252   3.442   8.443   5.460
 9337WAT     H128253   3.445   8.460   5.362
 9337WAT     H228254   3.349   8.418   5.487
 9338WAT      O28255   8.319   5.821   0.718
 9338WAT     H128256   8.223   5.796   0.709
 9338WAT     H228257   8.376   5.750   0.676
 9339WAT      O28258   9.063   4.634   4.300
 9339WAT     H128259   9.116   4.571   4.243
 9339WAT     H228260   9.004   4.581   4.361
 9340WAT      O28261   0.389   5.911   8.992
 9340WAT     H128262   0.316   5.964   9.035
 9340WAT     H228263   0.398   5.938   8.896
 9341WAT      O28264   6.343   3.898   4.922
 9341WAT     H128265   6.282   3.884   4.843
 9341WAT     H228266   6.411   3.826   4.925
 9342WAT      O28267   7.019   0.186   8.087
 9342WAT     H128268   6.932   0.230   8.107
 9342WAT     H228269   7.094   0.250   8.104
 9343WAT      O28270   9.027   2.051   7.312
 9343WAT     H128271   8.989   2.111   7.382
 9343WAT     H228272   9.120   2.078   7.290
 9344WAT      O28273   0.586   6.696   2.159
 9344WAT     H128274   0.497   6.655   2.178
 9344WAT     H228275   0.590   6.723   2.063
 9345WAT      O28276   7.364   8.493   8.802
 9345WAT     H128277   7.397   8.580   8.767
 9345WAT     H228278   7.264   8.488   8.792
 9346WAT      O28279   6.223   5.010   7.299
 9346WAT     H128280   6.197   5.076   7.229
 9346WAT     H228281   6.222   5.054   7.389
 9347WAT      O28282   5.460   0.547   3.973
 9347WAT     H128283   5.430   0.602   4.050
 9347WAT     H228284   5.421   0.583   3.888
 9348WAT      O28285   1.414   4.508   8.659
 9348WAT     H128286   1.436   4.514   8.756
 9348WAT     H228287   1.328   4.556   8.641
 9349WAT      O28288   2.043   8.619   6.665
 9349WAT     H128289   2.096   8.536   6.649
 9349WAT     H228290   2.098   8.699   6.641
 9350WAT      O28291   5.940   7.659   2.990
 9350WAT     H128292   5.909   7.754   2.999
 9350WAT     H228293   5.971   7.643   2.896
 9351WAT      O28294   9.192   9.255   3.108
 9351WAT     H128295   9.192   9.304   3.195
 9351WAT     H228296   9.101   9.217   3.092
 9352WAT      O28297   6.611   8.593   2.248
 9352WAT     H128298   6.585   8.659   2.318
 9352WAT     H228299   6.694   8.545   2.278
 9353WAT      O28300   8.115   5.900   8.684
 9353WAT     H128301   8.187   5.969   8.672
 9353WAT     H228302   8.156   5.815   8.718
 9354WAT      O28303   0.770   8.832   5.604
 9354WAT     H128304   0.756   8.861   5.509
 9354WAT     H228305   0.847   8.882   5.644
 9355WAT      O28306   0.054   6.094   1.306
 9355WAT     H128307  -0.029   6.042   1.327
 9355WAT     H228308   0.033   6.164   1.238
 9356WAT      O28309   5.964   4.342   8.451
 9356WAT     H128310   5.885   4.332   8.513
 9356WAT     H228311   5.974   4.259   8.397
 9357WAT      O28312   9.453   5.190   8.398
 9357WAT     H128313   9.523   5.120   8.413
 9357WAT     H228314   9.387   5.188   8.474
 9358WAT      O28315   0.435   3.154   6.784
 9358WAT     H128316   0.404   3.218   6.713
 9358WAT     H228317   0.479   3.075   6.740
 9359WAT      O28318   8.497   5.232   1.458
 9359WAT     H128319   8.527   5.325   1.440
 9359WAT     H228320   8.398   5.232   1.475
 9360WAT      O28321   1.643   2.588   2.036
 9360WAT     H128322   1.574   2.517   2.024
 9360WAT     H228323   1.725   2.548   2.078
 9361WAT      O28324   4.583   2.226   9.398
 9361WAT     H128325   4.679   2.226   9.370
 9361WAT     H228326   4.576   2.212   9.496
 9362WAT      O28327   7.953   4.279   8.760
 9362WAT     H128328   7.929   4.362   8.709
 9362WAT     H228329   7.879   4.257   8.824
 9363WAT      O28330   3.616   6.355   6.888
 9363WAT     H128331   3.540   6.333   6.826
 9363WAT     H228332   3.659   6.270   6.919
 9364WAT      O28333   8.811   3.280   9.329
 9364WAT     H128334   8.807   3.286   9.429
 9364WAT     H228335   8.906   3.264   9.301
 9365WAT      O28336   8.317   9.473   7.100
 9365WAT     H128337   8.312   9.511   7.008
 9365WAT     H228338   8.336   9.375   7.095
 9366WAT      O28339   0.890   9.530   0.575
 9366WAT     H128340   0.942   9.615   0.569
 9366WAT     H228341   0.934   9.461   0.517
 9367WAT      O28342   2.405   4.845   9.837
 9367WAT     H128343   2.347   4.892   9.903
 9367WAT     H228344   2.427   4.753   9.870
 9368WAT      O28345   6.295   2.810   1.749
 9368WAT     H128346   6.287   2.898   1.701
 9368WAT     H228347   6.392   2.788   1.764
 9369WAT      O28348   3.751   7.734   2.963
 9369WAT     H128349   3.778   7.639   2.947
 9369WAT     H228350   3.807   7.773   3.037
 9370WAT      O28351   8.754   0.189   6.020
 9370WAT     H128352   8.833   0.233   5.978
 9370WAT     H228353   8.684   0.257   6.041
 9371WAT      O28354   3.254   6.873   2.689
 9371WAT     H128355   3.308   6.957   2.690
 9371WAT     H228356   3.277   6.821   2.606
 9372WAT      O28357   8.756   0.275   0.177
 9372WAT     H128358   8.789   0.348   0.237
 9372WAT     H228359   8.704   0.314   0.101
 9373WAT      O28360   8.451   7.718   9.616
 9373WAT     H128361   8.432   7.709   9.714
 9373WAT     H228362   8.549   7.736   9.603
 9374WAT      O28363   1.197   4.506   7.839
 9374WAT     H128364   1.177   4.546   7.929
 9374WAT     H228365   1.201   4.579   7.771
 9375WAT      O28366   0.832   5.375   9.493
 9375WAT     H128367   0.747   5.343   9.535
 9375WAT     H228368   0.823   5.372   9.393
 9376WAT      O28369   6.618   0.402   6.550
 9376WAT     H128370   6.696   0.453   6.586
 9376WAT     H228371   6.645   0.354   6.466
 9377WAT      O28372   4.597   1.033   0.062
 9377WAT     H128373   4.587   0.995  -0.029
 9377WAT     H228374   4.655   0.973   0.117
 9378WAT      O28375   6.119   1.248   9.723
 9378WAT     H128376   6.153   1.333   9.684
 9378WAT     H228377   6.061   1.201   9.657
 9379WAT      O28378   5.930   5.433   0.159
 9379WAT     H128379   5.873   5.353   0.142
 9379WAT     H228380   5.874   5.507   0.197
 9380WAT      O28381   7.497   8.337   7.844
 9380WAT     H128382   7.477   8.435   7.836
 9380WAT     H228383   7.412   8.287   7.856
 9381WAT      O28384   9.661   7.349   3.278
 9381WAT     H128385   9.601   7.274   3.307
 9381WAT     H228386   9.606   7.426   3.246
 9382WAT      O28387   0.652   3.368   6.184
 9382WAT     H128388   0.591   3.415   6.249
 9382WAT     H228389   0.710   3.435   6.139
 9383WAT      O28390   2.766   2.589   7.429
 9383WAT     H128391   2.789   2.514   7.368
 9383WAT     H228392   2.833   2.663   7.419
 9384WAT      O28393   7.146   9.330   8.621
 9384WAT     H128394   7.113   9.302   8.711
 9384WAT     H228395   7.165   9.249   8.565
 9385WAT      O28396   3.619   5.875   2.453
 9385WAT     H128397   3.530   5.868   2.410
 9385WAT     H228398   3.608   5.895   2.550
 9386WAT      O28399   3.372   1.124   8.578
 9386WAT     H128400   3.314   1.065   8.634
 9386WAT     H228401   3.317   1.167   8.506
 9387WAT      O28402   3.317   9.019   8.388
 9387WAT     H128403   3.327   9.002   8.485
 9387WAT     H228404   3.385   9.087   8.358
 9388WAT      O28405   7.580   3.594   6.918
 9388WAT     H128406   7.617   3.501   6.913
 9388WAT     H228407   7.581   3.625   7.013
 9389WAT      O28408   1.409   7.163   9.838
 9389WAT     H128409   1.326   7.108   9.850
 9389WAT     H228410   1.480   7.107   9.795
 9390WAT      O28411   3.787   5.539   3.884
 9390WAT     H128412   3.709   5.485   3.916
 9390WAT     H228413   3.757   5.599   3.810
 9391WAT      O28414   0.069   7.981   0.258
 9391WAT     H128415  -0.023   7.949   0.280
 9391WAT     H228416   0.078   7.991   0.158
 9392WAT      O28417   5.167   7.051   6.529
 9392WAT     H128418   5.172   7.106   6.612
 9392WAT     H228419   5.115   7.101   6.459
 9393WAT      O28420   4.397   2.694   8.051
 9393WAT     H128421   4.364   2.778   8.095
 9393WAT     H228422   4.337   2.671   7.974
 9394WAT      O28423   4.488   1.100   5.128
 9394WAT     H128424   4.514   1.178   5.186
 9394WAT     H228425   4.388   1.100   5.117
 9395WAT      O28426   6.000   3.325   9.839
 9395WAT     H128427   5.905   3.302   9.816
 9395WAT     H228428   6.062   3.273   9.780
 9396WAT      O28429   3.817   6.648   1.781
 9396WAT     H128430   3.744   6.639   1.849
 9396WAT     H228431   3.897   6.596   1.810
 9397WAT      O28432   4.956   2.599   2.709
 9397WAT     H128433   4.902   2.536   2.765
 9397WAT     H228434   5.024   2.645   2.767
 9398WAT      O28435   4.687   8.705   3.666
 9398WAT     H128436   4.680   8.793   3.621
 9398WAT     H228437   4.706   8.718   3.763
 9399WAT      O28438   2.189   0.822   3.423
 9399WAT     H128439   2.113   0.847   3.363
 9399WAT     H228440   2.274   0.821   3.371
 9400WAT      O28441   8.855   1.369   6.984
 9400WAT     H128442   8.873   1.434   7.058
 9400WAT     H228443   8.933   1.368   6.921
 9401WAT      O28444   7.432   7.010   0.612
 9401WAT     H128445   7.502   6.943   0.588
 9401WAT     H228446   7.427   7.080   0.541
 9402WAT      O28447   5.246   1.759   5.007
 9402WAT     H128448   5.315   1.831   5.003
 9402WAT     H228449   5.156   1.800   5.018
 9403WAT      O28450   4.710   7.289   3.635
 9403WAT     H128451   4.805   7.308   3.658
 9403WAT     H228452   4.698   7.192   3.614
 9404WAT      O28453   7.844   1.711   6.294
 9404WAT     H128454   7.890   1.643   6.351
 9404WAT     H228455   7.860   1.689   6.198
 9405WAT      O28456   0.131   4.607   7.973
 9405WAT     H128457   0.140   4.698   7.931
 9405WAT     H228458   0.048   4.605   8.029
 9406WAT      O28459   3.370   3.751   5.203
 9406WAT     H128460   3.281   3.712   5.225
 9406WAT     H228461   3.441   3.705   5.257
 9407WAT      O28462   4.485   2.639   4.928
 9407WAT     H128463   4.521   2.611   5.017
 9407WAT     H228464   4.387   2.620   4.924
 9408WAT      O28465   4.752   1.762   2.478
 9408WAT     H128466   4.775   1.764   2.380
 9408WAT     H228467   4.731   1.855   2.509
 9409WAT      O28468   7.722   0.071   0.726
 9409WAT     H128469   7.717   0.164   0.691
 9409WAT     H228470   7.633   0.026   0.715
 9410WAT      O28471   6.466   3.988   6.965
 9410WAT     H128472   6.521   3.985   6.881
 9410WAT     H228473   6.376   4.025   6.944
 9411WAT      O28474   8.121   8.934   1.782
 9411WAT     H128475   8.045   8.961   1.723
 9411WAT     H228476   8.168   8.856   1.742
 9412WAT      O28477   5.010   0.648   8.073
 9412WAT     H128478   4.913   0.635   8.053
 9412WAT     H228479   5.058   0.671   7.988
 9413WAT      O28480   5.011   2.141   3.121
 9413WAT     H128481   5.080   2.105   3.059
 9413WAT     H228482   4.922   2.144   3.075
 9414WAT      O28483   4.259   5.569   7.703
 9414WAT     H128484   4.166   5.599   7.681
 9414WAT     H228485   4.255   5.486   7.758
 9415WAT      O28486   4.452   4.081   6.031
 9415WAT     H128487   4.356   4.081   6.056
 9415WAT     H228488   4.504   4.136   6.098
 9416WAT      O28489   1.924   8.087   0.316
 9416WAT     H128490   1.829   8.105   0.342
 9416WAT     H228491   1.986   8.133   0.380
 9417WAT      O28492   6.019   5.768   4.384
 9417WAT     H128493   6.053   5.692   4.328
 9417WAT     H228494   5.951   5.819   4.332
 9418WAT      O28495   6.799   1.601   2.791
 9418WAT     H128496   6.730   1.603   2.863
 9418WAT     H228497   6.796   1.513   2.743
 9419WAT      O28498   5.949   4.258   2.577
 9419WAT     H128499   6.031   4.238   2.524
 9419WAT     H228500   5.971   4.324   2.649
 9420WAT      O28501   6.705   5.816   7.887
 9420WAT     H128502   6.758   5.884   7.938
 9420WAT     H228503   6.629   5.784   7.944
 9421WAT      O28504   8.851   2.021   5.291
 9421WAT     H128505   8.914   2.058   5.223
 9421WAT     H228506   8.763   2.001   5.247
 9422WAT      O28507   7.537   6.583   7.702
 9422WAT     H128508   7.509   6.678   7.708
 9422WAT     H228509   7.635   6.578   7.682
 9423WAT      O28510   4.273   2.798   6.865
 9423WAT     H128511   4.264   2.858   6.786
 9423WAT     H228512   4.212   2.719   6.855
 9424WAT      O28513   0.285   7.630   9.009
 9424WAT     H128514   0.360   7.695   9.006
 9424WAT     H228515   0.203   7.675   9.044
 9425WAT      O28516   7.870   2.330   1.252
 9425WAT     H128517   7.890   2.241   1.210
 9425WAT     H228518   7.956   2.372   1.282
 9426WAT      O28519   6.523   5.561   0.434
 9426WAT     H128520   6.502   5.582   0.338
 9426WAT     H228521   6.443   5.518   0.476
 9427WAT      O28522   3.022   2.100   3.057
 9427WAT     H128523   3.056   2.122   3.149
 9427WAT     H228524   2.953   2.028   3.064
 9428WAT      O28525   6.543   2.928   7.254
 9428WAT     H128526   6.596   3.000   7.210
 9428WAT     H228527   6.601   2.848   7.270
 9429WAT      O28528   6.583   6.580   7.107
 9429WAT     H128529   6.632   6.597   7.021
 9429WAT     H228530   6.638   6.612   7.184
 9430WAT      O28531   6.890   3.198   4.311
 9430WAT     H128532   6.977   3.200   4.262
 9430WAT     H228533   6.859   3.103   4.321
 9431WAT      O28534   7.246   7.627   4.690
 9431WAT     H128535   7.320   7.565   4.663
 9431WAT     H228536   7.203   7.594   4.774
 9432WAT      O28537   1.163   4.384   6.607
 9432WAT     H128538   1.195   4.311   6.666
 9432WAT     H228539   1.063   4.389   6.612
 9433WAT      O28540   6.132   1.920   3.339
 9433WAT     H128541   6.132   1.873   3.428
 9433WAT     H228542   6.223   1.914   3.298
 9434WAT      O28543   3.993   1.883   2.963
 9434WAT     H128544   3.956   1.809   3.019
 9434WAT     H228545   4.043   1.845   2.886
 9435WAT      O28546   6.115   5.687   9.260
 9435WAT     H128547   6.090   5.708   9.355
 9435WAT     H228548   6.056   5.740   9.198
 9436WAT      O28549   0.056   9.435   3.697
 9436WAT     H128550   0.111   9.372   3.642
 9436WAT     H228551   0.088   9.433   3.791
 9437WAT      O28552   7.884   7.614   2.040
 9437WAT     H128553   7.815   7.687   2.040
 9437WAT     H228554   7.927   7.609   2.130
 9438WAT      O28555   8.316   4.511   5.841
 9438WAT     H128556   8.320   4.609   5.859
 9438WAT     H228557   8.246   4.469   5.899
 9439WAT      O28558   4.692   5.933   4.057
 9439WAT     H128559   4.624   6.006   4.057
 9439WAT     H228560   4.776   5.966   4.013
 9440WAT      O28561   7.597   5.584   1.539
 9440WAT     H128562   7.549   5.567   1.625
 9440WAT     H228563   7.538   5.561   1.462
 9441WAT      O28564   1.849   7.830   3.693
 9441WAT     H128565   1.762   7.801   3.652
 9441WAT     H228566   1.830   7.877   3.779
 9442WAT      O28567   0.014   0.039   8.045
 9442WAT     H128568  -0.006  -0.051   8.084
 9442WAT     H228569  -0.046   0.108   8.086
 9443WAT      O28570   2.448   8.081   0.709
 9443WAT     H128571   2.478   7.990   0.738
 9443WAT     H228572   2.407   8.129   0.786
 9444WAT      O28573   2.703   5.943   5.975
 9444WAT     H128574   2.739   5.960   6.067
 9444WAT     H228575   2.776   5.955   5.908
 9445WAT      O28576   9.721   5.282   6.739
 9445WAT     H128577   9.723   5.370   6.692
 9445WAT     H228578   9.809   5.265   6.783
 9446WAT      O28579   9.573   5.088   1.911
 9446WAT     H128580   9.655   5.085   1.968
 9446WAT     H228581   9.493   5.064   1.967
 9447WAT      O28582   9.051   4.501   3.582
 9447WAT     H128583   9.015   4.451   3.660
 9447WAT     H228584   9.150   4.487   3.576
 9448WAT      O28585   5.316   6.017   6.926
 9448WAT     H128586   5.327   6.106   6.882
 9448WAT     H228587   5.222   6.007   6.957
 9449WAT      O28588   2.366   0.692   9.443
 9449WAT     H128589   2.270   0.679   9.418
 9449WAT     H228590   2.413   0.604   9.445
 9450WAT      O28591   5.533   1.403   1.286
 9450WAT     H128592   5.494   1.489   1.318
 9450WAT     H228593   5.552   1.409   1.188
 9451WAT      O28594   8.266   5.150   5.540
 9451WAT     H128595   8.298   5.061   5.508
 9451WAT     H228596   8.286   5.220   5.471
 9452WAT      O28597   8.580   4.815   2.168
 9452WAT     H128598   8.526   4.746   2.217
 9452WAT     H228599   8.673   4.816   2.204
 9453WAT      O28600   9.727   0.765   3.167
 9453WAT     H128601   9.710   0.740   3.072
 9453WAT     H228602   9.789   0.844   3.170
 9454WAT      O28603   2.344   4.145   1.200
 9454WAT     H128604   2.274   4.094   1.149
 9454WAT     H228605   2.360   4.099   1.288
 9455WAT      O28606   0.842   9.557   1.980
 9455WAT     H128607   0.794   9.645   1.985
 9455WAT     H228608   0.895   9.552   1.896
 9456WAT      O28609   6.618   3.311   7.332
 9456WAT     H128610   6.602   3.293   7.235
 9456WAT     H228611   6.711   3.285   7.356
 9457WAT      O28612   4.987   0.908   2.334
 9457WAT     H128613   4.903   0.923   2.387
 9457WAT     H228614   4.969   0.839   2.264
 9458WAT      O28615   3.438   8.537   5.780
 9458WAT     H128616   3.351   8.489   5.770
 9458WAT     H228617   3.506   8.496   5.719
 9459WAT      O28618   9.799   1.242   3.776
 9459WAT     H128619   9.821   1.270   3.683
 9459WAT     H228620   9.805   1.142   3.783
 9460WAT      O28621   7.399   0.754   8.018
 9460WAT     H128622   7.423   0.732   8.113
 9460WAT     H228623   7.460   0.825   7.984
 9461WAT      O28624   7.073   1.121   9.345
 9461WAT     H128625   7.041   1.041   9.296
 9461WAT     H228626   7.116   1.092   9.431
 9462WAT      O28627   7.115   3.809   0.047
 9462WAT     H128628   7.172   3.734   0.080
 9462WAT     H228629   7.075   3.784  -0.041
 9463WAT      O28630   2.620   5.249   9.268
 9463WAT     H128631   2.644   5.259   9.364
 9463WAT     H228632   2.536   5.300   9.249
 9464WAT      O28633   1.277   4.300   8.120
 9464WAT     H128634   1.264   4.222   8.059
 9464WAT     H228635   1.372   4.332   8.114
 9465WAT      O28636   6.068   0.261   2.677
 9465WAT     H128637   6.126   0.295   2.750
 9465WAT     H228638   6.106   0.290   2.588
 9466WAT      O28639   1.451   2.327   5.854
 9466WAT     H128640   1.406   2.416   5.851
 9466WAT     H228641   1.459   2.297   5.949
 9467WAT      O28642   2.418   4.556   1.411
 9467WAT     H128643   2.373   4.633   1.455
 9467WAT     H228644   2.504   4.586   1.370
 9468WAT      O28645   6.646   8.902   3.600
 9468WAT     H128646   6.730   8.946   3.631
 9468WAT     H228647   6.604   8.853   3.677
 9469WAT      O28648   0.836   3.719   8.624
 9469WAT     H128649   0.774   3.696   8.548
 9469WAT     H228650   0.882   3.805   8.604
 9470WAT      O28651   9.830   7.407   1.862
 9470WAT     H128652   9.870   7.393   1.953
 9470WAT     H228653   9.804   7.503   1.852
 9471WAT      O28654   4.769   3.547   4.831
 9471WAT     H128655   4.831   3.482   4.876
 9471WAT     H228656   4.821   3.628   4.803
 9472WAT      O28657   5.021   5.450   0.903
 9472WAT     H128658   4.976   5.366   0.872
 9472WAT     H228659   5.097   5.427   0.963
 9473WAT      O28660   2.045   8.062   8.728
 9473WAT     H128661   1.959   8.072   8.777
 9473WAT     H228662   2.121   8.091   8.786
 9474WAT      O28663   6.935   4.564   6.713
 9474WAT     H128664   6.850   4.534   6.755
 9474WAT     H228665   7.006   4.572   6.783
 9475WAT      O28666   7.095   1.038   3.860
 9475WAT     H128667   7.049   0.970   3.804
 9475WAT     H228668   7.187   1.054   3.825
 9476WAT      O28669   8.965   2.271   5.501
 9476WAT     H128670   8.987   2.358   5.457
 9476WAT     H228671   8.940   2.204   5.431
 9477WAT      O28672   6.106   5.817   0.490
 9477WAT     H128673   6.043   5.851   0.421
 9477WAT     H228674   6.072   5.730   0.526
 9478WAT      O28675   0.936   2.856   5.304
 9478WAT     H128676   0.895   2.780   5.253
 9478WAT     H228677   1.026   2.877   5.265
 9479WAT      O28678   0.388   1.777   4.898
 9479WAT     H128679   0.359   1.820   4.812
 9479WAT     H228680   0.441   1.843   4.952
 9480WAT      O28681   1.043   8.505   1.430
 9480WAT     H128682   0.950   8.494   1.392
 9480WAT     H228683   1.042   8.481   1.527
 9481WAT      O28684   7.756   5.924   5.458
 9481WAT     H128685   7.788   5.834   5.426
 9481WAT     H228686   7.665   5.914   5.498
 9482WAT      O28687   4.877   2.203   7.223
 9482WAT     H128688   4.852   2.107   7.210
 9482WAT     H228689   4.815   2.246   7.289
 9483WAT      O28690   7.813   1.740   8.852
 9483WAT     H128691   7.774   1.809   8.912
 9483WAT     H228692   7.858   1.784   8.775
 9484WAT      O28693   4.380   9.566   2.513
 9484WAT     H128694   4.328   9.502   2.570
 9484WAT     H228695   4.373   9.658   2.552
 9485WAT      O28696   0.786   2.892   0.517
 9485WAT     H128697   0.868   2.931   0.474
 9485WAT     H228698   0.776   2.797   0.489
 9486WAT      O28699   6.092   2.872   9.117
 9486WAT     H128700   6.163   2.810   9.151
 9486WAT     H228701   6.028   2.821   9.061
 9487WAT      O28702   2.505   5.023   4.630
 9487WAT     H128703   2.511   5.052   4.725
 9487WAT     H228704   2.589   5.048   4.582
 9488WAT      O28705   2.793   9.593   7.907
 9488WAT     H128706   2.778   9.498   7.932
 9488WAT     H228707   2.714   9.648   7.936
 9489WAT      O28708   1.205   9.005   1.485
 9489WAT     H128709   1.181   8.915   1.524
 9489WAT     H228710   1.272   8.992   1.412
 9490WAT      O28711   3.229   6.843   9.851
 9490WAT     H128712   3.150   6.874   9.797
 9490WAT     H228713   3.312   6.884   9.816
 9491WAT      O28714   9.397   6.866   0.678
 9491WAT     H128715   9.484   6.872   0.630
 9491WAT     H228716   9.413   6.833   0.771
 9492WAT      O28717   0.035   6.310   5.564
 9492WAT     H128718   0.100   6.380   5.534
 9492WAT     H228719   0.080   6.221   5.565
 9493WAT      O28720   8.280   1.493   4.493
 9493WAT     H128721   8.369   1.539   4.485
 9493WAT     H228722   8.272   1.453   4.584
 9494WAT      O28723   7.708   6.127   2.224
 9494WAT     H128724   7.661   6.041   2.205
 9494WAT     H228725   7.640   6.199   2.240
 9495WAT      O28726   0.910   6.924   7.455
 9495WAT     H128727   0.898   6.899   7.359
 9495WAT     H228728   0.997   6.970   7.467
 9496WAT      O28729   4.282   3.328   5.759
 9496WAT     H128730   4.283   3.398   5.687
 9496WAT     H228731   4.247   3.367   5.844
 9497WAT      O28732   4.529   2.434   0.817
 9497WAT     H128733   4.576   2.515   0.851
 9497WAT     H228734   4.430   2.448   0.821
 9498WAT      O28735   8.214   9.716   1.363
 9498WAT     H128736   8.197   9.687   1.269
 9498WAT     H228737   8.255   9.640   1.414
 9499WAT      O28738   8.943   2.364   1.211
 9499WAT     H128739   8.913   2.284   1.160
 9499WAT     H228740   8.868   2.429   1.218
 9500WAT      O28741   8.955   7.128   5.257
 9500WAT     H128742   8.905   7.142   5.342
 9500WAT     H228743   9.016   7.049   5.267
 9501WAT      O28744   1.717   0.143   7.097
 9501WAT     H128745   1.730   0.234   7.136
 9501WAT     H228746   1.791   0.123   7.033
 9502WAT      O28747   5.190   4.581   1.138
 9502WAT     H128748   5.228   4.641   1.208
 9502WAT     H228749   5.147   4.502   1.181
 9503WAT      O28750   1.144   3.344   1.849
 9503WAT     H128751   1.176   3.254   1.878
 9503WAT     H228752   1.045   3.341   1.834
 9504WAT      O28753   9.287   4.529   5.370
 9504WAT     H128754   9.302   4.436   5.403
 9504WAT     H228755   9.328   4.594   5.434
 9505WAT      O28756   2.673   6.031   4.524
 9505WAT     H128757   2.594   6.090   4.540
 9505WAT     H228758   2.676   6.006   4.427
 9506WAT      O28759   5.737   6.787   0.436
 9506WAT     H128760   5.803   6.824   0.501
 9506WAT     H228761   5.745   6.687   0.434
 9507WAT      O28762   3.887   9.349   7.043
 9507WAT     H128763   3.814   9.416   7.059
 9507WAT     H228764   3.879   9.312   6.950
 9508WAT      O28765   9.644   9.275   1.395
 9508WAT     H128766   9.632   9.293   1.493
 9508WAT     H228767   9.655   9.362   1.347
 9509WAT      O28768   5.126   3.820   2.771
 9509WAT     H128769   5.026   3.817   2.762
 9509WAT     H228770   5.162   3.727   2.779
 9510WAT      O28771   6.755   6.811   3.794
 9510WAT     H128772   6.832   6.815   3.730
 9510WAT     H228773   6.786   6.831   3.886
 9511WAT      O28774   1.457   6.324   5.087
 9511WAT     H128775   1.557   6.318   5.099
 9511WAT     H228776   1.425   6.245   5.035
 9512WAT      O28777   5.047   7.434   1.794
 9512WAT     H128778   5.145   7.452   1.786
 9512WAT     H228779   5.007   7.429   1.702
 9513WAT      O28780   0.074   3.374   5.356
 9513WAT     H128781   0.168   3.344   5.369
 9513WAT     H228782   0.025   3.369   5.443
 9514WAT      O28783   3.022   2.918   6.801
 9514WAT     H128784   2.931   2.959   6.793
 9514WAT     H228785   3.017   2.837   6.860
 9515WAT      O28786   9.474   5.011   9.045
 9515WAT     H128787   9.502   4.960   8.963
 9515WAT     H228788   9.403   5.076   9.021
 9516WAT      O28789   6.673   4.583   0.910
 9516WAT     H128790   6.603   4.570   0.840
 9516WAT     H228791   6.667   4.676   0.946
 9517WAT      O28792   1.192   3.613   9.429
 9517WAT     H128793   1.270   3.631   9.368
 9517WAT     H228794   1.133   3.693   9.432
 9518WAT      O28795   4.670   4.870   8.313
 9518WAT     H128796   4.699   4.934   8.242
 9518WAT     H228797   4.570   4.875   8.323
 9519WAT      O28798   0.994   2.560   4.588
 9519WAT     H128799   1.019   2.471   4.550
 9519WAT     H228800   1.074   2.600   4.632
 9520WAT      O28801   6.366   8.140   5.831
 9520WAT     H128802   6.308   8.216   5.858
 9520WAT     H228803   6.332   8.055   5.873
 9521WAT      O28804   4.487   1.199   1.816
 9521WAT     H128805   4.438   1.256   1.881
 9521WAT     H228806   4.539   1.257   1.753
 9522WAT      O28807   0.089   6.754   0.922
 9522WAT     H128808   0.154   6.817   0.965
 9522WAT     H228809   0.006   6.749   0.976
 9523WAT      O28810   9.184   2.729   0.766
 9523WAT     H128811   9.202   2.657   0.833
 9523WAT     H228812   9.249   2.804   0.779
 9524WAT      O28813   1.096   0.257   7.191
 9524WAT     H128814   1.159   0.295   7.258
 9524WAT     H228815   1.140   0.250   7.102
 9525WAT      O28816   0.609   4.862   6.501
 9525WAT     H128817   0.587   4.766   6.481
 9525WAT     H228818   0.661   4.867   6.587
 9526WAT      O28819   4.949   5.006   7.405
 9526WAT     H128820   4.877   4.980   7.469
 9526WAT     H228821   5.033   4.957   7.429
 9527WAT      O28822   6.470   1.396   6.649
 9527WAT     H128823   6.495   1.431   6.740
 9527WAT     H228824   6.413   1.315   6.658
 9528WAT      O28825   2.778   4.912   4.318
 9528WAT     H128826   2.774   4.959   4.406
 9528WAT     H228827   2.698   4.935   4.263
 9529WAT      O28828   4.694   1.593   5.108
 9529WAT     H128829   4.595   1.604   5.099
 9529WAT     H228830   4.724   1.625   5.198
 9530WAT      O28831   4.728   6.939   7.579
 9530WAT     H128832   4.665   6.891   7.641
 9530WAT     H228833   4.683   7.022   7.544
 9531WAT      O28834   3.217   5.516   0.570
 9531WAT     H128835   3.308   5.547   0.545
 9531WAT     H228836   3.197   5.544   0.664
 9532WAT      O28837   2.153   9.544   9.810
 9532WAT     H128838   2.106   9.526   9.896
 9532WAT     H228839   2.252   9.545   9.826
 9533WAT      O28840   4.352   1.065   9.609
 9533WAT     H128841   4.359   1.146   9.666
 9533WAT     H228842   4.285   1.081   9.536
 9534WAT      O28843   0.943   1.837   1.407
 9534WAT     H128844   1.035   1.863   1.378
 9534WAT     H228845   0.928   1.867   1.501
 9535WAT      O28846   2.173   1.956   5.654
 9535WAT     H128847   2.216   2.043   5.675
 9535WAT     H228848   2.242   1.891   5.623
 9536WAT      O28849   2.961   2.872   9.529
 9536WAT     H128850   3.031   2.941   9.512
 9536WAT     H228851   2.884   2.885   9.467
 9537WAT      O28852   8.187   0.729   4.992
 9537WAT     H128853   8.147   0.664   4.928
 9537WAT     H228854   8.151   0.713   5.084
 9538WAT      O28855   7.147   8.970   0.584
 9538WAT     H128856   7.149   9.017   0.672
 9538WAT     H228857   7.212   8.894   0.585
 9539WAT      O28858   2.502   5.933   3.179
 9539WAT     H128859   2.440   6.007   3.151
 9539WAT     H228860   2.595   5.969   3.186
 9540WAT      O28861   6.348   2.755   7.131
 9540WAT     H128862   6.415   2.824   7.158
 9540WAT     H228863   6.265   2.765   7.186
 9541WAT      O28864   9.026   0.481   2.028
 9541WAT     H128865   9.049   0.385   2.016
 9541WAT     H228866   9.106   0.530   2.063
 9542WAT      O28867   8.607   0.181   7.473
 9542WAT     H128868   8.601   0.219   7.381
 9542WAT     H228869   8.697   0.201   7.512
 9543WAT      O28870   8.292   9.355   8.388
 9543WAT     H128871   8.290   9.326   8.292
 9543WAT     H228872   8.199   9.360   8.424
 9544WAT      O28873   2.602   6.277   7.195
 9544WAT     H128874   2.550   6.260   7.112
 9544WAT     H228875   2.658   6.359   7.183
 9545WAT      O28876   7.437   3.746   1.520
 9545WAT     H128877   7.392   3.759   1.608
 9545WAT     H228878   7.533   3.723   1.534
 9546WAT      O28879   9.173   1.309   7.057
 9546WAT     H128880   9.107   1.251   7.106
 9546WAT     H228881   9.132   1.340   6.971
 9547WAT      O28882   9.034   7.823   3.955
 9547WAT     H128883   8.952   7.880   3.965
 9547WAT     H228884   9.095   7.838   4.033
 9548WAT      O28885   5.702   9.514   4.837
 9548WAT     H128886   5.613   9.468   4.844
 9548WAT     H228887   5.693   9.595   4.779
 9549WAT      O28888   0.413   4.018   2.444
 9549WAT     H128889   0.470   3.993   2.366
 9549WAT     H228890   0.334   3.956   2.448
 9550WAT      O28891   5.370   6.991   5.915
 9550WAT     H128892   5.394   7.004   6.011
 9550WAT     H228893   5.294   7.052   5.891
 9551WAT      O28894   2.990   2.725   7.021
 9551WAT     H128895   3.037   2.642   7.050
 9551WAT     H228896   2.968   2.780   7.102
 9552WAT      O28897   9.579   2.233   9.161
 9552WAT     H128898   9.631   2.241   9.246
 9552WAT     H228899   9.642   2.212   9.086
 9553WAT      O28900   1.998   6.579   7.059
 9553WAT     H128901   2.086   6.621   7.035
 9553WAT     H228902   2.012   6.511   7.131
 9554WAT      O28903   7.827   7.572   9.339
 9554WAT     H128904   7.914   7.603   9.377
 9554WAT     H228905   7.820   7.472   9.349
 9555WAT      O28906   4.381   5.033   7.083
 9555WAT     H128907   4.367   4.980   6.999
 9555WAT     H228908   4.293   5.043   7.130
 9556WAT      O28909   1.190   3.741   2.416
 9556WAT     H128910   1.099   3.704   2.439
 9556WAT     H228911   1.194   3.761   2.318
 9557WAT      O28912   6.079   5.674   3.981
 9557WAT     H128913   5.996   5.687   3.927
 9557WAT     H228914   6.155   5.722   3.938
 9558WAT      O28915   3.201   8.275   3.382
 9558WAT     H128916   3.108   8.273   3.420
 9558WAT     H228917   3.202   8.328   3.298
 9559WAT      O28918   9.754   2.336   7.887
 9559WAT     H128919   9.848   2.305   7.903
 9559WAT     H228920   9.713   2.282   7.813
 9560WAT      O28921   2.384   8.905   7.265
 9560WAT     H128922   2.411   8.844   7.339
 9560WAT     H228923   2.370   8.997   7.301
 9561WAT      O28924   5.858   3.281   2.662
 9561WAT     H128925   5.854   3.197   2.609
 9561WAT     H228926   5.773   3.333   2.650
 9562WAT      O28927   5.701   6.845   8.285
 9562WAT     H128928   5.612   6.801   8.297
 9562WAT     H228929   5.762   6.784   8.235
 9563WAT      O28930   6.682   5.973   9.405
 9563WAT     H128931   6.583   5.982   9.402
 9563WAT     H228932   6.717   5.945   9.316
 9564WAT      O28933   4.064   4.651   8.137
 9564WAT     H128934   4.148   4.602   8.160
 9564WAT     H228935   4.084   4.723   8.071
 9565WAT      O28936   0.450   7.607   4.360
 9565WAT     H128937   0.489   7.553   4.436
 9565WAT     H228938   0.522   7.662   4.319
 9566WAT      O28939   8.125   8.112   2.876
 9566WAT     H128940   8.175   8.026   2.872
 9566WAT     H228941   8.112   8.148   2.783
 9567WAT      O28942   2.325   8.337   1.320
 9567WAT     H128943   2.284   8.304   1.405
 9567WAT     H228944   2.365   8.260   1.270
 9568WAT      O28945   5.117   9.681   5.700
 9568WAT     H128946   5.119   9.595   5.649
 9568WAT     H228947   5.204   9.728   5.688
 9569WAT      O28948   7.388   3.801   4.648
 9569WAT     H128949   7.320   3.864   4.687
 9569WAT     H228950   7.346   3.711   4.634
 9570WAT      O28951   4.919   4.433   6.794
 9570WAT     H128952   4.904   4.345   6.839
 9570WAT     H228953   5.011   4.437   6.756
 9571WAT      O28954   5.088   3.831   5.340
 9571WAT     H128955   5.045   3.879   5.417
 9571WAT     H228956   5.188   3.833   5.352
 9572WAT      O28957   8.280   4.706   3.477
 9572WAT     H128958   8.335   4.645   3.534
 9572WAT     H228959   8.231   4.771   3.536
 9573WAT      O28960   7.044   9.225   8.114
 9573WAT     H128961   7.005   9.264   8.030
 9573WAT     H228962   6.994   9.261   8.193
 9574WAT      O28963   8.930   8.812   0.015
 9574WAT     H128964   8.912   8.856   0.103
 9574WAT     H228965   8.910   8.875  -0.060
 9575WAT      O28966   9.802   2.826   2.391
 9575WAT     H128967   9.733   2.786   2.452
 9575WAT     H228968   9.767   2.913   2.355
 9576WAT      O28969   0.006   5.978   6.248
 9576WAT     H128970  -0.092   5.961   6.243
 9576WAT     H228971   0.033   6.039   6.173
 9577WAT      O28972   1.990   3.230   2.183
 9577WAT     H128973   1.944   3.284   2.112
 9577WAT     H228974   2.066   3.179   2.143
 9578WAT      O28975   3.249   7.102   0.574
 9578WAT     H128976   3.327   7.164   0.578
 9578WAT     H228977   3.176   7.137   0.632
 9579WAT      O28978   8.305   9.164   6.538
 9579WAT     H128979   8.321   9.066   6.527
 9579WAT     H228980   8.300   9.207   6.448
 9580WAT      O28981   5.745   2.664   4.464
 9580WAT     H128982   5.833   2.651   4.418
 9580WAT     H228983   5.674   2.614   4.415
 9581WAT      O28984   6.565   1.537   4.760
 9581WAT     H128985   6.517   1.624   4.755
 9581WAT     H228986   6.657   1.547   4.721
 9582WAT      O28987   2.253   0.439   7.204
 9582WAT     H128988   2.264   0.462   7.107
 9582WAT     H228989   2.343   0.421   7.245
 9583WAT      O28990   4.855   3.789   5.214
 9583WAT     H128991   4.839   3.754   5.122
 9583WAT     H228992   4.951   3.781   5.238
 9584WAT      O28993   3.990   8.171   3.050
 9584WAT     H128994   4.002   8.074   3.029
 9584WAT     H228995   4.077   8.219   3.038
 9585WAT      O28996   0.922   3.591   0.986
 9585WAT     H128997   0.963   3.634   0.906
 9585WAT     H228998   0.994   3.570   1.053
 9586WAT      O28999   7.823   9.740   5.833
 9586WAT     H129000   7.757   9.781   5.771
 9586WAT     H229001   7.890   9.688   5.781
 9587WAT      O29002   5.938   0.753   8.449
 9587WAT     H129003   5.896   0.840   8.478
 9587WAT     H229004   6.025   0.772   8.404
 9588WAT      O29005   0.454   5.245   6.515
 9588WAT     H129006   0.395   5.283   6.443
 9588WAT     H229007   0.510   5.317   6.554
 9589WAT      O29008   4.239   8.364   3.309
 9589WAT     H129009   4.330   8.404   3.316
 9589WAT     H229010   4.226   8.325   3.218
 9590WAT      O29011   0.472   3.917   5.918
 9590WAT     H129012   0.498   3.838   5.974
 9590WAT     H229013   0.504   3.903   5.824
 9591WAT      O29014   7.704   9.414   5.336
 9591WAT     H129015   7.608   9.390   5.323
 9591WAT     H229016   7.762   9.335   5.316
 9592WAT      O29017   6.507   5.100   6.643
 9592WAT     H129018   6.500   5.192   6.683
 9592WAT     H229019   6.534   5.035   6.713
 9593WAT      O29020   5.555   7.888   0.622
 9593WAT     H129021   5.463   7.858   0.647
 9593WAT     H229022   5.560   7.987   0.624
 9594WAT      O29023   5.502   1.267   5.143
 9594WAT     H129024   5.564   1.328   5.093
 9594WAT     H229025   5.556   1.201   5.196
 9595WAT      O29026   1.097   8.634   6.767
 9595WAT     H129027   1.183   8.657   6.812
 9595WAT     H229028   1.104   8.653   6.669
 9596WAT      O29029   7.782   7.300   9.414
 9596WAT     H129030   7.793   7.218   9.358
 9596WAT     H229031   7.685   7.323   9.421
 9597WAT      O29032   3.585   1.347   4.664
 9597WAT     H129033   3.591   1.322   4.567
 9597WAT     H229034   3.569   1.445   4.672
 9598WAT      O29035   9.687   5.398   2.237
 9598WAT     H129036   9.600   5.388   2.189
 9598WAT     H229037   9.670   5.440   2.326
 9599WAT      O29038   8.586   4.040   2.714
 9599WAT     H129039   8.557   4.134   2.697
 9599WAT     H229040   8.622   4.000   2.630
 9600WAT      O29041   1.829   1.262   3.357
 9600WAT     H129042   1.851   1.193   3.287
 9600WAT     H229043   1.842   1.353   3.319
 9601WAT      O29044   6.491   6.332   7.830
 9601WAT     H129045   6.435   6.279   7.766
 9601WAT     H229046   6.527   6.412   7.782
 9602WAT      O29047   4.088   0.475   4.152
 9602WAT     H129048   4.066   0.387   4.111
 9602WAT     H229049   4.066   0.473   4.250
 9603WAT      O29050   5.416   3.622   8.557
 9603WAT     H129051   5.371   3.711   8.565
 9603WAT     H229052   5.429   3.599   8.461
 9604WAT      O29053   1.305   8.760   4.752
 9604WAT     H129054   1.252   8.789   4.832
 9604WAT     H229055   1.403   8.771   4.771
 9605WAT      O29056   5.357   8.305   0.502
 9605WAT     H129057   5.399   8.329   0.415
 9605WAT     H229058   5.323   8.387   0.547
 9606WAT      O29059   2.830   3.633   7.061
 9606WAT     H129060   2.813   3.666   7.154
 9606WAT     H229061   2.928   3.618   7.047
 9607WAT      O29062   9.691   8.584   8.530
 9607WAT     H129063   9.613   8.522   8.518
 9607WAT     H229064   9.728   8.573   8.622
 9608WAT      O29065   1.099   0.898   6.755
 9608WAT     H129066   1.114   0.934   6.663
 9608WAT     H229067   1.028   0.951   6.801
 9609WAT      O29068   1.979   2.286   1.306
 9609WAT     H129069   1.896   2.341   1.298
 9609WAT     H229070   2.054   2.331   1.258
 9610WAT      O29071   4.091   5.846   1.741
 9610WAT     H129072   4.165   5.829   1.806
 9610WAT     H229073   4.003   5.845   1.788
 9611WAT      O29074   9.686   2.831   5.448
 9611WAT     H129075   9.755   2.902   5.435
 9611WAT     H229076   9.595   2.872   5.450
 9612WAT      O29077   2.016   5.185   3.248
 9612WAT     H129078   1.987   5.089   3.258
 9612WAT     H229079   1.965   5.227   3.173
 9613WAT      O29080   3.596   5.989   0.928
 9613WAT     H129081   3.508   6.034   0.941
 9613WAT     H229082   3.652   6.044   0.865
 9614WAT      O29083   0.999   2.075   6.431
 9614WAT     H129084   1.041   2.155   6.473
 9614WAT     H229085   0.947   2.025   6.499
 9615WAT      O29086   6.680   8.168   6.721
 9615WAT     H129087   6.649   8.075   6.702
 9615WAT     H229088   6.762   8.165   6.777
 9616WAT      O29089   7.132   7.105   7.163
 9616WAT     H129090   7.053   7.088   7.103
 9616WAT     H229091   7.216   7.098   7.110
 9617WAT      O29092   3.217   5.462   6.529
 9617WAT     H129093   3.136   5.520   6.520
 9617WAT     H229094   3.245   5.460   6.625
 9618WAT      O29095   9.041   8.939   7.652
 9618WAT     H129096   9.077   8.907   7.564
 9618WAT     H229097   9.116   8.949   7.717
 9619WAT      O29098   2.759   9.240   7.167
 9619WAT     H129099   2.822   9.284   7.231
 9619WAT     H229100   2.812   9.190   7.098
 9620WAT      O29101   0.457   0.910   0.691
 9620WAT     H129102   0.485   0.912   0.786
 9620WAT     H229103   0.525   0.861   0.637
 9621WAT      O29104   0.502   2.314   5.001
 9621WAT     H129105   0.585   2.369   4.984
 9621WAT     H229106   0.487   2.253   4.923
 9622WAT      O29107   3.595   9.185   3.611
 9622WAT     H129108   3.584   9.273   3.656
 9622WAT     H229109   3.617   9.114   3.678
 9623WAT      O29110   5.690   1.474   1.022
 9623WAT     H129111   5.704   1.395   0.961
 9623WAT     H229112   5.723   1.557   0.976
 9624WAT      O29113   4.766   8.592   3.003
 9624WAT     H129114   4.813   8.577   2.916
 9624WAT     H229115   4.811   8.539   3.075
 9625WAT      O29116   6.872   8.213   4.655
 9625WAT     H129117   6.802   8.227   4.585
 9625WAT     H229118   6.884   8.115   4.671
 9626WAT      O29119   7.966   8.003   5.382
 9626WAT     H129120   8.045   7.949   5.353
 9626WAT     H229121   7.891   7.992   5.316
 9627WAT      O29122   7.931   3.112   8.331
 9627WAT     H129123   7.902   3.027   8.375
 9627WAT     H229124   7.918   3.188   8.395
 9628WAT      O29125   5.978   9.540   2.403
 9628WAT     H129126   5.981   9.589   2.490
 9628WAT     H229127   6.063   9.488   2.391
 9629WAT      O29128   6.412   4.204   0.332
 9629WAT     H129129   6.443   4.277   0.271
 9629WAT     H229130   6.313   4.210   0.344
 9630WAT      O29131   7.611   5.923   3.223
 9630WAT     H129132   7.647   5.906   3.131
 9630WAT     H229133   7.639   6.013   3.254
 9631WAT      O29134   0.962   6.651   7.878
 9631WAT     H129135   0.940   6.554   7.879
 9631WAT     H229136   0.878   6.704   7.866
 9632WAT      O29137   2.744   9.323   7.750
 9632WAT     H129138   2.748   9.323   7.850
 9632WAT     H229139   2.708   9.410   7.718
 9633WAT      O29140   0.441   2.640   4.828
 9633WAT     H129141   0.478   2.590   4.906
 9633WAT     H229142   0.469   2.595   4.743
 9634WAT      O29143   7.345   8.860   8.927
 9634WAT     H129144   7.414   8.832   8.994
 9634WAT     H229145   7.337   8.960   8.927
 9635WAT      O29146   6.177   4.666   9.566
 9635WAT     H129147   6.123   4.595   9.519
 9635WAT     H229148   6.257   4.689   9.511
 9636WAT      O29149   7.776   9.141   2.111
 9636WAT     H129150   7.687   9.144   2.156
 9636WAT     H229151   7.775   9.072   2.039
 9637WAT      O29152   8.716   4.752   3.083
 9637WAT     H129153   8.776   4.672   3.077
 9637WAT     H229154   8.666   4.751   3.170
 9638WAT      O29155   0.180   0.677   6.831
 9638WAT     H129156   0.263   0.624   6.817
 9638WAT     H229157   0.168   0.695   6.929
 9639WAT      O29158   9.767   3.276   2.675
 9639WAT     H129159   9.805   3.295   2.765
 9639WAT     H229160   9.781   3.179   2.653
 9640WAT      O29161   6.725   1.826   2.174
 9640WAT     H129162   6.702   1.831   2.271
 9640WAT     H229163   6.824   1.824   2.163
 9641WAT      O29164   2.642   8.872   0.341
 9641WAT     H129165   2.598   8.948   0.294
 9641WAT     H229166   2.741   8.876   0.327
 9642WAT      O29167   0.109   4.731   7.484
 9642WAT     H129168   0.062   4.644   7.497
 9642WAT     H229169   0.046   4.798   7.446
 9643WAT      O29170   1.830   3.855   2.474
 9643WAT     H129171   1.825   3.760   2.443
 9643WAT     H229172   1.917   3.895   2.446
 9644WAT      O29173   7.968   2.827   8.497
 9644WAT     H129174   8.026   2.878   8.560
 9644WAT     H229175   7.900   2.775   8.549
 9645WAT      O29176   9.349   4.985   6.934
 9645WAT     H129177   9.374   5.037   7.016
 9645WAT     H229178   9.356   5.044   6.853
 9646WAT      O29179   4.745   4.431   9.250
 9646WAT     H129180   4.790   4.492   9.315
 9646WAT     H229181   4.686   4.485   9.190
 9647WAT      O29182   2.276   7.604   9.039
 9647WAT     H129183   2.303   7.551   9.120
 9647WAT     H229184   2.330   7.574   8.960
 9648WAT      O29185   6.519   3.350   2.305
 9648WAT     H129186   6.551   3.408   2.230
 9648WAT     H229187   6.593   3.288   2.333
 9649WAT      O29188   3.952   8.452   1.418
 9649WAT     H129189   3.864   8.405   1.418
 9649WAT     H229190   4.009   8.415   1.491
 9650WAT      O29191   2.670   4.714   9.264
 9650WAT     H129192   2.725   4.708   9.180
 9650WAT     H229193   2.659   4.623   9.303
 9651WAT      O29194   9.521   2.208   3.382
 9651WAT     H129195   9.444   2.267   3.408
 9651WAT     H229196   9.583   2.198   3.459
 9652WAT      O29197   9.483   4.056   6.388
 9652WAT     H129198   9.538   4.099   6.461
 9652WAT     H229199   9.392   4.097   6.386
 9653WAT      O29200   5.738   8.554   5.968
 9653WAT     H129201   5.746   8.620   5.894
 9653WAT     H229202   5.702   8.467   5.933
 9654WAT      O29203   5.223   0.258   5.577
 9654WAT     H129204   5.300   0.294   5.630
 9654WAT     H229205   5.207   0.316   5.497
 9655WAT      O29206   2.856   3.765   7.335
 9655WAT     H129207   2.797   3.718   7.401
 9655WAT     H229208   2.950   3.765   7.369
 9656WAT      O29209   0.977   1.176   6.043
 9656WAT     H129210   0.898   1.115   6.042
 9656WAT     H229211   0.982   1.225   5.956
 9657WAT      O29212   5.689   2.657   8.957
 9657WAT     H129213   5.675   2.755   8.941
 9657WAT     H229214   5.625   2.605   8.900
 9658WAT      O29215   3.895   0.854   6.093
 9658WAT     H129216   3.898   0.934   6.033
 9658WAT     H229217   3.980   0.802   6.083
 9659WAT      O29218   3.711   0.399   9.853
 9659WAT     H129219   3.663   0.391   9.940
 9659WAT     H229220   3.806   0.428   9.869
 9660WAT      O29221   2.077   9.346   1.741
 9660WAT     H129222   1.999   9.349   1.678
 9660WAT     H229223   2.142   9.418   1.718
 9661WAT      O29224   8.322   6.069   4.269
 9661WAT     H129225   8.322   6.154   4.322
 9661WAT     H229226   8.323   6.091   4.171
 9662WAT      O29227   4.525   7.100   0.356
 9662WAT     H129228   4.490   7.010   0.331
 9662WAT     H229229   4.462   7.144   0.420
 9663WAT      O29230   5.420   5.630   2.132
 9663WAT     H129231   5.327   5.654   2.164
 9663WAT     H229232   5.483   5.702   2.160
 9664WAT      O29233   1.207   1.493   4.238
 9664WAT     H129234   1.287   1.491   4.178
 9664WAT     H229235   1.188   1.587   4.265
 9665WAT      O29236   3.647   7.158   7.206
 9665WAT     H129237   3.602   7.235   7.161
 9665WAT     H229238   3.706   7.191   7.280
 9666WAT      O29239   9.181   1.249   1.988
 9666WAT     H129240   9.254   1.211   2.044
 9666WAT     H229241   9.101   1.269   2.045
 9667WAT      O29242   5.537   9.735   6.037
 9667WAT     H129243   5.472   9.810   6.051
 9667WAT     H229244   5.597   9.758   5.960
 9668WAT      O29245   6.872   8.223   6.927
 9668WAT     H129246   6.959   8.234   6.879
 9668WAT     H229247   6.857   8.126   6.947
 9669WAT      O29248   4.875   9.332   5.978
 9669WAT     H129249   4.974   9.313   5.975
 9669WAT     H229250   4.828   9.268   5.917
 9670WAT      O29251   0.179   6.282   5.130
 9670WAT     H129252   0.182   6.257   5.033
 9670WAT     H229253   0.205   6.378   5.140
 9671WAT      O29254   9.084   7.602   8.087
 9671WAT     H129255   9.028   7.548   8.024
 9671WAT     H229256   9.051   7.697   8.089
 9672WAT      O29257   2.944   6.029   4.605
 9672WAT     H129258   2.846   6.029   4.586
 9672WAT     H229259   2.960   6.067   4.696
 9673WAT      O29260   9.326   7.011   1.060
 9673WAT     H129261   9.232   7.025   1.027
 9673WAT     H229262   9.329   7.027   1.159
 9674WAT      O29263   6.216   9.507   2.788
 9674WAT     H129264   6.263   9.443   2.727
 9674WAT     H229265   6.226   9.601   2.753
 9675WAT      O29266   2.864   1.239   1.322
 9675WAT     H129267   2.822   1.174   1.386
 9675WAT     H229268   2.963   1.237   1.334
 9676WAT      O29269   4.651   8.835   2.863
 9676WAT     H129270   4.701   8.766   2.917
 9676WAT     H229271   4.691   8.925   2.880
 9677WAT      O29272   8.401   3.630   0.867
 9677WAT     H129273   8.441   3.598   0.953
 9677WAT     H229274   8.302   3.625   0.873
 9678WAT      O29275   5.900   9.448   9.334
 9678WAT     H129276   5.961   9.368   9.337
 9678WAT     H229277   5.819   9.430   9.390
 9679WAT      O29278   5.304   8.499   7.394
 9679WAT     H129279   5.240   8.530   7.323
 9679WAT     H229280   5.328   8.577   7.453
 9680WAT      O29281   5.685   4.796   2.748
 9680WAT     H129282   5.767   4.825   2.700
 9680WAT     H229283   5.692   4.821   2.845
 9681WAT      O29284   8.755   9.334   3.682
 9681WAT     H129285   8.800   9.396   3.617
 9681WAT     H229286   8.685   9.383   3.732
 9682WAT      O29287   3.310   3.715   9.804
 9682WAT     H129288   3.340   3.656   9.879
 9682WAT     H229289   3.361   3.692   9.721
 9683WAT      O29290   0.955   5.585   9.604
 9683WAT     H129291   1.006   5.633   9.533
 9683WAT     H229292   0.907   5.507   9.564
 9684WAT      O29293   8.813   7.947   4.037
 9684WAT     H129294   8.782   8.033   3.997
 9684WAT     H229295   8.734   7.893   4.067
 9685WAT      O29296   9.672   0.514   1.825
 9685WAT     H129297   9.663   0.604   1.868
 9685WAT     H229298   9.583   0.469   1.823
 9686WAT      O29299   5.580   0.869   3.720
 9686WAT     H129300   5.539   0.779   3.732
 9686WAT     H229301   5.678   0.860   3.701
 9687WAT      O29302   0.164   1.876   6.621
 9687WAT     H129303   0.237   1.919   6.675
 9687WAT     H229304   0.195   1.866   6.527
 9688WAT      O29305   6.272   2.499   8.725
 9688WAT     H129306   6.314   2.584   8.758
 9688WAT     H229307   6.180   2.490   8.764
 9689WAT      O29308   2.154   4.840   3.717
 9689WAT     H129309   2.244   4.799   3.733
 9689WAT     H229310   2.083   4.774   3.739
 9690WAT      O29311   1.612   9.543   0.701
 9690WAT     H129312   1.532   9.494   0.666
 9690WAT     H229313   1.587   9.591   0.785
 9691WAT      O29314   8.439   9.228   9.408
 9691WAT     H129315   8.342   9.207   9.394
 9691WAT     H229316   8.454   9.250   9.504
 9692WAT      O29317   6.074   0.350   6.123
 9692WAT     H129318   6.062   0.449   6.125
 9692WAT     H229319   6.162   0.326   6.165
 9693WAT      O29320   1.929   6.341   7.243
 9693WAT     H129321   1.911   6.343   7.341
 9693WAT     H229322   2.006   6.278   7.225
 9694WAT      O29323   6.601   0.744   4.016
 9694WAT     H129324   6.559   0.670   4.067
 9694WAT     H229325   6.680   0.780   4.066
 9695WAT      O29326   6.655   3.693   9.378
 9695WAT     H129327   6.676   3.713   9.283
 9695WAT     H229328   6.624   3.777   9.424
 9696WAT      O29329   6.047   3.651   4.342
 9696WAT     H129330   6.021   3.702   4.424
 9696WAT     H229331   6.062   3.715   4.267
 9697WAT      O29332   6.182   7.893   4.496
 9697WAT     H129333   6.261   7.837   4.473
 9697WAT     H229334   6.133   7.853   4.574
 9698WAT      O29335   6.352   2.646   6.198
 9698WAT     H129336   6.306   2.653   6.109
 9698WAT     H229337   6.438   2.696   6.195
 9699WAT      O29338   1.560   9.257   6.339
 9699WAT     H129339   1.649   9.279   6.299
 9699WAT     H229340   1.560   9.162   6.372
 9700WAT      O29341   2.583   2.643   1.554
 9700WAT     H129342   2.520   2.701   1.502
 9700WAT     H229343   2.669   2.635   1.504
 9701WAT      O29344   1.740   5.025   4.001
 9701WAT     H129345   1.824   4.980   3.971
 9701WAT     H229346   1.751   5.058   4.095
 9702WAT      O29347   8.516   9.254   5.261
 9702WAT     H129348   8.500   9.273   5.358
 9702WAT     H229349   8.586   9.316   5.225
 9703WAT      O29350   1.133   7.494   8.354
 9703WAT     H129351   1.165   7.473   8.447
 9703WAT     H229352   1.189   7.568   8.316
 9704WAT      O29353   4.850   7.302   2.602
 9704WAT     H129354   4.869   7.295   2.699
 9704WAT     H229355   4.832   7.397   2.577
 9705WAT      O29356   3.230   7.102   7.710
 9705WAT     H129357   3.221   7.202   7.714
 9705WAT     H229358   3.172   7.061   7.781
 9706WAT      O29359   0.778   2.574   2.407
 9706WAT     H129360   0.708   2.518   2.363
 9706WAT     H229361   0.780   2.665   2.365
 9707WAT      O29362   5.857   8.189   4.845
 9707WAT     H129363   5.839   8.115   4.909
 9707WAT     H229364   5.796   8.266   4.865
 9708WAT      O29365   3.460   0.976   3.157
 9708WAT     H129366   3.369   0.969   3.117
 9708WAT     H229367   3.494   1.069   3.147
 9709WAT      O29368   9.879   0.958   9.231
 9709WAT     H129369   9.902   0.896   9.307
 9709WAT     H229370   9.805   0.918   9.177
 9710WAT      O29371   5.885   8.445   7.959
 9710WAT     H129372   5.930   8.370   7.911
 9710WAT     H229373   5.841   8.505   7.892
 9711WAT      O29374   0.016   7.789   8.383
 9711WAT     H129375   0.112   7.777   8.407
 9711WAT     H229376   0.008   7.844   8.301
 9712WAT      O29377   3.840   2.470   6.777
 9712WAT     H129378   3.887   2.392   6.820
 9712WAT     H229379   3.746   2.444   6.756
 9713WAT      O29380   7.866   6.176   3.779
 9713WAT     H129381   7.941   6.239   3.799
 9713WAT     H229382   7.779   6.226   3.778
 9714WAT      O29383   6.582   6.562   6.727
 9714WAT     H129384   6.552   6.648   6.687
 9714WAT     H229385   6.632   6.580   6.812
 9715WAT      O29386   3.854   2.722   9.767
 9715WAT     H129387   3.952   2.729   9.749
 9715WAT     H229388   3.813   2.656   9.705
 9716WAT      O29389   9.863   1.497   2.452
 9716WAT     H129390   9.855   1.554   2.534
 9716WAT     H229391   9.850   1.554   2.371
 9717WAT      O29392   4.747   7.684   6.160
 9717WAT     H129393   4.803   7.706   6.239
 9717WAT     H229394   4.770   7.746   6.084
 9718WAT      O29395   7.564   2.906   6.456
 9718WAT     H129396   7.655   2.881   6.421
 9718WAT     H229397   7.566   2.906   6.556
 9719WAT      O29398   2.024   7.492   6.769
 9719WAT     H129399   2.002   7.450   6.680
 9719WAT     H229400   1.958   7.462   6.837
 9720WAT      O29401   7.707   7.067   8.876
 9720WAT     H129402   7.642   7.082   8.802
 9720WAT     H229403   7.744   7.154   8.906
 9721WAT      O29404   7.462   0.321   8.916
 9721WAT     H129405   7.485   0.403   8.863
 9721WAT     H229406   7.363   0.319   8.932
 9722WAT      O29407   3.514   2.333   5.620
 9722WAT     H129408   3.595   2.312   5.564
 9722WAT     H229409   3.501   2.432   5.624
 9723WAT      O29410   2.837   1.314   8.227
 9723WAT     H129411   2.743   1.285   8.246
 9723WAT     H229412   2.880   1.250   8.163
 9724WAT      O29413   4.468   2.231   7.097
 9724WAT     H129414   4.477   2.304   7.029
 9724WAT     H229415   4.383   2.245   7.149
 9725WAT      O29416   0.058   0.273   6.491
 9725WAT     H129417   0.151   0.306   6.477
 9725WAT     H229418   0.011   0.334   6.555
 9726WAT      O29419   4.221   4.338   0.158
 9726WAT     H129420   4.253   4.389   0.237
 9726WAT     H229421   4.140   4.284   0.182
 9727WAT      O29422   8.100   4.305   4.643
 9727WAT     H129423   8.174   4.369   4.619
 9727WAT     H229424   8.012   4.349   4.625
 9728WAT      O29425   4.138   8.432   9.164
 9728WAT     H129426   4.155   8.529   9.183
 9728WAT     H229427   4.202   8.376   9.217
 9729WAT      O29428   6.864   9.239   0.994
 9729WAT     H129429   6.879   9.331   0.959
 9729WAT     H229430   6.767   9.228   1.017
 9730WAT      O29431   5.655   2.906   8.320
 9730WAT     H129432   5.598   2.854   8.256
 9730WAT     H229433   5.601   2.980   8.360
 9731WAT      O29434   7.990   4.454   5.180
 9731WAT     H129435   8.004   4.355   5.189
 9731WAT     H229436   8.020   4.484   5.090
 9732WAT      O29437   4.578   8.640   6.976
 9732WAT     H129438   4.591   8.703   7.053
 9732WAT     H229439   4.559   8.548   7.010
 9733WAT      O29440   0.481   4.123   8.869
 9733WAT     H129441   0.497   4.177   8.952
 9733WAT     H229442   0.562   4.067   8.850
 9734WAT      O29443   8.176   7.498   5.739
 9734WAT     H129444   8.153   7.540   5.827
 9734WAT     H229445   8.160   7.400   5.744
 9735WAT      O29446   7.667   6.300   9.428
 9735WAT     H129447   7.751   6.247   9.412
 9735WAT     H229448   7.603   6.245   9.482
 9736WAT      O29449   4.913   4.547   2.829
 9736WAT     H129450   4.850   4.560   2.753
 9736WAT     H229451   4.970   4.466   2.812
 9737WAT      O29452   0.637   9.713   9.202
 9737WAT     H129453   0.612   9.792   9.146
 9737WAT     H229454   0.702   9.655   9.152
 9738WAT      O29455   1.303   8.183   4.261
 9738WAT     H129456   1.345   8.182   4.170
 9738WAT     H229457   1.356   8.125   4.323
 9739WAT      O29458   4.870   6.512   8.308
 9739WAT     H129459   4.908   6.600   8.334
 9739WAT     H229460   4.770   6.516   8.316
 9740WAT      O29461   2.907   2.862   5.689
 9740WAT     H129462   2.886   2.841   5.594
 9740WAT     H229463   3.000   2.835   5.710
 9741WAT      O29464   6.362   1.607   9.804
 9741WAT     H129465   6.434   1.540   9.822
 9741WAT     H229466   6.393   1.672   9.734
 9742WAT      O29467   9.332   0.478   9.153
 9742WAT     H129468   9.326   0.572   9.117
 9742WAT     H229469   9.388   0.423   9.091
 9743WAT      O29470   3.544   8.584   8.507
 9743WAT     H129471   3.550   8.683   8.517
 9743WAT     H229472   3.625   8.541   8.545
 9744WAT      O29473   4.365   0.794   7.966
 9744WAT     H129474   4.456   0.778   7.927
 9744WAT     H229475   4.296   0.751   7.909
 9745WAT      O29476   8.119   4.512   0.227
 9745WAT     H129477   8.157   4.512   0.135
 9745WAT     H229478   8.034   4.459   0.228
 9746WAT      O29479   0.609   9.367   0.535
 9746WAT     H129480   0.692   9.421   0.526
 9746WAT     H229481   0.554   9.402   0.611
 9747WAT      O29482   0.682   0.776   3.508
 9747WAT     H129483   0.678   0.869   3.542
 9747WAT     H229484   0.610   0.761   3.441
 9748WAT      O29485   9.646   8.938   5.379
 9748WAT     H129486   9.599   8.946   5.468
 9748WAT     H229487   9.734   8.893   5.392
 9749WAT      O29488   7.419   0.106   0.287
 9749WAT     H129489   7.367   0.186   0.319
 9749WAT     H229490   7.476   0.133   0.209
 9750WAT      O29491   6.198   5.802   6.867
 9750WAT     H129492   6.123   5.799   6.934
 9750WAT     H229493   6.176   5.739   6.792
 9751WAT      O29494   8.029   0.601   2.522
 9751WAT     H129495   8.009   0.623   2.427
 9751WAT     H229496   8.092   0.524   2.527
 9752WAT      O29497   8.884   5.026   5.220
 9752WAT     H129498   8.923   5.079   5.145
 9752WAT     H229499   8.957   4.974   5.265
 9753WAT      O29500   4.375   0.583   6.036
 9753WAT     H129501   4.294   0.544   5.993
 9753WAT     H229502   4.456   0.560   5.981
 9754WAT      O29503   6.859   8.569   6.654
 9754WAT     H129504   6.860   8.623   6.570
 9754WAT     H229505   6.942   8.588   6.707
 9755WAT      O29506   3.197   3.070   6.658
 9755WAT     H129507   3.164   3.161   6.681
 9755WAT     H229508   3.152   3.002   6.717
 9756WAT      O29509   2.458   1.328   6.698
 9756WAT     H129510   2.494   1.418   6.721
 9756WAT     H229511   2.503   1.258   6.753
 9757WAT      O29512   8.888   7.128   8.868
 9757WAT     H129513   8.895   7.067   8.789
 9757WAT     H229514   8.873   7.222   8.837
 9758WAT      O29515   5.645   8.601   8.413
 9758WAT     H129516   5.651   8.553   8.326
 9758WAT     H229517   5.729   8.654   8.428
 9759WAT      O29518   1.144   9.504   9.620
 9759WAT     H129519   1.234   9.470   9.596
 9759WAT     H229520   1.145   9.540   9.714
 9760WAT      O29521   6.143   6.570   5.809
 9760WAT     H129522   6.100   6.599   5.724
 9760WAT     H229523   6.188   6.482   5.795
 9761WAT      O29524   7.445   2.218   0.895
 9761WAT     H129525   7.454   2.214   0.994
 9761WAT     H229526   7.527   2.179   0.852
 9762WAT      O29527   6.860   7.882   8.503
 9762WAT     H129528   6.887   7.885   8.407
 9762WAT     H229529   6.915   7.814   8.551
 9763WAT      O29530   8.587   7.812   6.486
 9763WAT     H129531   8.516   7.745   6.510
 9763WAT     H229532   8.568   7.851   6.396
 9764WAT      O29533   6.825   3.993   8.608
 9764WAT     H129534   6.794   3.941   8.688
 9764WAT     H229535   6.832   4.090   8.631
 9765WAT      O29536   8.446   6.704   8.090
 9765WAT     H129537   8.403   6.638   8.151
 9765WAT     H229538   8.524   6.661   8.044
 9766WAT      O29539   7.330   7.576   2.632
 9766WAT     H129540   7.397   7.503   2.640
 9766WAT     H229541   7.249   7.554   2.687
 9767WAT      O29542   0.424   5.643   3.090
 9767WAT     H129543   0.351   5.638   3.158
 9767WAT     H229544   0.455   5.551   3.067
 9768WAT      O29545   8.900   5.144   9.301
 9768WAT     H129546   8.831   5.217   9.311
 9768WAT     H229547   8.972   5.175   9.239
 9769WAT      O29548   4.023   2.005   4.853
 9769WAT     H129549   4.105   2.026   4.906
 9769WAT     H229550   4.028   2.049   4.764
 9770WAT      O29551   9.863   0.893   2.726
 9770WAT     H129552   9.792   0.915   2.658
 9770WAT     H229553   9.882   0.973   2.782
 9771WAT      O29554   7.341   7.447   4.381
 9771WAT     H129555   7.243   7.442   4.395
 9771WAT     H229556   7.363   7.525   4.322
 9772WAT      O29557   7.608   5.703   7.313
 9772WAT     H129558   7.650   5.747   7.392
 9772WAT     H229559   7.567   5.616   7.340
 9773WAT      O29560   8.433   3.406   0.696
 9773WAT     H129561   8.428   3.464   0.777
 9773WAT     H229562   8.523   3.415   0.654
 9774WAT      O29563   7.027   3.737   3.095
 9774WAT     H129564   7.079   3.758   3.012
 9774WAT     H229565   6.941   3.788   3.095
 9775WAT      O29566   8.398   9.429   5.672
 9775WAT     H129567   8.419   9.512   5.622
 9775WAT     H229568   8.300   9.409   5.665
 9776WAT      O29569   7.943   7.019   8.413
 9776WAT     H129570   7.993   6.966   8.481
 9776WAT     H229571   7.845   7.011   8.431
 9777WAT      O29572   5.067   7.093   9.816
 9777WAT     H129573   5.065   7.067   9.912
 9777WAT     H229574   5.072   7.010   9.759
 9778WAT      O29575   6.323   0.222   1.442
 9778WAT     H129576   6.384   0.239   1.519
 9778WAT     H229577   6.356   0.145   1.389
 9779WAT      O29578   0.357   4.819   4.628
 9779WAT     H129579   0.445   4.834   4.674
 9779WAT     H229580   0.299   4.761   4.685
 9780WAT      O29581   8.500   3.435   6.431
 9780WAT     H129582   8.439   3.506   6.398
 9780WAT     H229583   8.557   3.471   6.505
 9781WAT      O29584   1.553   0.197   4.006
 9781WAT     H129585   1.552   0.297   4.005
 9781WAT     H229586   1.558   0.165   4.101
 9782WAT      O29587   8.019   2.222   7.379
 9782WAT     H129588   7.973   2.252   7.295
 9782WAT     H229589   8.114   2.251   7.376
 9783WAT      O29590   8.558   5.619   4.429
 9783WAT     H129591   8.520   5.712   4.423
 9783WAT     H229592   8.502   5.564   4.490
 9784WAT      O29593   7.186   1.683   6.381
 9784WAT     H129594   7.156   1.779   6.381
 9784WAT     H229595   7.164   1.641   6.469
 9785WAT      O29596   5.115   0.802   7.448
 9785WAT     H129597   5.136   0.894   7.479
 9785WAT     H229598   5.199   0.758   7.416
 9786WAT      O29599   9.834   5.794   7.044
 9786WAT     H129600   9.901   5.784   7.118
 9786WAT     H229601   9.742   5.804   7.084
 9787WAT      O29602   1.265   3.505   2.822
 9787WAT     H129603   1.179   3.473   2.782
 9787WAT     H229604   1.340   3.447   2.791
 9788WAT      O29605   6.449   2.291   2.690
 9788WAT     H129606   6.361   2.248   2.712
 9788WAT     H229607   6.514   2.273   2.763
 9789WAT      O29608   8.553   2.773   1.597
 9789WAT     H129609   8.626   2.841   1.607
 9789WAT     H229610   8.589   2.690   1.555
 9790WAT      O29611   9.779   3.604   5.836
 9790WAT     H129612   9.788   3.594   5.737
 9790WAT     H229613   9.774   3.513   5.879
 9791WAT      O29614   6.606   7.967   5.504
 9791WAT     H129615   6.595   7.946   5.407
 9791WAT     H229616   6.516   7.988   5.544
 9792WAT      O29617   0.271   3.501   9.115
 9792WAT     H129618   0.274   3.466   9.022
 9792WAT     H229619   0.348   3.563   9.130
 9793WAT      O29620   4.223   2.920   2.528
 9793WAT     H129621   4.253   3.006   2.570
 9793WAT     H229622   4.150   2.939   2.463
 9794WAT      O29623   8.506   3.509   2.685
 9794WAT     H129624   8.588   3.566   2.690
 9794WAT     H229625   8.519   3.427   2.741
 9795WAT      O29626   7.127   3.741   6.490
 9795WAT     H129627   7.197   3.806   6.462
 9795WAT     H229628   7.155   3.648   6.463
 9796WAT      O29629   7.902   8.869   0.527
 9796WAT     H129630   7.974   8.864   0.596
 9796WAT     H229631   7.915   8.795   0.461
 9797WAT      O29632   3.409   5.277   9.611
 9797WAT     H129633   3.398   5.343   9.685
 9797WAT     H229634   3.443   5.191   9.648
 9798WAT      O29635   0.214   8.954   4.326
 9798WAT     H129636   0.289   8.920   4.381
 9798WAT     H229637   0.222   9.053   4.315
 9799WAT      O29638   5.591   1.474   3.383
 9799WAT     H129639   5.612   1.378   3.365
 9799WAT     H229640   5.589   1.490   3.482
 9800WAT      O29641   1.959   3.868   3.380
 9800WAT     H129642   1.945   3.957   3.336
 9800WAT     H229643   1.898   3.801   3.339
 9801WAT      O29644   1.755   5.350   5.664
 9801WAT     H129645   1.791   5.388   5.579
 9801WAT     H229646   1.712   5.422   5.717
 9802WAT      O29647   8.018   3.125   0.724
 9802WAT     H129648   7.989   3.170   0.640
 9802WAT     H229649   8.057   3.036   0.703
 9803WAT      O29650   6.039   2.940   2.681
 9803WAT     H129651   6.048   3.035   2.650
 9803WAT     H229652   6.089   2.880   2.618
 9804WAT      O29653   6.064   0.363   3.458
 9804WAT     H129654   5.964   0.361   3.462
 9804WAT     H229655   6.097   0.288   3.400
 9805WAT      O29656   1.666   4.977   4.513
 9805WAT     H129657   1.659   5.053   4.577
 9805WAT     H229658   1.762   4.954   4.499
 9806WAT      O29659   7.020   4.153   5.669
 9806WAT     H129660   6.938   4.096   5.675
 9806WAT     H229661   7.101   4.095   5.679
 9807WAT      O29662   2.987   1.566   5.520
 9807WAT     H129663   2.954   1.659   5.537
 9807WAT     H229664   2.975   1.544   5.423
 9808WAT      O29665   0.481   3.346   3.023
 9808WAT     H129666   0.547   3.273   3.008
 9808WAT     H229667   0.524   3.434   3.005
 9809WAT      O29668   0.035   3.253   6.103
 9809WAT     H129669   0.106   3.319   6.125
 9809WAT     H229670   0.071   3.184   6.040
 9810WAT      O29671   5.126   4.336   2.673
 9810WAT     H129672   5.224   4.320   2.669
 9810WAT     H229673   5.087   4.290   2.753
 9811WAT      O29674   5.454   1.503   4.434
 9811WAT     H129675   5.468   1.558   4.517
 9811WAT     H229676   5.413   1.560   4.363
 9812WAT      O29677   1.023   8.519   4.665
 9812WAT     H129678   1.084   8.487   4.738
 9812WAT     H229679   0.928   8.506   4.692
 9813WAT      O29680   2.910   3.818   5.887
 9813WAT     H129681   3.005   3.840   5.862
 9813WAT     H229682   2.882   3.735   5.839
 9814WAT      O29683   5.965   3.309   4.884
 9814WAT     H129684   6.005   3.233   4.936
 9814WAT     H229685   5.894   3.353   4.939
 9815WAT      O29686   1.532   1.602   7.463
 9815WAT     H129687   1.537   1.689   7.415
 9815WAT     H229688   1.583   1.533   7.411
 9816WAT      O29689   1.506   4.278   8.578
 9816WAT     H129690   1.456   4.245   8.498
 9816WAT     H229691   1.470   4.367   8.605
 9817WAT      O29692   5.351   6.516   0.449
 9817WAT     H129693   5.259   6.477   0.455
 9817WAT     H229694   5.389   6.499   0.358
 9818WAT      O29695   5.882   7.951   8.099
 9818WAT     H129696   5.971   7.967   8.141
 9818WAT     H229697   5.815   7.928   8.170
 9819WAT      O29698   4.500   9.333   4.571
 9819WAT     H129699   4.402   9.319   4.561
 9819WAT     H229700   4.517   9.400   4.643
 9820WAT      O29701   2.384   1.253   6.150
 9820WAT     H129702   2.342   1.241   6.240
 9820WAT     H229703   2.475   1.212   6.150
 9821WAT      O29704   4.574   1.933   3.168
 9821WAT     H129705   4.584   1.836   3.148
 9821WAT     H229706   4.648   1.984   3.125
 9822WAT      O29707   3.209   5.790   3.319
 9822WAT     H129708   3.239   5.868   3.373
 9822WAT     H229709   3.121   5.757   3.352
 9823WAT      O29710   9.813   2.523   1.223
 9823WAT     H129711   9.746   2.449   1.224
 9823WAT     H229712   9.832   2.549   1.128
 9824WAT      O29713   2.099   2.340   8.569
 9824WAT     H129714   2.144   2.266   8.520
 9824WAT     H229715   2.126   2.338   8.665
 9825WAT      O29716   7.737   4.343   6.411
 9825WAT     H129717   7.693   4.417   6.361
 9825WAT     H229718   7.807   4.300   6.354
 9826WAT      O29719   6.070   2.250   5.678
 9826WAT     H129720   6.007   2.323   5.652
 9826WAT     H229721   6.064   2.236   5.777
 9827WAT      O29722   6.682   3.691   4.699
 9827WAT     H129723   6.719   3.603   4.727
 9827WAT     H229724   6.723   3.764   4.755
 9828WAT      O29725   2.577   2.522   3.029
 9828WAT     H129726   2.490   2.489   3.066
 9828WAT     H229727   2.644   2.448   3.030
 9829WAT      O29728   8.913   8.903   2.133
 9829WAT     H129729   8.823   8.864   2.150
 9829WAT     H229730   8.905   8.987   2.080
 9830WAT      O29731   9.638   0.313   4.985
 9830WAT     H129732   9.583   0.390   4.953
 9830WAT     H229733   9.625   0.235   4.924
 9831WAT      O29734   9.198   3.059   2.790
 9831WAT     H129735   9.279   3.016   2.829
 9831WAT     H229736   9.226   3.128   2.724
 9832WAT      O29737   5.051   8.489   8.750
 9832WAT     H129738   4.958   8.525   8.757
 9832WAT     H229739   5.072   8.435   8.831
 9833WAT      O29740   5.966   2.909   1.465
 9833WAT     H129741   5.985   2.990   1.409
 9833WAT     H229742   6.001   2.828   1.418
 9834WAT      O29743   4.417   1.791   2.871
 9834WAT     H129744   4.483   1.756   2.805
 9834WAT     H229745   4.455   1.785   2.963
 9835WAT      O29746   0.140   0.601   9.629
 9835WAT     H129747   0.161   0.520   9.683
 9835WAT     H229748   0.211   0.669   9.643
 9836WAT      O29749   7.335   5.752   5.290
 9836WAT     H129750   7.262   5.758   5.357
 9836WAT     H229751   7.423   5.763   5.336
 9837WAT      O29752   2.063   5.049   5.972
 9837WAT     H129753   2.032   5.081   5.883
 9837WAT     H229754   2.107   4.960   5.962
 9838WAT      O29755   0.042   0.864   8.358
 9838WAT     H129756   0.014   0.776   8.396
 9838WAT     H229757   0.062   0.927   8.433
 9839WAT      O29758   2.979   1.425   3.583
 9839WAT     H129759   3.017   1.483   3.656
 9839WAT     H229760   2.917   1.479   3.527
 9840WAT      O29761   6.902   5.214   1.849
 9840WAT     H129762   6.816   5.242   1.891
 9840WAT     H229763   6.958   5.166   1.917
 9841WAT      O29764   6.988   1.663   9.069
 9841WAT     H129765   7.000   1.572   9.032
 9841WAT     H229766   7.073   1.715   9.058
 9842WAT      O29767   2.518   6.260   4.189
 9842WAT     H129768   2.433   6.299   4.154
 9842WAT     H229769   2.540   6.177   4.138
 9843WAT      O29770   8.131   7.232   5.731
 9843WAT     H129771   8.211   7.183   5.764
 9843WAT     H229772   8.050   7.201   5.780
 9844WAT      O29773   0.195   5.450   1.696
 9844WAT     H129774   0.263   5.476   1.764
 9844WAT     H229775   0.148   5.532   1.664
 9845WAT      O29776   9.169   4.537   2.363
 9845WAT     H129777   9.241   4.605   2.345
 9845WAT     H229778   9.096   4.547   2.295
 9846WAT      O29779   6.236   4.165   6.932
 9846WAT     H129780   6.203   4.222   6.857
 9846WAT     H229781   6.163   4.105   6.963
 9847WAT      O29782   2.294   3.009   7.884
 9847WAT     H129783   2.215   2.955   7.912
 9847WAT     H229784   2.320   2.983   7.791
 9848WAT      O29785   6.971   8.977   8.891
 9848WAT     H129786   6.936   8.995   8.983
 9848WAT     H229787   6.941   8.886   8.862
 9849WAT      O29788   4.753   9.499   0.745
 9849WAT     H129789   4.840   9.449   0.743
 9849WAT     H229790   4.684   9.448   0.694
 9850WAT      O29791   1.478   7.336   3.734
 9850WAT     H129792   1.536   7.255   3.739
 9850WAT     H229793   1.482   7.386   3.820
 9851WAT      O29794   4.082   5.760   1.285
 9851WAT     H129795   4.125   5.733   1.371
 9851WAT     H229796   3.999   5.813   1.304
 9852WAT      O29797   1.664   3.201   4.363
 9852WAT     H129798   1.577   3.150   4.363
 9852WAT     H229799   1.700   3.205   4.270
 9853WAT      O29800   4.887   0.845   6.533
 9853WAT     H129801   4.793   0.834   6.503
 9853WAT     H229802   4.889   0.866   6.631
 9854WAT      O29803   0.278   1.710   8.439
 9854WAT     H129804   0.190   1.741   8.475
 9854WAT     H229805   0.296   1.617   8.472
 9855WAT      O29806   0.976   3.966   4.286
 9855WAT     H129807   0.971   3.960   4.386
 9855WAT     H229808   0.890   3.934   4.247
 9856WAT      O29809   9.079   3.757   3.674
 9856WAT     H129810   9.160   3.699   3.672
 9856WAT     H229811   9.004   3.712   3.625
 9857WAT      O29812   5.405   9.148   0.217
 9857WAT     H129813   5.377   9.181   0.307
 9857WAT     H229814   5.468   9.213   0.176
 9858WAT      O29815   9.843   5.266   4.281
 9858WAT     H129816   9.818   5.232   4.372
 9858WAT     H229817   9.872   5.190   4.223
 9859WAT      O29818   8.907   4.028   0.923
 9859WAT     H129819   8.979   4.092   0.952
 9859WAT     H229820   8.818   4.064   0.947
 9860WAT      O29821   4.888   3.845   1.885
 9860WAT     H129822   4.815   3.914   1.893
 9860WAT     H229823   4.968   3.874   1.937
 9861WAT      O29824   4.134   6.648   5.825
 9861WAT     H129825   4.211   6.705   5.796
 9861WAT     H229826   4.124   6.572   5.761
 9862WAT      O29827   3.066   0.250   6.630
 9862WAT     H129828   3.134   0.269   6.558
 9862WAT     H229829   3.073   0.320   6.701
 9863WAT      O29830   8.644   7.076   0.673
 9863WAT     H129831   8.647   7.048   0.577
 9863WAT     H229832   8.674   7.000   0.731
 9864WAT      O29833   2.764   1.200   6.538
 9864WAT     H129834   2.744   1.127   6.473
 9864WAT     H229835   2.780   1.160   6.628
 9865WAT      O29836   0.904   1.452   9.799
 9865WAT     H129837   0.889   1.521   9.729
 9865WAT     H229838   0.877   1.489   9.888
 9866WAT      O29839   7.435   3.583   8.241
 9866WAT     H129840   7.398   3.567   8.150
 9866WAT     H229841   7.360   3.598   8.306
 9867WAT      O29842   2.281   1.893   8.427
 9867WAT     H129843   2.242   1.818   8.373
 9867WAT     H229844   2.380   1.897   8.411
 9868WAT      O29845   6.434   4.924   3.234
 9868WAT     H129846   6.453   5.021   3.249
 9868WAT     H229847   6.414   4.880   3.321
 9869WAT      O29848   5.531   2.816   4.519
 9869WAT     H129849   5.623   2.781   4.497
 9869WAT     H229850   5.465   2.777   4.456
 9870WAT      O29851   7.420   0.224   0.611
 9870WAT     H129852   7.434   0.125   0.601
 9870WAT     H229853   7.507   0.266   0.638
 9871WAT      O29854   0.606   8.955   8.389
 9871WAT     H129855   0.584   8.859   8.402
 9871WAT     H229856   0.524   9.006   8.365
 9872WAT      O29857   3.595   9.215   8.555
 9872WAT     H129858   3.514   9.180   8.604
 9872WAT     H229859   3.619   9.305   8.591
 9873WAT      O29860   6.367   0.886   4.103
 9873WAT     H129861   6.416   0.817   4.051
 9873WAT     H229862   6.430   0.931   4.167
 9874WAT      O29863   1.846   2.015   6.906
 9874WAT     H129864   1.825   1.943   6.840
 9874WAT     H229865   1.776   2.016   6.978
 9875WAT      O29866   1.885   0.858   9.678
 9875WAT     H129867   1.821   0.934   9.666
 9875WAT     H229868   1.976   0.895   9.697
 9876WAT      O29869   8.424   7.276   4.755
 9876WAT     H129870   8.435   7.181   4.783
 9876WAT     H229871   8.470   7.336   4.820
 9877WAT      O29872   0.971   6.108   3.575
 9877WAT     H129873   0.987   6.207   3.575
 9877WAT     H229874   1.043   6.062   3.524
 9878WAT      O29875   3.759   7.098   1.701
 9878WAT     H129876   3.767   7.150   1.616
 9878WAT     H229877   3.748   7.001   1.680
 9879WAT      O29878   1.993   0.530   7.306
 9879WAT     H129879   2.012   0.567   7.397
 9879WAT     H229880   2.079   0.500   7.264
 9880WAT      O29881   6.419   8.462   2.093
 9880WAT     H129882   6.338   8.419   2.132
 9880WAT     H229883   6.471   8.507   2.166
 9881WAT      O29884   3.020   7.477   1.824
 9881WAT     H129885   3.079   7.399   1.845
 9881WAT     H229886   2.944   7.447   1.766
 9882WAT      O29887   0.293   4.483   5.356
 9882WAT     H129888   0.372   4.527   5.314
 9882WAT     H229889   0.265   4.404   5.301
 9883WAT      O29890   1.867   8.123   4.165
 9883WAT     H129891   1.922   8.077   4.235
 9883WAT     H229892   1.880   8.077   4.077
 9884WAT      O29893   1.119   2.742   7.141
 9884WAT     H129894   1.088   2.740   7.046
 9884WAT     H229895   1.197   2.803   7.150
 9885WAT      O29896   2.960   0.220   8.788
 9885WAT     H129897   2.990   0.125   8.778
 9885WAT     H229898   2.899   0.228   8.867
 9886WAT      O29899   3.876   3.816   7.641
 9886WAT     H129900   3.970   3.828   7.608
 9886WAT     H229901   3.816   3.799   7.563
 9887WAT      O29902   0.989   8.389   5.806
 9887WAT     H129903   0.927   8.433   5.870
 9887WAT     H229904   0.979   8.290   5.811
 9888WAT      O29905   7.423   4.657   2.768
 9888WAT     H129906   7.344   4.682   2.823
 9888WAT     H229907   7.476   4.587   2.816
 9889WAT      O29908   5.488   8.867   1.037
 9889WAT     H129909   5.541   8.864   0.952
 9889WAT     H229910   5.528   8.805   1.104
 9890WAT      O29911   1.899   4.527   1.824
 9890WAT     H129912   1.848   4.571   1.898
 9890WAT     H229913   1.993   4.559   1.824
 9891WAT      O29914   4.581   7.651   9.474
 9891WAT     H129915   4.642   7.606   9.538
 9891WAT     H229916   4.601   7.749   9.473
 9892WAT      O29917   6.101   9.782   3.071
 9892WAT     H129918   6.030   9.849   3.047
 9892WAT     H229919   6.057   9.699   3.105
 9893WAT      O29920   0.919   3.461   6.710
 9893WAT     H129921   0.829   3.503   6.717
 9893WAT     H229922   0.910   3.362   6.719
 9894WAT      O29923   4.797   8.610   8.984
 9894WAT     H129924   4.782   8.598   8.886
 9894WAT     H229925   4.846   8.530   9.020
 9895WAT      O29926   2.980   6.613   0.517
 9895WAT     H129927   2.933   6.563   0.444
 9895WAT     H229928   2.916   6.675   0.561
 9896WAT      O29929   5.487   1.979   0.306
 9896WAT     H129930   5.412   2.033   0.346
 9896WAT     H229931   5.574   2.024   0.325
 9897WAT      O29932   4.948   7.895   4.722
 9897WAT     H129933   5.033   7.847   4.697
 9897WAT     H229934   4.870   7.839   4.696
 9898WAT      O29935   8.297   2.602   7.411
 9898WAT     H129936   8.255   2.604   7.320
 9898WAT     H229937   8.364   2.675   7.419
 9899WAT      O29938   0.403   4.381   2.094
 9899WAT     H129939   0.334   4.321   2.055
 9899WAT     H229940   0.368   4.424   2.177
 9900WAT      O29941   0.795   6.540   7.329
 9900WAT     H129942   0.864   6.604   7.293
 9900WAT     H229943   0.840   6.455   7.357
 9901WAT      O29944   4.666   0.986   1.915
 9901WAT     H129945   4.760   0.974   1.883
 9901WAT     H229946   4.621   1.058   1.862
 9902WAT      O29947   0.838   9.151   4.069
 9902WAT     H129948   0.910   9.107   4.015
 9902WAT     H229949   0.799   9.084   4.132
 9903WAT      O29950   0.200   5.622   3.995
 9903WAT     H129951   0.187   5.542   4.054
 9903WAT     H229952   0.293   5.620   3.957
 9904WAT      O29953   6.426   0.409   9.455
 9904WAT     H129954   6.454   0.454   9.540
 9904WAT     H229955   6.376   0.325   9.477
 9905WAT      O29956   6.243   1.297   5.721
 9905WAT     H129957   6.227   1.249   5.635
 9905WAT     H229958   6.173   1.272   5.787
 9906WAT      O29959   1.115   4.151   3.108
 9906WAT     H129960   1.192   4.207   3.140
 9906WAT     H229961   1.122   4.139   3.009
 9907WAT      O29962   0.599   7.176   6.327
 9907WAT     H129963   0.543   7.217   6.255
 9907WAT     H229964   0.587   7.077   6.326
 9908WAT      O29965   1.321   0.108   3.525
 9908WAT     H129966   1.353   0.082   3.617
 9908WAT     H229967   1.307   0.207   3.523
 9909WAT      O29968   5.219   2.936   7.980
 9909WAT     H129969   5.136   2.933   8.035
 9909WAT     H229970   5.196   2.958   7.885
 9910WAT      O29971   3.775   6.114   8.474
 9910WAT     H129972   3.735   6.177   8.408
 9910WAT     H229973   3.717   6.110   8.556
 9911WAT      O29974   6.733   3.443   0.412
 9911WAT     H129975   6.662   3.373   0.416
 9911WAT     H229976   6.719   3.502   0.332
 9912WAT      O29977   7.964   1.177   3.391
 9912WAT     H129978   8.012   1.102   3.344
 9912WAT     H229979   7.876   1.145   3.425
 9913WAT      O29980   5.795   6.754   2.709
 9913WAT     H129981   5.828   6.817   2.638
 9913WAT     H229982   5.696   6.745   2.703
 9914WAT      O29983   3.279   6.809   1.061
 9914WAT     H129984   3.201   6.755   1.093
 9914WAT     H229985   3.336   6.834   1.140
 9915WAT      O29986   4.750   6.232   9.044
 9915WAT     H129987   4.847   6.237   9.022
 9915WAT     H229988   4.698   6.204   8.963
 9916WAT      O29989   2.716   2.019   0.168
 9916WAT     H129990   2.802   1.970   0.156
 9916WAT     H229991   2.718   2.071   0.253
 9917WAT      O29992   7.822   0.505   0.186
 9917WAT     H129993   7.826   0.605   0.179
 9917WAT     H229994   7.871   0.476   0.268
 9918WAT      O29995   9.693   1.952   1.707
 9918WAT     H129996   9.619   1.959   1.640
 9918WAT     H229997   9.776   1.991   1.668
 9919WAT      O29998   6.886   5.738   5.043
 9919WAT     H129999   6.842   5.727   5.132
 9919WAT     H230000   6.910   5.649   5.005
 9920WAT      O30001   4.358   5.961   7.522
 9920WAT     H130002   4.454   5.988   7.527
 9920WAT     H230003   4.318   5.964   7.614
 9921WAT      O30004   1.852   9.753   1.525
 9921WAT     H130005   1.925   9.773   1.590
 9921WAT     H230006   1.783   9.695   1.569
 9922WAT      O30007   1.881   9.764   2.918
 9922WAT     H130008   1.957   9.729   2.972
 9922WAT     H230009   1.795   9.743   2.965
 9923WAT      O30010   8.610   0.354   6.400
 9923WAT     H130011   8.623   0.267   6.448
 9923WAT     H230012   8.603   0.337   6.302
 9924WAT      O30013   0.851   3.128   4.476
 9924WAT     H130014   0.766   3.076   4.485
 9924WAT     H230015   0.929   3.070   4.501
 9925WAT      O30016   7.433   1.220   8.484
 9925WAT     H130017   7.363   1.273   8.533
 9925WAT     H230018   7.392   1.179   8.403
 9926WAT      O30019   1.962   5.837   6.495
 9926WAT     H130020   1.906   5.877   6.423
 9926WAT     H230021   2.040   5.788   6.455
 9927WAT      O30022   6.591   6.490   8.852
 9927WAT     H130023   6.561   6.434   8.930
 9927WAT     H230024   6.688   6.477   8.836
 9928WAT      O30025   3.567   3.107   3.700
 9928WAT     H130026   3.508   3.135   3.777
 9928WAT     H230027   3.644   3.054   3.735
 9929WAT      O30028   6.057   8.280   9.395
 9929WAT     H130029   6.025   8.253   9.304
 9929WAT     H230030   6.053   8.380   9.403
 9930WAT      O30031   0.223   9.620   2.952
 9930WAT     H130032   0.195   9.713   2.975
 9930WAT     H230033   0.301   9.593   3.008
 9931WAT      O30034   1.810   1.250   6.078
 9931WAT     H130035   1.895   1.199   6.065
 9931WAT     H230036   1.829   1.331   6.135
 9932WAT      O30037   7.798   3.490   2.206
 9932WAT     H130038   7.779   3.538   2.291
 9932WAT     H230039   7.715   3.443   2.175
 9933WAT      O30040   0.371   5.888   0.419
 9933WAT     H130041   0.315   5.861   0.497
 9933WAT     H230042   0.459   5.840   0.422
 9934WAT      O30043   1.040   2.417   2.660
 9934WAT     H130044   1.048   2.501   2.606
 9934WAT     H230045   0.986   2.435   2.742
 9935WAT      O30046   4.317   3.183   9.635
 9935WAT     H130047   4.343   3.115   9.703
 9935WAT     H230048   4.218   3.197   9.637
 9936WAT      O30049   2.497   8.796   2.562
 9936WAT     H130050   2.422   8.843   2.609
 9936WAT     H230051   2.523   8.715   2.615
 9937WAT      O30052   1.637   3.713   2.621
 9937WAT     H130053   1.706   3.771   2.577
 9937WAT     H230054   1.576   3.675   2.551
 9938WAT      O30055   1.756   7.446   8.774
 9938WAT     H130056   1.855   7.437   8.769
 9938WAT     H230057   1.720   7.379   8.839
 9939WAT      O30058   3.549   2.816   0.527
 9939WAT     H130059   3.604   2.745   0.482
 9939WAT     H230060   3.552   2.899   0.472
 9940WAT      O30061   9.078   2.277   4.058
 9940WAT     H130062   9.084   2.198   4.120
 9940WAT     H230063   9.158   2.335   4.071
 9941WAT      O30064   3.280   4.303   4.486
 9941WAT     H130065   3.368   4.261   4.460
 9941WAT     H230066   3.297   4.377   4.550
 9942WAT      O30067   4.731   9.667   0.421
 9942WAT     H130068   4.829   9.686   0.420
 9942WAT     H230069   4.681   9.750   0.448
 9943WAT      O30070   8.838   4.148   8.452
 9943WAT     H130071   8.915   4.117   8.508
 9943WAT     H230072   8.755   4.150   8.509
 9944WAT      O30073   0.778   0.091   0.223
 9944WAT     H130074   0.837   0.098   0.303
 9944WAT     H230075   0.778   0.178   0.173
 9945WAT      O30076   4.737   0.283   8.082
 9945WAT     H130077   4.776   0.334   8.159
 9945WAT     H230078   4.809   0.231   8.036
 9946WAT      O30079   2.807   8.141   9.474
 9946WAT     H130080   2.780   8.127   9.379
 9946WAT     H230081   2.757   8.218   9.512
 9947WAT      O30082   0.544   7.072   5.661
 9947WAT     H130083   0.567   7.154   5.607
 9947WAT     H230084   0.597   7.074   5.746
 9948WAT      O30085   9.235   7.011   7.208
 9948WAT     H130086   9.179   7.021   7.125
 9948WAT     H230087   9.232   7.096   7.261
 9949WAT      O30088   3.511   9.256   3.184
 9949WAT     H130089   3.527   9.334   3.244
 9949WAT     H230090   3.471   9.287   3.098
 9950WAT      O30091   1.382   1.730   0.715
 9950WAT     H130092   1.289   1.732   0.751
 9950WAT     H230093   1.379   1.733   0.615
 9951WAT      O30094   3.351   5.359   0.803
 9951WAT     H130095   3.271   5.417   0.790
 9951WAT     H230096   3.348   5.283   0.737
 9952WAT      O30097   0.868   9.311   4.528
 9952WAT     H130098   0.931   9.357   4.591
 9952WAT     H230099   0.785   9.366   4.517
 9953WAT      O30100   3.757   8.670   5.666
 9953WAT     H130101   3.753   8.740   5.737
 9953WAT     H230102   3.852   8.659   5.637
 9954WAT      O30103   4.968   7.976   8.331
 9954WAT     H130104   4.947   8.003   8.237
 9954WAT     H230105   4.906   7.904   8.360
 9955WAT      O30106   0.604   2.244   2.013
 9955WAT     H130107   0.593   2.241   1.914
 9955WAT     H230108   0.583   2.155   2.053
 9956WAT      O30109   4.246   2.739   7.538
 9956WAT     H130110   4.198   2.722   7.625
 9956WAT     H230111   4.224   2.831   7.506
 9957WAT      O30112   1.845   6.596   8.258
 9957WAT     H130113   1.812   6.588   8.351
 9957WAT     H230114   1.801   6.674   8.213
 9958WAT      O30115   6.868   9.352   9.024
 9958WAT     H130116   6.935   9.341   9.098
 9958WAT     H230117   6.799   9.419   9.052
 9959WAT      O30118   7.973   1.221   1.744
 9959WAT     H130119   7.913   1.198   1.821
 9959WAT     H230120   8.009   1.137   1.703
 9960WAT      O30121   6.451   2.982   3.699
 9960WAT     H130122   6.543   3.018   3.685
 9960WAT     H230123   6.412   3.021   3.782
 9961WAT      O30124   1.580   9.628   5.531
 9961WAT     H130125   1.589   9.675   5.619
 9961WAT     H230126   1.606   9.690   5.457
 9962WAT      O30127   2.977   2.524   2.432
 9962WAT     H130128   2.898   2.583   2.449
 9962WAT     H230129   2.956   2.460   2.358
 9963WAT      O30130   1.109   4.362   8.643
 9963WAT     H130131   1.033   4.419   8.672
 9963WAT     H230132   1.120   4.368   8.544
 9964WAT      O30133   8.814   1.981   3.183
 9964WAT     H130134   8.853   2.062   3.228
 9964WAT     H230135   8.725   1.960   3.225
 9965WAT      O30136   5.009   5.079   5.958
 9965WAT     H130137   4.910   5.080   5.952
 9965WAT     H230138   5.037   5.076   6.054
 9966WAT      O30139   9.455   3.954   9.481
 9966WAT     H130140   9.519   3.910   9.417
 9966WAT     H230141   9.457   3.906   9.568
 9967WAT      O30142   1.941   6.709   2.595
 9967WAT     H130143   1.858   6.667   2.559
 9967WAT     H230144   1.920   6.754   2.682
 9968WAT      O30145   6.058   1.796   7.759
 9968WAT     H130146   6.126   1.862   7.792
 9968WAT     H230147   6.059   1.795   7.659
 9969WAT      O30148   8.280   0.455   4.032
 9969WAT     H130149   8.278   0.504   3.944
 9969WAT     H230150   8.194   0.471   4.080
 9970WAT      O30151   9.534   6.672   4.344
 9970WAT     H130152   9.434   6.680   4.346
 9970WAT     H230153   9.565   6.656   4.250
 9971WAT      O30154   9.653   8.702   8.275
 9971WAT     H130155   9.693   8.650   8.199
 9971WAT     H230156   9.703   8.680   8.359
 9972WAT      O30157   4.163   0.586   3.067
 9972WAT     H130158   4.160   0.533   2.982
 9972WAT     H230159   4.095   0.550   3.130
 9973WAT      O30160   0.442   9.129   6.903
 9973WAT     H130161   0.363   9.188   6.918
 9973WAT     H230162   0.436   9.050   6.964
 9974WAT      O30163   8.524   4.713   3.281
 9974WAT     H130164   8.521   4.647   3.206
 9974WAT     H230165   8.440   4.707   3.335
 9975WAT      O30166   5.393   7.160   7.229
 9975WAT     H130167   5.357   7.181   7.319
 9975WAT     H230168   5.490   7.137   7.237
 9976WAT      O30169   3.128   3.983   6.460
 9976WAT     H130170   3.059   3.972   6.388
 9976WAT     H230171   3.083   3.984   6.549
 9977WAT      O30172   6.475   7.159   9.181
 9977WAT     H130173   6.447   7.074   9.227
 9977WAT     H230174   6.395   7.215   9.163
 9978WAT      O30175   1.174   5.588   1.569
 9978WAT     H130176   1.219   5.536   1.496
 9978WAT     H230177   1.242   5.621   1.634
 9979WAT      O30178   1.093   8.248   2.086
 9979WAT     H130179   1.178   8.270   2.134
 9979WAT     H230180   1.070   8.152   2.102
 9980WAT      O30181   2.733   0.651   2.285
 9980WAT     H130182   2.691   0.666   2.196
 9980WAT     H230183   2.832   0.652   2.276
 9981WAT      O30184   0.740   2.936   5.930
 9981WAT     H130185   0.793   3.000   5.986
 9981WAT     H230186   0.796   2.857   5.906
 9982WAT      O30187   2.532   2.157   3.087
 9982WAT     H130188   2.549   2.087   3.018
 9982WAT     H230189   2.607   2.223   3.087
 9983WAT      O30190   9.880   0.440   5.052
 9983WAT     H130191   9.942   0.366   5.080
 9983WAT     H230192   9.790   0.402   5.031
 9984WAT      O30193   1.276   7.721   2.676
 9984WAT     H130194   1.325   7.641   2.643
 9984WAT     H230195   1.203   7.693   2.739
 9985WAT      O30196   0.655   3.866   2.626
 9985WAT     H130197   0.701   3.855   2.538
 9985WAT     H230198   0.714   3.830   2.699
 9986WAT      O30199   9.685   2.565   5.478
 9986WAT     H130200   9.693   2.662   5.454
 9986WAT     H230201   9.593   2.533   5.456
 9987WAT      O30202   8.132   5.344   2.654
 9987WAT     H130203   8.217   5.385   2.688
 9987WAT     H230204   8.055   5.377   2.709
 9988WAT      O30205   7.019   7.689   8.623
 9988WAT     H130206   7.099   7.743   8.652
 9988WAT     H230207   6.989   7.631   8.698
 9989WAT      O30208   8.191   0.117   8.325
 9989WAT     H130209   8.284   0.103   8.358
 9989WAT     H230210   8.193   0.155   8.233
 9990WAT      O30211   0.909   1.032   3.700
 9990WAT     H130212   0.963   1.020   3.617
 9990WAT     H230213   0.969   1.058   3.776
 9991WAT      O30214   8.699   4.187   8.062
 9991WAT     H130215   8.643   4.109   8.088
 9991WAT     H230216   8.647   4.271   8.073
 9992WAT      O30217   4.355   9.563   2.831
 9992WAT     H130218   4.384   9.582   2.925
 9992WAT     H230219   4.377   9.468   2.807
 9993WAT      O30220   2.967   9.749   8.170
 9993WAT     H130221   3.007   9.661   8.145
 9993WAT     H230222   3.019   9.823   8.128
 9994WAT      O30223   2.741   3.550   1.323
 9994WAT     H130224   2.649   3.521   1.298
 9994WAT     H230225   2.795   3.566   1.240
 9995WAT      O30226   3.188   1.726   9.416
 9995WAT     H130227   3.189   1.826   9.411
 9995WAT     H230228   3.251   1.695   9.487
 9996WAT      O30229   8.665   4.482   9.147
 9996WAT     H130230   8.595   4.451   9.211
 9996WAT     H230231   8.675   4.415   9.073
 9997WAT      O30232   4.435   2.200   5.203
 9997WAT     H130233   4.394   2.146   5.129
 9997WAT     H230234   4.459   2.140   5.279
 9998WAT      O30235   5.087   1.218   6.161
 9998WAT     H130236   5.062   1.155   6.234
 9998WAT     H230237   5.107   1.308   6.200
 9999WAT      O30238   8.936   9.142   8.112
 9999WAT     H130239   8.930   9.099   8.202
 9999WAT     H230240   8.959   9.073   8.043
10000WAT      O30241   2.093   6.795   1.900
10000WAT     H130242   2.106   6.890   1.929
10000WAT     H230243   1.997   6.782   1.874
10001WAT      O30244   4.951   2.415   3.713
10001WAT     H130245   4.866   2.413   3.766
10001WAT     H230246   5.023   2.460   3.767
10002WAT      O30247   1.615   2.071   7.072
10002WAT     H130248   1.536   2.011   7.073
10002WAT     H230249   1.638   2.097   7.166
10003WAT      O30250   4.171   2.410   0.001
10003WAT     H130251   4.191   2.329   0.056
10003WAT     H230252   4.082   2.400  -0.043
10004WAT      O30253   0.216   7.614   7.568
10004WAT     H130254   0.244   7.527   7.607
10004WAT     H230255   0.160   7.664   7.633
10005WAT      O30256   2.745   7.075   0.377
10005WAT     H130257   2.650   7.106   0.380
10005WAT     H230258   2.804   7.152   0.353
10006WAT      O30259   6.971   3.797   5.528
10006WAT     H130260   6.908   3.728   5.563
10006WAT     H230261   7.051   3.802   5.587
10007WAT      O30262   0.228   7.810   5.910
10007WAT     H130263   0.169   7.791   5.831
10007WAT     H230264   0.309   7.860   5.880
10008WAT      O30265   8.672   2.040   4.614
10008WAT     H130266   8.624   1.955   4.635
10008WAT     H230267   8.646   2.109   4.682
10009WAT      O30268   9.017   7.881   2.294
10009WAT     H130269   8.924   7.912   2.315
10009WAT     H230270   9.032   7.886   2.196
10010WAT      O30271   8.772   8.864   7.702
10010WAT     H130272   8.868   8.888   7.684
10010WAT     H230273   8.768   8.801   7.780
10011WAT      O30274   3.270   6.438   7.074
10011WAT     H130275   3.238   6.524   7.114
10011WAT     H230276   3.237   6.430   6.980
10012WAT      O30277   5.408   7.421   8.759
10012WAT     H130278   5.336   7.388   8.697
10012WAT     H230279   5.389   7.388   8.851
10013WAT      O30280   0.813   2.004   2.255
10013WAT     H130281   0.765   2.023   2.341
10013WAT     H230282   0.880   1.931   2.269
10014WAT      O30283   6.628   4.976   7.202
10014WAT     H130284   6.650   5.034   7.280
10014WAT     H230285   6.578   5.030   7.133
10015WAT      O30286   1.022   2.091   3.979
10015WAT     H130287   0.999   1.995   3.962
10015WAT     H230288   1.023   2.141   3.892
10016WAT      O30289   8.435   3.649   4.280
10016WAT     H130290   8.388   3.707   4.347
10016WAT     H230291   8.388   3.656   4.192
10017WAT      O30292   8.672   4.620   2.483
10017WAT     H130293   8.583   4.660   2.461
10017WAT     H230294   8.686   4.621   2.582
10018WAT      O30295   4.575   1.677   2.674
10018WAT     H130296   4.621   1.596   2.713
10018WAT     H230297   4.644   1.740   2.637
10019WAT      O30298   4.998   7.328   0.277
10019WAT     H130299   4.941   7.286   0.208
10019WAT     H230300   5.035   7.257   0.338
10020WAT      O30301   5.938   8.059   0.455
10020WAT     H130302   5.947   8.107   0.542
10020WAT     H230303   6.029   8.039   0.420
10021WAT      O30304   5.593   7.368   2.371
10021WAT     H130305   5.609   7.328   2.462
10021WAT     H230306   5.620   7.302   2.301
10022WAT      O30307   3.318   4.744   7.860
10022WAT     H130308   3.297   4.658   7.815
10022WAT     H230309   3.256   4.758   7.937
10023WAT      O30310   2.081   2.376   7.419
10023WAT     H130311   1.982   2.388   7.424
10023WAT     H230312   2.121   2.452   7.367
10024WAT      O30313   5.875   0.557   1.309
10024WAT     H130314   5.863   0.465   1.347
10024WAT     H230315   5.903   0.550   1.214
10025WAT      O30316   5.417   2.375   3.289
10025WAT     H130317   5.388   2.463   3.251
10025WAT     H230318   5.337   2.322   3.315
10026WAT      O30319   9.361   9.802   4.751
10026WAT     H130320   9.418   9.808   4.669
10026WAT     H230321   9.366   9.709   4.788
10027WAT      O30322   2.659   7.423   0.852
10027WAT     H130323   2.629   7.395   0.943
10027WAT     H230324   2.680   7.342   0.797
10028WAT      O30325   1.390   1.903   7.059
10028WAT     H130326   1.321   1.865   6.998
10028WAT     H230327   1.443   1.829   7.099
10029WAT      O30328   1.134   5.293   2.250
10029WAT     H130329   1.078   5.367   2.213
10029WAT     H230330   1.193   5.255   2.178
10030WAT      O30331   1.699   5.053   2.007
10030WAT     H130332   1.761   5.004   1.946
10030WAT     H230333   1.751   5.093   2.082
10031WAT      O30334   9.370   1.604   2.014
10031WAT     H130335   9.357   1.543   1.936
10031WAT     H230336   9.447   1.665   1.997
10032WAT      O30337   3.123   5.593   8.228
10032WAT     H130338   3.051   5.624   8.166
10032WAT     H230339   3.167   5.673   8.270
10033WAT      O30340   0.539   1.654   1.478
10033WAT     H130341   0.456   1.603   1.498
10033WAT     H230342   0.608   1.591   1.440
10034WAT      O30343   3.935   1.647   6.352
10034WAT     H130344   3.957   1.595   6.434
10034WAT     H230345   3.871   1.720   6.375
10035WAT      O30346   1.812   8.528   6.070
10035WAT     H130347   1.855   8.506   6.158
10035WAT     H230348   1.829   8.625   6.049
10036WAT      O30349   1.977   3.643   0.412
10036WAT     H130350   1.972   3.742   0.421
10036WAT     H230351   2.071   3.613   0.428
10037WAT      O30352   3.927   7.535   2.678
10037WAT     H130353   3.903   7.631   2.660
10037WAT     H230354   3.919   7.517   2.776
10038WAT      O30355   6.798   1.415   3.993
10038WAT     H130356   6.812   1.371   4.082
10038WAT     H230357   6.800   1.346   3.921
10039WAT      O30358   1.821   2.756   9.039
10039WAT     H130359   1.900   2.808   9.073
10039WAT     H230360   1.761   2.816   8.987
10040WAT      O30361   5.202   6.081   9.447
10040WAT     H130362   5.247   6.168   9.465
10040WAT     H230363   5.105   6.088   9.470
10041WAT      O30364   7.659   3.882   2.219
10041WAT     H130365   7.614   3.948   2.160
10041WAT     H230366   7.604   3.866   2.301
10042WAT      O30367   8.757   7.644   6.272
10042WAT     H130368   8.804   7.579   6.213
10042WAT     H230369   8.792   7.635   6.365
10043WAT      O30370   2.254   5.326   6.974
10043WAT     H130371   2.240   5.293   6.881
10043WAT     H230372   2.191   5.402   6.993
10044WAT      O30373   9.528   9.125   3.719
10044WAT     H130374   9.475   9.050   3.680
10044WAT     H230375   9.508   9.132   3.817
10045WAT      O30376   8.815   4.226   6.639
10045WAT     H130377   8.870   4.256   6.717
10045WAT     H230378   8.813   4.126   6.636
10046WAT      O30379   3.989   7.151   3.485
10046WAT     H130380   4.088   7.139   3.474
10046WAT     H230381   3.948   7.065   3.516
10047WAT      O30382   7.939   0.093   2.052
10047WAT     H130383   8.007   0.039   2.100
10047WAT     H230384   7.850   0.082   2.096
10048WAT      O30385   0.847   1.616   7.828
10048WAT     H130386   0.871   1.644   7.921
10048WAT     H230387   0.917   1.647   7.764
10049WAT      O30388   2.818   1.653   3.286
10049WAT     H130389   2.917   1.663   3.287
10049WAT     H230390   2.791   1.590   3.213
10050WAT      O30391   0.322   4.592   4.957
10050WAT     H130392   0.321   4.494   4.942
10050WAT     H230393   0.381   4.613   5.036
10051WAT      O30394   5.620   1.824   4.793
10051WAT     H130395   5.568   1.816   4.879
10051WAT     H230396   5.636   1.921   4.774
10052WAT      O30397   1.339   8.443   9.637
10052WAT     H130398   1.316   8.435   9.539
10052WAT     H230399   1.424   8.395   9.655
10053WAT      O30400   6.807   6.866   7.069
10053WAT     H130401   6.792   6.853   7.167
10053WAT     H230402   6.813   6.777   7.023
10054WAT      O30403   6.550   2.050   6.499
10054WAT     H130404   6.471   2.003   6.540
10054WAT     H230405   6.530   2.072   6.404
10055WAT      O30406   4.351   6.164   0.588
10055WAT     H130407   4.372   6.099   0.515
10055WAT     H230408   4.432   6.177   0.645
10056WAT      O30409   8.638   5.561   8.904
10056WAT     H130410   8.629   5.474   8.855
10056WAT     H230411   8.656   5.543   9.001
10057WAT      O30412   1.875   3.124   5.264
10057WAT     H130413   1.859   3.192   5.336
10057WAT     H230414   1.957   3.148   5.213
10058WAT      O30415   4.233   8.305   3.012
10058WAT     H130416   4.273   8.251   2.937
10058WAT     H230417   4.234   8.402   2.987
10059WAT      O30418   5.681   0.086   8.410
10059WAT     H130419   5.586   0.111   8.392
10059WAT     H230420   5.738   0.112   8.333
10060WAT      O30421   8.739   1.527   2.533
10060WAT     H130422   8.829   1.510   2.493
10060WAT     H230423   8.741   1.613   2.584
10061WAT      O30424   1.069   4.232   3.704
10061WAT     H130425   1.135   4.204   3.774
10061WAT     H230426   1.078   4.172   3.624
10062WAT      O30427   7.051   1.387   9.053
10062WAT     H130428   7.072   1.365   9.149
10062WAT     H230429   6.986   1.320   9.017
10063WAT      O30430   8.703   7.564   6.983
10063WAT     H130431   8.613   7.571   7.026
10063WAT     H230432   8.772   7.545   7.053
10064WAT      O30433   0.848   7.382   8.166
10064WAT     H130434   0.781   7.308   8.159
10064WAT     H230435   0.938   7.344   8.188
10065WAT      O30436   2.476   9.673   5.822
10065WAT     H130437   2.576   9.679   5.832
10065WAT     H230438   2.449   9.577   5.817
10066WAT      O30439   4.837   0.893   6.803
10066WAT     H130440   4.891   0.977   6.804
10066WAT     H230441   4.740   0.916   6.814
10067WAT      O30442   3.728   1.259   5.669
10067WAT     H130443   3.749   1.274   5.572
10067WAT     H230444   3.628   1.261   5.681
10068WAT      O30445   7.470   3.498   1.843
10068WAT     H130446   7.437   3.510   1.936
10068WAT     H230447   7.449   3.579   1.789
10069WAT      O30448   4.666   6.093   3.690
10069WAT     H130449   4.672   5.998   3.720
10069WAT     H230450   4.689   6.099   3.593
10070WAT      O30451   2.303   9.437   5.098
10070WAT     H130452   2.368   9.505   5.064
10070WAT     H230453   2.216   9.447   5.049
10071WAT      O30454   3.383   4.233   2.762
10071WAT     H130455   3.330   4.217   2.845
10071WAT     H230456   3.321   4.245   2.684
10072WAT      O30457   4.351   8.920   7.799
10072WAT     H130458   4.371   8.890   7.706
10072WAT     H230459   4.254   8.941   7.807
10073WAT      O30460   8.253   3.811   1.142
10073WAT     H130461   8.348   3.838   1.128
10073WAT     H230462   8.223   3.837   1.233
10074WAT      O30463   9.120   6.026   7.598
10074WAT     H130464   9.067   6.028   7.513
10074WAT     H230465   9.214   6.053   7.578
10075WAT      O30466   5.369   6.176   3.783
10075WAT     H130467   5.327   6.259   3.820
10075WAT     H230468   5.336   6.097   3.835
10076WAT      O30469   9.427   0.583   7.297
10076WAT     H130470   9.504   0.527   7.328
10076WAT     H230471   9.341   0.535   7.317
10077WAT      O30472   9.091   9.814   5.623
10077WAT     H130473   9.043   9.837   5.708
10077WAT     H230474   9.159   9.884   5.603
10078WAT      O30475   9.410   7.785   1.822
10078WAT     H130476   9.371   7.836   1.746
10078WAT     H230477   9.393   7.687   1.809
10079WAT      O30478   1.749   2.923   9.598
10079WAT     H130479   1.705   2.931   9.508
10079WAT     H230480   1.712   2.844   9.647
10080WAT      O30481   8.981   3.722   3.956
10080WAT     H130482   9.000   3.815   3.988
10080WAT     H230483   9.002   3.715   3.859
10081WAT      O30484   1.762   9.214   9.706
10081WAT     H130485   1.827   9.145   9.674
10081WAT     H230486   1.809   9.280   9.764
10082WAT      O30487   5.785   5.953   0.840
10082WAT     H130488   5.704   5.926   0.893
10082WAT     H230489   5.851   5.878   0.839
10083WAT      O30490   2.928   6.041   1.174
10083WAT     H130491   2.966   6.049   1.266
10083WAT     H230492   3.002   6.024   1.109
10084WAT      O30493   1.701   0.389   5.702
10084WAT     H130494   1.673   0.471   5.652
10084WAT     H230495   1.770   0.340   5.649
10085WAT      O30496   4.613   0.907   7.393
10085WAT     H130497   4.530   0.949   7.429
10085WAT     H230498   4.595   0.874   7.300
10086WAT      O30499   7.572   6.728   2.270
10086WAT     H130500   7.647   6.789   2.244
10086WAT     H230501   7.572   6.648   2.210
10087WAT      O30502   1.064   8.198   5.045
10087WAT     H130503   1.005   8.273   5.017
10087WAT     H230504   1.089   8.143   4.965
10088WAT      O30505   1.029   4.642   3.212
10088WAT     H130506   1.063   4.714   3.152
10088WAT     H230507   1.027   4.555   3.163
10089WAT      O30508   2.228   4.510   3.680
10089WAT     H130509   2.152   4.449   3.702
10089WAT     H230510   2.287   4.467   3.612
10090WAT      O30511   8.362   3.351   3.302
10090WAT     H130512   8.323   3.293   3.230
10090WAT     H230513   8.366   3.446   3.269
10091WAT      O30514   0.635   1.296   4.138
10091WAT     H130515   0.609   1.380   4.091
10091WAT     H230516   0.679   1.234   4.072
10092WAT      O30517   1.196   0.698   4.883
10092WAT     H130518   1.230   0.635   4.813
10092WAT     H230519   1.104   0.728   4.859
10093WAT      O30520   1.080   3.279   0.464
10093WAT     H130521   0.987   3.268   0.430
10093WAT     H230522   1.139   3.314   0.391
10094WAT      O30523   9.006   7.419   1.976
10094WAT     H130524   9.007   7.494   2.042
10094WAT     H230525   9.098   7.405   1.940
10095WAT      O30526   2.140   6.996   3.786
10095WAT     H130527   2.143   7.081   3.732
10095WAT     H230528   2.227   6.948   3.775
10096WAT      O30529   2.934   2.293   3.612
10096WAT     H130530   2.920   2.259   3.705
10096WAT     H230531   3.017   2.253   3.574
10097WAT      O30532   6.122   7.975   8.270
10097WAT     H130533   6.211   8.017   8.289
10097WAT     H230534   6.069   7.970   8.354
10098WAT      O30535   5.275   6.289   0.771
10098WAT     H130536   5.211   6.316   0.699
10098WAT     H230537   5.227   6.283   0.858
10099WAT      O30538   0.298   8.243   8.980
10099WAT     H130539   0.289   8.285   9.070
10099WAT     H230540   0.249   8.298   8.912
10100WAT      O30541   0.944   2.308   0.784
10100WAT     H130542   0.888   2.265   0.855
10100WAT     H230543   0.984   2.392   0.819
10101WAT      O30544   1.371   1.185   0.595
10101WAT     H130545   1.400   1.150   0.506
10101WAT     H230546   1.451   1.214   0.647
10102WAT      O30547   2.175   8.366   6.597
10102WAT     H130548   2.173   8.280   6.647
10102WAT     H230549   2.262   8.413   6.614
10103WAT      O30550   5.864   7.633   6.950
10103WAT     H130551   5.903   7.723   6.968
10103WAT     H230552   5.773   7.627   6.991
10104WAT      O30553   8.047   0.793   9.230
10104WAT     H130554   8.084   0.860   9.165
10104WAT     H230555   8.066   0.824   9.323
10105WAT      O30556   0.698   2.375   3.838
10105WAT     H130557   0.750   2.399   3.757
10105WAT     H230558   0.610   2.424   3.836
10106WAT      O30559   9.768   6.815   8.749
10106WAT     H130560   9.813   6.793   8.835
10106WAT     H230561   9.779   6.738   8.685
10107WAT      O30562   7.463   3.341   2.473
10107WAT     H130563   7.527   3.355   2.548
10107WAT     H230564   7.378   3.390   2.492
10108WAT      O30565   0.989   9.272   7.561
10108WAT     H130566   0.984   9.208   7.638
10108WAT     H230567   1.004   9.365   7.596
10109WAT      O30568   7.632   2.064   9.804
10109WAT     H130569   7.648   1.970   9.773
10109WAT     H230570   7.719   2.113   9.808
10110WAT      O30571   4.429   0.448   4.426
10110WAT     H130572   4.485   0.443   4.509
10110WAT     H230573   4.343   0.495   4.447
10111WAT      O30574   2.491   7.153   1.343
10111WAT     H130575   2.558   7.184   1.275
10111WAT     H230576   2.460   7.231   1.397
10112WAT      O30577   7.356   9.722   2.339
10112WAT     H130578   7.358   9.815   2.304
10112WAT     H230579   7.294   9.717   2.417
10113WAT      O30580   6.588   0.222   3.386
10113WAT     H130581   6.499   0.177   3.389
10113WAT     H230582   6.657   0.160   3.349
10114WAT      O30583   2.021   7.087   0.972
10114WAT     H130584   2.020   7.106   0.873
10114WAT     H230585   1.949   7.139   1.017
10115WAT      O30586   9.516   6.265   8.104
10115WAT     H130587   9.554   6.183   8.145
10115WAT     H230588   9.481   6.243   8.013
10116WAT      O30589   9.585   2.168   1.862
10116WAT     H130590   9.636   2.100   1.809
10116WAT     H230591   9.571   2.133   1.955
10117WAT      O30592   0.430   8.186   3.154
10117WAT     H130593   0.446   8.230   3.065
10117WAT     H230594   0.455   8.090   3.148
10118WAT      O30595   8.983   3.701   8.210
10118WAT     H130596   9.042   3.631   8.169
10118WAT     H230597   8.926   3.742   8.139
10119WAT      O30598   3.498   3.095   4.936
10119WAT     H130599   3.488   3.086   4.837
10119WAT     H230600   3.490   3.192   4.962
10120WAT      O30601   1.735   1.539   8.601
10120WAT     H130602   1.732   1.501   8.508
10120WAT     H230603   1.658   1.602   8.613
10121WAT      O30604   4.789   7.774   6.874
10121WAT     H130605   4.694   7.801   6.887
10121WAT     H230606   4.838   7.849   6.829
10122WAT      O30607   9.429   0.362   8.910
10122WAT     H130608   9.472   0.382   8.822
10122WAT     H230609   9.383   0.273   8.904
10123WAT      O30610   9.251   5.831   0.623
10123WAT     H130611   9.275   5.742   0.586
10123WAT     H230612   9.192   5.879   0.559
10124WAT      O30613   7.684   4.580   9.758
10124WAT     H130614   7.653   4.666   9.717
10124WAT     H230615   7.755   4.540   9.700
10125WAT      O30616   6.066   4.417   8.019
10125WAT     H130617   6.019   4.488   8.072
10125WAT     H230618   6.162   4.414   8.046
10126WAT      O30619   9.356   3.048   9.652
10126WAT     H130620   9.354   3.148   9.645
10126WAT     H230621   9.373   3.022   9.747
10127WAT      O30622   9.854   5.966   1.917
10127WAT     H130623   9.759   5.937   1.930
10127WAT     H230624   9.914   5.885   1.917
10128WAT      O30625   7.077   1.050   6.753
10128WAT     H130626   7.122   0.961   6.751
10128WAT     H230627   7.048   1.074   6.660
10129WAT      O30628   3.607   7.054   3.428
10129WAT     H130629   3.636   6.959   3.419
10129WAT     H230630   3.613   7.099   3.338
10130WAT      O30631   1.866   1.002   4.957
10130WAT     H130632   1.767   0.998   4.950
10130WAT     H230633   1.905   1.029   4.869
10131WAT      O30634   0.954   4.578   6.335
10131WAT     H130635   0.947   4.584   6.235
10131WAT     H230636   1.036   4.628   6.365
10132WAT      O30637   6.312   9.352   7.037
10132WAT     H130638   6.258   9.436   7.027
10132WAT     H230639   6.379   9.348   6.964
10133WAT      O30640   6.913   7.401   1.012
10133WAT     H130641   7.009   7.372   1.017
10133WAT     H230642   6.880   7.390   0.918
10134WAT      O30643   6.356   3.909   5.255
10134WAT     H130644   6.423   3.957   5.198
10134WAT     H230645   6.309   3.974   5.314
10135WAT      O30646   1.007   7.983   2.580
10135WAT     H130647   1.059   8.062   2.613
10135WAT     H230648   0.973   7.931   2.658
10136WAT      O30649   6.050   6.888   5.135
10136WAT     H130650   6.097   6.959   5.084
10136WAT     H230651   5.951   6.904   5.133
10137WAT      O30652   7.428   7.943   8.443
10137WAT     H130653   7.415   7.879   8.518
10137WAT     H230654   7.526   7.957   8.427
10138WAT      O30655   8.045   4.675   4.415
10138WAT     H130656   8.140   4.644   4.414
10138WAT     H230657   8.019   4.703   4.507
10139WAT      O30658   2.846   3.212   0.627
10139WAT     H130659   2.832   3.120   0.663
10139WAT     H230660   2.833   3.279   0.700
10140WAT      O30661   4.847   1.176   2.259
10140WAT     H130662   4.843   1.219   2.168
10140WAT     H230663   4.940   1.143   2.276
10141WAT      O30664   1.854   1.302   7.736
10141WAT     H130665   1.807   1.286   7.823
10141WAT     H230666   1.890   1.215   7.701
10142WAT      O30667   0.464   5.996   6.725
10142WAT     H130668   0.374   5.973   6.761
10142WAT     H230669   0.530   5.998   6.800
10143WAT      O30670   5.443   8.306   8.211
10143WAT     H130671   5.472   8.230   8.153
10143WAT     H230672   5.503   8.384   8.197
10144WAT      O30673   9.207   9.770   9.800
10144WAT     H130674   9.255   9.683   9.805
10144WAT     H230675   9.110   9.754   9.779
10145WAT      O30676   6.928   9.566   8.053
10145WAT     H130677   6.970   9.541   7.965
10145WAT     H230678   6.997   9.610   8.111
10146WAT      O30679   1.092   7.202   6.247
10146WAT     H130680   0.993   7.198   6.264
10146WAT     H230681   1.110   7.269   6.176
10147WAT      O30682   1.553   7.097   8.655
10147WAT     H130683   1.648   7.086   8.626
10147WAT     H230684   1.536   7.042   8.737
10148WAT      O30685   9.108   9.648   0.852
10148WAT     H130686   9.042   9.672   0.780
10148WAT     H230687   9.104   9.717   0.924
10149WAT      O30688   3.998   3.299   2.262
10149WAT     H130689   3.953   3.273   2.177
10149WAT     H230690   4.001   3.220   2.324
10150WAT      O30691   7.450   6.305   7.271
10150WAT     H130692   7.366   6.320   7.323
10150WAT     H230693   7.512   6.383   7.286
10151WAT      O30694   7.404   0.088   9.083
10151WAT     H130695   7.378   0.034   9.003
10151WAT     H230696   7.448   0.173   9.053
10152WAT      O30697   0.048   1.371   0.472
10152WAT     H130698   0.088   1.290   0.515
10152WAT     H230699  -0.052   1.363   0.471
10153WAT      O30700   5.528   4.623   9.142
10153WAT     H130701   5.442   4.622   9.192
10153WAT     H230702   5.516   4.574   9.055
10154WAT      O30703   8.924   1.288   0.876
10154WAT     H130704   8.896   1.368   0.824
10154WAT     H230705   9.009   1.309   0.926
10155WAT      O30706   7.264   4.720   2.187
10155WAT     H130707   7.251   4.746   2.092
10155WAT     H230708   7.348   4.666   2.195
10156WAT      O30709   7.472   4.949   5.869
10156WAT     H130710   7.458   4.865   5.921
10156WAT     H230711   7.435   4.939   5.777
10157WAT      O30712   1.780   5.966   7.764
10157WAT     H130713   1.694   5.989   7.810
10157WAT     H230714   1.761   5.937   7.670
10158WAT      O30715   2.532   6.174   8.394
10158WAT     H130716   2.521   6.268   8.424
10158WAT     H230717   2.472   6.114   8.447
10159WAT      O30718   3.489   6.016   0.411
10159WAT     H130719   3.575   5.985   0.370
10159WAT     H230720   3.419   6.020   0.340
10160WAT      O30721   7.109   3.248   6.820
10160WAT     H130722   7.204   3.228   6.799
10160WAT     H230723   7.062   3.279   6.737
10161WAT      O30724   7.207   3.593   8.376
10161WAT     H130725   7.174   3.520   8.435
10161WAT     H230726   7.129   3.635   8.328
10162WAT      O30727   7.141   3.159   8.301
10162WAT     H130728   7.088   3.186   8.221
10162WAT     H230729   7.206   3.231   8.324
10163WAT      O30730   6.603   5.247   0.032
10163WAT     H130731   6.663   5.320   0.064
10163WAT     H230732   6.652   5.190  -0.034
10164WAT      O30733   9.656   7.786   4.438
10164WAT     H130734   9.679   7.727   4.515
10164WAT     H230735   9.724   7.774   4.365
10165WAT      O30736   1.739   1.155   7.129
10165WAT     H130737   1.726   1.114   7.219
10165WAT     H230738   1.799   1.096   7.075
10166WAT      O30739   0.801   7.828   6.398
10166WAT     H130740   0.884   7.845   6.451
10166WAT     H230741   0.802   7.884   6.315
10167WAT      O30742   7.321   3.057   7.213
10167WAT     H130743   7.279   2.999   7.283
10167WAT     H230744   7.256   3.127   7.185
10168WAT      O30745   3.577   4.357   8.980
10168WAT     H130746   3.514   4.313   9.044
10168WAT     H230747   3.658   4.389   9.029
10169WAT      O30748   4.761   3.256   9.117
10169WAT     H130749   4.805   3.278   9.204
10169WAT     H230750   4.671   3.300   9.113
10170WAT      O30751   1.965   1.076   4.715
10170WAT     H130752   1.915   1.145   4.663
10170WAT     H230753   1.978   0.995   4.659
10171WAT      O30754   5.215   4.206   5.103
10171WAT     H130755   5.164   4.253   5.031
10171WAT     H230756   5.313   4.218   5.087
10172WAT      O30757   9.694   2.147   7.216
10172WAT     H130758   9.712   2.188   7.126
10172WAT     H230759   9.724   2.209   7.288
10173WAT      O30760   7.120   9.747   8.141
10173WAT     H130761   7.119   9.847   8.141
10173WAT     H230762   7.211   9.715   8.114
10174WAT      O30763   3.630   9.722   5.916
10174WAT     H130764   3.646   9.628   5.883
10174WAT     H230765   3.573   9.719   5.998
10175WAT      O30766   2.771   4.832   2.869
10175WAT     H130767   2.741   4.845   2.774
10175WAT     H230768   2.696   4.856   2.931
10176WAT      O30769   7.010   5.382   3.342
10176WAT     H130770   7.019   5.443   3.263
10176WAT     H230771   6.938   5.315   3.324
10177WAT      O30772   1.929   2.620   0.115
10177WAT     H130773   1.938   2.600   0.212
10177WAT     H230774   2.012   2.592   0.067
10178WAT      O30775   7.866   4.039   3.852
10178WAT     H130776   7.851   3.976   3.777
10178WAT     H230777   7.926   3.997   3.920
10179WAT      O30778   6.495   2.808   0.985
10179WAT     H130779   6.551   2.754   0.923
10179WAT     H230780   6.546   2.889   1.014
10180WAT      O30781   0.514   4.551   5.948
10180WAT     H130782   0.603   4.511   5.972
10180WAT     H230783   0.455   4.553   6.028
10181WAT      O30784   5.902   9.140   4.721
10181WAT     H130785   5.811   9.105   4.747
10181WAT     H230786   5.915   9.230   4.762
10182WAT      O30787   3.672   1.982   4.413
10182WAT     H130788   3.691   1.960   4.317
10182WAT     H230789   3.754   2.020   4.456
10183WAT      O30790   3.523   4.368   4.971
10183WAT     H130791   3.510   4.305   5.047
10183WAT     H230792   3.572   4.321   4.897
10184WAT      O30793   8.119   5.579   3.898
10184WAT     H130794   8.201   5.591   3.954
10184WAT     H230795   8.104   5.660   3.842
10185WAT      O30796   5.111   6.066   8.360
10185WAT     H130797   5.093   6.025   8.449
10185WAT     H230798   5.044   6.139   8.343
10186WAT      O30799   9.671   6.087   7.055
10186WAT     H130800   9.636   6.039   7.135
10186WAT     H230801   9.630   6.049   6.972
10187WAT      O30802   5.928   2.357   9.528
10187WAT     H130803   6.013   2.404   9.505
10187WAT     H230804   5.948   2.279   9.587
10188WAT      O30805   8.782   2.901   9.764
10188WAT     H130806   8.724   2.910   9.683
10188WAT     H230807   8.856   2.837   9.745
10189WAT      O30808   4.673   9.117   2.025
10189WAT     H130809   4.732   9.191   1.993
10189WAT     H230810   4.650   9.058   1.948
10190WAT      O30811   8.732   1.351  -0.000
10190WAT     H130812   8.827   1.337   0.029
10190WAT     H230813   8.711   1.449  -0.002
10191WAT      O30814   4.278   4.461   9.143
10191WAT     H130815   4.288   4.421   9.234
10191WAT     H230816   4.316   4.554   9.143
10192WAT      O30817   8.831   3.335   4.932
10192WAT     H130818   8.907   3.270   4.935
10192WAT     H230819   8.823   3.373   4.840
10193WAT      O30820   3.318   2.201   0.686
10193WAT     H130821   3.270   2.193   0.599
10193WAT     H230822   3.408   2.243   0.671
10194WAT      O30823   7.272   6.282   7.503
10194WAT     H130824   7.297   6.190   7.474
10194WAT     H230825   7.351   6.326   7.547
10195WAT      O30826   9.028   7.107   2.539
10195WAT     H130827   8.933   7.107   2.569
10195WAT     H230828   9.079   7.037   2.589
10196WAT      O30829   5.784   4.273   7.170
10196WAT     H130830   5.790   4.231   7.261
10196WAT     H230831   5.792   4.373   7.179
10197WAT      O30832   0.427   1.067   5.559
10197WAT     H130833   0.361   0.993   5.548
10197WAT     H230834   0.407   1.140   5.494
10198WAT      O30835   4.765   6.068   3.053
10198WAT     H130836   4.846   6.094   3.106
10198WAT     H230837   4.720   5.990   3.097
10199WAT      O30838   5.828   2.021   2.904
10199WAT     H130839   5.810   1.930   2.939
10199WAT     H230840   5.876   2.075   2.973
10200WAT      O30841   7.137   6.041   3.359
10200WAT     H130842   7.155   6.118   3.420
10200WAT     H230843   7.216   5.980   3.359
10201WAT      O30844   3.964   2.047   7.374
10201WAT     H130845   3.980   2.119   7.307
10201WAT     H230846   4.010   2.070   7.460
10202WAT      O30847   9.505   4.141   8.935
10202WAT     H130848   9.482   4.120   8.840
10202WAT     H230849   9.571   4.217   8.937
10203WAT      O30850   5.946   4.434   9.755
10203WAT     H130851   5.972   4.460   9.661
10203WAT     H230852   5.958   4.513   9.815
10204WAT      O30853   9.699   3.489   7.039
10204WAT     H130854   9.681   3.518   7.132
10204WAT     H230855   9.622   3.435   7.004
10205WAT      O30856   8.622   6.883   0.902
10205WAT     H130857   8.627   6.807   0.838
10205WAT     H230858   8.689   6.871   0.975
10206WAT      O30859   0.187   1.937   2.421
10206WAT     H130860   0.128   1.902   2.349
10206WAT     H230861   0.201   2.035   2.410
10207WAT      O30862   6.499   0.333   5.404
10207WAT     H130863   6.406   0.335   5.440
10207WAT     H230864   6.564   0.344   5.479
10208WAT      O30865   5.128   6.069   2.046
10208WAT     H130866   5.130   6.167   2.065
10208WAT     H230867   5.220   6.036   2.026
10209WAT      O30868   7.915   3.292   5.374
10209WAT     H130869   7.892   3.307   5.278
10209WAT     H230870   7.832   3.296   5.430
10210WAT      O30871   9.534   0.542   5.315
10210WAT     H130872   9.556   0.464   5.374
10210WAT     H230873   9.613   0.604   5.312
10211WAT      O30874   3.192   6.121   6.682
10211WAT     H130875   3.106   6.071   6.669
10211WAT     H230876   3.239   6.128   6.594
10212WAT      O30877   0.596   7.457   4.534
10212WAT     H130878   0.666   7.403   4.487
10212WAT     H230879   0.632   7.485   4.623
10213WAT      O30880   5.812   4.193   0.255
10213WAT     H130881   5.745   4.120   0.251
10213WAT     H230882   5.889   4.171   0.195
10214WAT      O30883   7.720   4.745   8.436
10214WAT     H130884   7.628   4.713   8.458
10214WAT     H230885   7.747   4.711   8.346
10215WAT      O30886   1.679   9.290   9.454
10215WAT     H130887   1.703   9.287   9.551
10215WAT     H230888   1.728   9.366   9.411
10216WAT      O30889   6.425   7.766   8.118
10216WAT     H130890   6.382   7.825   8.050
10216WAT     H230891   6.514   7.735   8.085
10217WAT      O30892   6.834   9.109   3.955
10217WAT     H130893   6.835   9.207   3.976
10217WAT     H230894   6.779   9.062   4.024
10218WAT      O30895   0.176   3.742   4.572
10218WAT     H130896   0.272   3.743   4.598
10218WAT     H230897   0.135   3.653   4.594
10219WAT      O30898   6.321   7.505   4.985
10219WAT     H130899   6.392   7.476   4.920
10219WAT     H230900   6.358   7.577   5.044
10220WAT      O30901   2.803   8.483   5.118
10220WAT     H130902   2.851   8.474   5.205
10220WAT     H230903   2.727   8.547   5.128
10221WAT      O30904   6.661   9.715   8.575
10221WAT     H130905   6.739   9.685   8.520
10221WAT     H230906   6.590   9.645   8.572
10222WAT      O30907   3.929   0.369   9.411
10222WAT     H130908   4.016   0.338   9.372
10222WAT     H230909   3.907   0.313   9.491
10223WAT      O30910   5.429   0.686   3.424
10223WAT     H130911   5.397   0.766   3.476
10223WAT     H230912   5.499   0.638   3.477
10224WAT      O30913   5.386   0.617   4.631
10224WAT     H130914   5.439   0.617   4.716
10224WAT     H230915   5.436   0.668   4.561
10225WAT      O30916   0.219   6.313   1.957
10225WAT     H130917   0.209   6.412   1.965
10225WAT     H230918   0.313   6.291   1.933
10226WAT      O30919   6.085   8.250   5.636
10226WAT     H130920   6.170   8.269   5.587
10226WAT     H230921   6.097   8.265   5.734
10227WAT      O30922   5.273   7.352   0.483
10227WAT     H130923   5.340   7.323   0.415
10227WAT     H230924   5.312   7.342   0.575
10228WAT      O30925   7.864   5.302   3.160
10228WAT     H130926   7.788   5.244   3.188
10228WAT     H230927   7.852   5.394   3.198
10229WAT      O30928   9.672   9.281   4.816
10229WAT     H130929   9.603   9.305   4.747
10229WAT     H230930   9.641   9.200   4.867
10230WAT      O30931   4.711   2.852   8.806
10230WAT     H130932   4.637   2.785   8.814
10230WAT     H230933   4.726   2.896   8.895
10231WAT      O30934   6.903   5.146   7.060
10231WAT     H130935   6.920   5.090   7.141
10231WAT     H230936   6.871   5.088   6.986
10232WAT      O30937   4.187   4.267   7.698
10232WAT     H130938   4.123   4.278   7.623
10232WAT     H230939   4.144   4.296   7.783
10233WAT      O30940   4.562   9.524   1.294
10233WAT     H130941   4.546   9.559   1.387
10233WAT     H230942   4.637   9.458   1.296
10234WAT      O30943   2.501   0.984   1.708
10234WAT     H130944   2.549   1.000   1.794
10234WAT     H230945   2.404   1.006   1.720
10235WAT      O30946   9.530   4.395   4.872
10235WAT     H130947   9.510   4.403   4.774
10235WAT     H230948   9.584   4.313   4.888
10236WAT      O30949   0.289   1.770   1.994
10236WAT     H130950   0.276   1.760   1.895
10236WAT     H230951   0.386   1.777   2.014
10237WAT      O30952   1.488   0.669   8.665
10237WAT     H130953   1.519   0.688   8.572
10237WAT     H230954   1.537   0.591   8.702
10238WAT      O30955   8.490   9.335   2.323
10238WAT     H130956   8.587   9.314   2.313
10238WAT     H230957   8.478   9.434   2.329
10239WAT      O30958   5.788   5.638   4.026
10239WAT     H130959   5.793   5.564   4.093
10239WAT     H230960   5.755   5.602   3.939
10240WAT      O30961   4.087   8.814   4.594
10240WAT     H130962   4.108   8.718   4.575
10240WAT     H230963   4.127   8.839   4.682
10241WAT      O30964   1.651   0.427   1.413
10241WAT     H130965   1.569   0.419   1.357
10241WAT     H230966   1.703   0.509   1.385
10242WAT      O30967   5.949   1.562   9.550
10242WAT     H130968   5.914   1.498   9.482
10242WAT     H230969   6.042   1.536   9.576
10243WAT      O30970   0.508   0.274   7.645
10243WAT     H130971   0.463   0.330   7.714
10243WAT     H230972   0.471   0.295   7.554
10244WAT      O30973   3.451   5.051   8.275
10244WAT     H130974   3.474   5.139   8.316
10244WAT     H230975   3.357   5.053   8.242
10245WAT      O30976   0.286   2.845   4.008
10245WAT     H130977   0.329   2.790   4.080
10245WAT     H230978   0.241   2.924   4.048
10246WAT      O30979   2.222   6.245   7.739
10246WAT     H130980   2.147   6.180   7.726
10246WAT     H230981   2.192   6.319   7.799
10247WAT      O30982   4.775   4.265   3.322
10247WAT     H130983   4.745   4.292   3.413
10247WAT     H230984   4.849   4.325   3.292
10248WAT      O30985   7.494   7.867   0.020
10248WAT     H130986   7.531   7.873  -0.072
10248WAT     H230987   7.550   7.805   0.075
10249WAT      O30988   8.706   3.129   5.328
10249WAT     H130989   8.791   3.166   5.365
10249WAT     H230990   8.684   3.174   5.242
10250WAT      O30991   3.105   1.589   2.762
10250WAT     H130992   3.204   1.576   2.770
10250WAT     H230993   3.063   1.502   2.736
10251WAT      O30994   0.183   2.359   6.302
10251WAT     H130995   0.125   2.304   6.241
10251WAT     H230996   0.209   2.443   6.255
10252WAT      O30997   7.272   2.673   1.087
10252WAT     H130998   7.342   2.637   1.027
10252WAT     H230999   7.259   2.771   1.070
10253WAT      O31000   5.094   7.659   7.145
10253WAT     H131001   5.152   7.661   7.226
10253WAT     H231002   5.135   7.599   7.076
10254WAT      O31003   5.319   6.377   5.371
10254WAT     H131004   5.246   6.317   5.339
10254WAT     H231005   5.283   6.437   5.442
10255WAT      O31006   1.235   7.638   3.953
10255WAT     H131007   1.247   7.700   4.030
10255WAT     H231008   1.144   7.650   3.913
10256WAT      O31009   6.895   4.469   5.831
10256WAT     H131010   6.880   4.557   5.876
10256WAT     H231011   6.993   4.451   5.824
10257WAT      O31012   0.407   7.891   3.691
10257WAT     H131013   0.338   7.881   3.619
10257WAT     H231014   0.465   7.810   3.694
10258WAT      O31015   1.293   0.383   7.415
10258WAT     H131016   1.354   0.304   7.412
10258WAT     H231017   1.282   0.413   7.510
10259WAT      O31018   3.692   9.486   5.409
10259WAT     H131019   3.617   9.422   5.393
10259WAT     H231020   3.665   9.577   5.380
10260WAT      O31021   0.256   1.848   8.021
10260WAT     H131022   0.213   1.797   7.947
10260WAT     H231023   0.314   1.787   8.075
10261WAT      O31024   1.822   0.196   5.297
10261WAT     H131025   1.775   0.238   5.219
10261WAT     H231026   1.920   0.190   5.278
10262WAT      O31027   0.656   2.726   7.441
10262WAT     H131028   0.724   2.709   7.370
10262WAT     H231029   0.608   2.812   7.421
10263WAT      O31030   8.552   1.969   0.727
10263WAT     H131031   8.480   1.915   0.683
10263WAT     H231032   8.612   2.007   0.657
10264WAT      O31033   6.101   3.115   9.703
10264WAT     H131034   6.162   3.117   9.623
10264WAT     H231035   6.103   3.025   9.745
10265WAT      O31036   3.499   4.933   5.010
10265WAT     H131037   3.580   4.984   4.982
10265WAT     H231038   3.423   4.955   4.949
10266WAT      O31039   8.251   6.115   9.325
10266WAT     H131040   8.290   6.195   9.371
10266WAT     H231041   8.281   6.113   9.230
10267WAT      O31042   0.209   6.310   4.223
10267WAT     H131043   0.226   6.314   4.124
10267WAT     H231044   0.139   6.242   4.242
10268WAT      O31045   3.795   5.117   1.802
10268WAT     H131046   3.878   5.168   1.824
10268WAT     H231047   3.781   5.043   1.868
10269WAT      O31048   8.354   5.526   5.513
10269WAT     H131049   8.303   5.487   5.437
10269WAT     H231050   8.448   5.491   5.512
10270WAT      O31051   0.755   9.622   1.205
10270WAT     H131052   0.694   9.657   1.134
10270WAT     H231053   0.721   9.534   1.239
10271WAT      O31054   6.197   4.105   4.037
10271WAT     H131055   6.190   4.129   4.134
10271WAT     H231056   6.204   4.188   3.983
10272WAT      O31057   0.970   8.460   1.946
10272WAT     H131058   1.019   8.537   1.987
10272WAT     H231059   0.985   8.378   2.002
10273WAT      O31060   1.397   9.616   4.688
10273WAT     H131061   1.311   9.656   4.720
10273WAT     H231062   1.464   9.618   4.763
10274WAT      O31063   0.023   3.245   9.634
10274WAT     H131064   0.037   3.243   9.733
10274WAT     H231065  -0.075   3.248   9.614
10275WAT      O31066   6.770   1.245   0.588
10275WAT     H131067   6.833   1.167   0.595
10275WAT     H231068   6.808   1.324   0.636
10276WAT      O31069   6.942   1.297   4.449
10276WAT     H131070   7.006   1.364   4.485
10276WAT     H231071   6.850   1.318   4.482
10277WAT      O31072   7.597   8.932   4.422
10277WAT     H131073   7.597   9.030   4.440
10277WAT     H231074   7.523   8.909   4.359
10278WAT      O31075   7.794   9.000   8.099
10278WAT     H131076   7.865   8.986   8.030
10278WAT     H231077   7.708   8.961   8.066
10279WAT      O31078   5.300   0.558   5.558
10279WAT     H131079   5.223   0.583   5.618
10279WAT     H231080   5.386   0.573   5.607
10280WAT      O31081   9.625   2.164   3.136
10280WAT     H131082   9.588   2.078   3.099
10280WAT     H231083   9.587   2.180   3.227
10281WAT      O31084   2.245   6.259   2.596
10281WAT     H131085   2.219   6.195   2.524
10281WAT     H231086   2.194   6.344   2.585
10282WAT      O31087   1.805   8.386   6.922
10282WAT     H131088   1.747   8.452   6.971
10282WAT     H231089   1.866   8.436   6.860
10283WAT      O31090   2.691   3.925   9.340
10283WAT     H131091   2.603   3.938   9.294
10283WAT     H231092   2.676   3.907   9.437
10284WAT      O31093   6.957   7.861   1.898
10284WAT     H131094   6.981   7.882   1.803
10284WAT     H231095   6.875   7.805   1.900
10285WAT      O31096   6.472   2.867   9.426
10285WAT     H131097   6.523   2.920   9.359
10285WAT     H231098   6.535   2.807   9.476
10286WAT      O31099   3.264   6.759   5.263
10286WAT     H131100   3.358   6.788   5.282
10286WAT     H231101   3.218   6.830   5.210
10287WAT      O31102   7.196   9.275   4.880
10287WAT     H131103   7.270   9.212   4.861
10287WAT     H231104   7.120   9.226   4.922
10288WAT      O31105   2.109   3.740   3.796
10288WAT     H131106   2.087   3.705   3.705
10288WAT     H231107   2.186   3.803   3.790
10289WAT      O31108   2.418   4.494   1.836
10289WAT     H131109   2.418   4.438   1.753
10289WAT     H231110   2.511   4.528   1.854
10290WAT      O31111   3.263   2.352   9.176
10290WAT     H131112   3.204   2.321   9.102
10290WAT     H231113   3.358   2.351   9.146
10291WAT      O31114   8.184   2.791   7.604
10291WAT     H131115   8.088   2.777   7.627
10291WAT     H231116   8.191   2.826   7.510
10292WAT      O31117   8.011   0.062   6.440
10292WAT     H131118   8.016   0.013   6.353
10292WAT     H231119   8.091   0.039   6.496
10293WAT      O31120   2.488   1.992   6.547
10293WAT     H131121   2.413   1.979   6.612
10293WAT     H231122   2.575   1.992   6.596
10294WAT      O31123   8.173   8.669   4.862
10294WAT     H131124   8.210   8.597   4.803
10294WAT     H231125   8.141   8.745   4.806
10295WAT      O31126   5.863   3.461   2.927
10295WAT     H131127   5.834   3.377   2.880
10295WAT     H231128   5.960   3.478   2.909
10296WAT      O31129   4.860   1.841   0.650
10296WAT     H131130   4.833   1.754   0.692
10296WAT     H231131   4.958   1.839   0.629
10297WAT      O31132   9.386   1.003   5.720
10297WAT     H131133   9.364   0.983   5.625
10297WAT     H231134   9.482   1.031   5.727
10298WAT      O31135   3.340   0.635   5.289
10298WAT     H131136   3.250   0.616   5.249
10298WAT     H231137   3.338   0.615   5.387
10299WAT      O31138   9.176   5.193   0.186
10299WAT     H131139   9.155   5.141   0.104
10299WAT     H231140   9.111   5.269   0.194
10300WAT      O31141   0.006   0.336   8.405
10300WAT     H131142  -0.080   0.294   8.434
10300WAT     H231143   0.079   0.268   8.404
10301WAT      O31144   4.019   2.987   7.247
10301WAT     H131145   4.003   3.022   7.154
10301WAT     H231146   4.015   2.887   7.246
10302WAT      O31147   9.378   4.671   7.365
10302WAT     H131148   9.297   4.731   7.364
10302WAT     H231149   9.447   4.708   7.303
10303WAT      O31150   6.270   7.153   7.453
10303WAT     H131151   6.347   7.108   7.499
10303WAT     H231152   6.300   7.182   7.362
10304WAT      O31153   0.244   4.024   8.771
10304WAT     H131154   0.324   4.070   8.809
10304WAT     H231155   0.204   4.081   8.699
10305WAT      O31156   5.551   9.005   9.035
10305WAT     H131157   5.470   8.963   8.992
10305WAT     H231158   5.525   9.047   9.122
10306WAT      O31159   2.307   3.497   3.466
10306WAT     H131160   2.345   3.528   3.553
10306WAT     H231161   2.304   3.397   3.464
10307WAT      O31162   5.995   4.652   8.123
10307WAT     H131163   5.905   4.681   8.091
10307WAT     H231164   6.064   4.717   8.090
10308WAT      O31165   4.943   7.527   2.772
10308WAT     H131166   4.903   7.583   2.700
10308WAT     H231167   5.042   7.518   2.758
10309WAT      O31168   8.757   1.599   5.447
10309WAT     H131169   8.819   1.643   5.512
10309WAT     H231170   8.777   1.501   5.442
10310WAT      O31171   9.001   5.007   8.332
10310WAT     H131172   9.052   5.006   8.245
10310WAT     H231173   9.031   5.084   8.387
10311WAT      O31174   2.971   6.592   4.164
10311WAT     H131175   2.979   6.526   4.089
10311WAT     H231176   2.972   6.685   4.127
10312WAT      O31177   3.782   8.870   8.295
10312WAT     H131178   3.859   8.806   8.296
10312WAT     H231179   3.778   8.918   8.383
10313WAT      O31180   2.355   9.775   6.983
10313WAT     H131181   2.304   9.836   7.044
10313WAT     H231182   2.291   9.718   6.932
10314WAT      O31183   1.629   1.186   5.143
10314WAT     H131184   1.591   1.223   5.058
10314WAT     H231185   1.727   1.203   5.146
10315WAT      O31186   8.558   3.240   0.919
10315WAT     H131187   8.556   3.290   0.832
10315WAT     H231188   8.474   3.185   0.927
10316WAT      O31189   2.666   6.409   9.029
10316WAT     H131190   2.596   6.356   8.981
10316WAT     H231191   2.700   6.481   8.968
10317WAT      O31192   6.640   4.108   7.890
10317WAT     H131193   6.544   4.079   7.887
10317WAT     H231194   6.687   4.057   7.962
10318WAT      O31195   4.747   2.311   5.245
10318WAT     H131196   4.664   2.350   5.206
10318WAT     H231197   4.811   2.287   5.171
10319WAT      O31198   6.911   6.055   6.418
10319WAT     H131199   6.853   6.028   6.341
10319WAT     H231200   7.007   6.039   6.394
10320WAT      O31201   9.716   7.845   0.187
10320WAT     H131202   9.681   7.924   0.136
10320WAT     H231203   9.677   7.761   0.150
10321WAT      O31204   3.225   2.299   5.623
10321WAT     H131205   3.323   2.319   5.611
10321WAT     H231206   3.181   2.378   5.666
10322WAT      O31207   7.428   2.403   2.686
10322WAT     H131208   7.505   2.414   2.749
10322WAT     H231209   7.342   2.411   2.737
10323WAT      O31210   0.664   4.050   5.151
10323WAT     H131211   0.595   4.073   5.083
10323WAT     H231212   0.746   4.105   5.135
10324WAT      O31213   8.359   1.588   3.188
10324WAT     H131214   8.444   1.637   3.169
10324WAT     H231215   8.325   1.545   3.105
10325WAT      O31216   9.748   5.286   7.904
10325WAT     H131217   9.808   5.314   7.979
10325WAT     H231218   9.654   5.282   7.937
10326WAT      O31219   1.603   7.636   5.557
10326WAT     H131220   1.637   7.569   5.491
10326WAT     H231221   1.553   7.707   5.508
10327WAT      O31222   4.910   8.769   1.526
10327WAT     H131223   5.009   8.758   1.538
10327WAT     H231224   4.876   8.838   1.589
10328WAT      O31225   5.753   7.823   3.513
10328WAT     H131226   5.727   7.882   3.590
10328WAT     H231227   5.736   7.728   3.537
10329WAT      O31228   8.940   6.283   3.560
10329WAT     H131229   8.988   6.204   3.521
10329WAT     H231230   8.861   6.250   3.613
10330WAT      O31231   8.479   9.015   7.424
10330WAT     H131232   8.457   9.108   7.395
10330WAT     H231233   8.524   9.017   7.513
10331WAT      O31234   0.298   3.280   3.499
10331WAT     H131235   0.341   3.313   3.415
10331WAT     H231236   0.201   3.305   3.498
10332WAT      O31237   6.052   9.016   6.365
10332WAT     H131238   6.094   9.099   6.329
10332WAT     H231239   5.955   9.013   6.340
10333WAT      O31240   0.693   3.559   4.398
10333WAT     H131241   0.657   3.649   4.423
10333WAT     H231242   0.784   3.569   4.358
10334WAT      O31243   3.333   6.867   8.915
10334WAT     H131244   3.395   6.870   8.993
10334WAT     H231245   3.385   6.853   8.831
10335WAT      O31246   0.094   1.829   8.629
10335WAT     H131247   0.097   1.929   8.640
10335WAT     H231248   0.151   1.786   8.699
10336WAT      O31249   2.419   6.569   9.780
10336WAT     H131250   2.392   6.510   9.703
10336WAT     H231251   2.339   6.587   9.838
10337WAT      O31252   0.090   5.150   6.031
10337WAT     H131253   0.022   5.218   6.057
10337WAT     H231254   0.054   5.058   6.044
10338WAT      O31255   0.087   2.733   8.508
10338WAT     H131256   0.125   2.714   8.598
10338WAT     H231257   0.001   2.784   8.517
10339WAT      O31258   4.323   4.920   6.848
10339WAT     H131259   4.269   4.848   6.805
10339WAT     H231260   4.306   5.007   6.801
10340WAT      O31261   6.280   8.274   0.778
10340WAT     H131262   6.318   8.279   0.686
10340WAT     H231263   6.280   8.179   0.810
10341WAT      O31264   0.812   5.135   5.962
10341WAT     H131265   0.784   5.162   5.870
10341WAT     H231266   0.911   5.125   5.966
10342WAT      O31267   8.195   6.678   5.239
10342WAT     H131268   8.153   6.768   5.254
10342WAT     H231269   8.294   6.689   5.225
10343WAT      O31270   7.377   9.133   6.880
10343WAT     H131271   7.424   9.095   6.959
10343WAT     H231272   7.353   9.059   6.817
10344WAT      O31273   6.557   1.126   2.103
10344WAT     H131274   6.464   1.104   2.071
10344WAT     H231275   6.611   1.042   2.106
10345WAT      O31276   5.073   0.953   5.784
10345WAT     H131277   5.129   0.902   5.850
10345WAT     H231278   5.119   0.954   5.695
10346WAT      O31279   1.054   8.679   2.071
10346WAT     H131280   1.137   8.639   2.110
10346WAT     H231281   1.056   8.778   2.083
10347WAT      O31282   2.978   7.576   1.202
10347WAT     H131283   2.952   7.645   1.135
10347WAT     H231284   2.998   7.490   1.155
10348WAT      O31285   3.317   3.499   1.904
10348WAT     H131286   3.301   3.539   1.994
10348WAT     H231287   3.307   3.569   1.833
10349WAT      O31288   5.186   3.148   8.539
10349WAT     H131289   5.257   3.175   8.474
10349WAT     H231290   5.222   3.155   8.632
10350WAT      O31291   7.076   0.022   7.452
10350WAT     H131292   7.160   0.042   7.502
10350WAT     H231293   7.098  -0.021   7.365
10351WAT      O31294   6.076   6.147   1.502
10351WAT     H131295   6.004   6.180   1.441
10351WAT     H231296   6.084   6.048   1.492
10352WAT      O31297   5.482   0.703   0.287
10352WAT     H131298   5.463   0.629   0.223
10352WAT     H231299   5.397   0.750   0.310
10353WAT      O31300   1.611   4.302   6.520
10353WAT     H131301   1.539   4.355   6.477
10353WAT     H231302   1.588   4.205   6.516
10354WAT      O31303   3.444   4.761   2.413
10354WAT     H131304   3.493   4.676   2.429
10354WAT     H231305   3.496   4.818   2.349
10355WAT      O31306   8.645   0.610   7.703
10355WAT     H131307   8.732   0.578   7.667
10355WAT     H231308   8.598   0.535   7.750
10356WAT      O31309   5.505   2.845   5.614
10356WAT     H131310   5.414   2.864   5.650
10356WAT     H231311   5.504   2.759   5.562
10357WAT      O31312   1.963   7.677   6.377
10357WAT     H131313   1.990   7.764   6.418
10357WAT     H231314   2.009   7.602   6.425
10358WAT      O31315   0.669   7.928   4.513
10358WAT     H131316   0.730   8.000   4.545
10358WAT     H231317   0.609   7.900   4.588
10359WAT      O31318   3.888   2.537   2.180
10359WAT     H131319   3.981   2.512   2.206
10359WAT     H231320   3.890   2.624   2.130
10360WAT      O31321   2.114   2.752   8.084
10360WAT     H131322   2.041   2.814   8.055
10360WAT     H231323   2.175   2.801   8.146
10361WAT      O31324   5.205   3.241   5.093
10361WAT     H131325   5.147   3.316   5.062
10361WAT     H231326   5.157   3.154   5.080
10362WAT      O31327   8.894   0.549   7.622
10362WAT     H131328   8.967   0.510   7.677
10362WAT     H231329   8.915   0.645   7.602
10363WAT      O31330   9.864   8.798   6.336
10363WAT     H131331   9.946   8.806   6.280
10363WAT     H231332   9.845   8.702   6.354
10364WAT      O31333   8.450   8.763   4.322
10364WAT     H131334   8.383   8.793   4.390
10364WAT     H231335   8.541   8.791   4.350
10365WAT      O31336   9.385   5.330   0.699
10365WAT     H131337   9.426   5.305   0.786
10365WAT     H231338   9.456   5.341   0.630
10366WAT      O31339   3.481   5.399   9.178
10366WAT     H131340   3.509   5.306   9.203
10366WAT     H231341   3.382   5.401   9.165
10367WAT      O31342   6.526   0.275   7.117
10367WAT     H131343   6.569   0.187   7.139
10367WAT     H231344   6.553   0.302   7.024
10368WAT      O31345   9.029   7.387   6.907
10368WAT     H131346   9.003   7.293   6.930
10368WAT     H231347   9.113   7.410   6.957
10369WAT      O31348   3.092   2.763   9.054
10369WAT     H131349   2.992   2.772   9.061
10369WAT     H231350   3.114   2.707   8.974
10370WAT      O31351   2.290   2.750   6.966
10370WAT     H131352   2.229   2.797   7.029
10370WAT     H231353   2.378   2.734   7.011
10371WAT      O31354   0.415   9.648   2.726
10371WAT     H131355   0.379   9.680   2.814
10371WAT     H231356   0.358   9.683   2.652
10372WAT      O31357   9.138   6.945   2.954
10372WAT     H131358   9.095   6.867   3.000
10372WAT     H231359   9.124   7.028   3.007
10373WAT      O31360   9.247   0.247   4.695
10373WAT     H131361   9.260   0.148   4.687
10373WAT     H231362   9.335   0.292   4.708
10374WAT      O31363   6.375   4.160   3.703
10374WAT     H131364   6.355   4.063   3.690
10374WAT     H231365   6.419   4.196   3.620
10375WAT      O31366   8.795   6.397   0.928
10375WAT     H131367   8.824   6.421   1.020
10375WAT     H231368   8.696   6.389   0.925
10376WAT      O31369   7.674   3.203   3.981
10376WAT     H131370   7.743   3.158   3.924
10376WAT     H231371   7.597   3.232   3.925
10377WAT      O31372   7.227   4.236   8.386
10377WAT     H131373   7.149   4.174   8.395
10377WAT     H231374   7.277   4.241   8.473
10378WAT      O31375   4.449   4.404   1.187
10378WAT     H131376   4.482   4.498   1.198
10378WAT     H231377   4.365   4.405   1.133
10379WAT      O31378   5.426   2.887   5.210
10379WAT     H131379   5.348   2.828   5.225
10379WAT     H231380   5.460   2.875   5.117
10380WAT      O31381   2.005   1.331   2.474
10380WAT     H131382   1.907   1.318   2.491
10380WAT     H231383   2.028   1.292   2.385
10381WAT      O31384   3.361   6.132   4.747
10381WAT     H131385   3.322   6.148   4.656
10381WAT     H231386   3.336   6.041   4.778
10382WAT      O31387   3.499   3.920   4.411
10382WAT     H131388   3.449   3.962   4.334
10382WAT     H231389   3.479   3.822   4.414
10383WAT      O31390   9.424   2.114   4.391
10383WAT     H131391   9.491   2.167   4.443
10383WAT     H231392   9.333   2.126   4.432
10384WAT      O31393   4.127   1.799   9.739
10384WAT     H131394   4.093   1.719   9.689
10384WAT     H231395   4.215   1.827   9.702
10385WAT      O31396   2.955   0.047   6.134
10385WAT     H131397   3.037   0.038   6.077
10385WAT     H231398   2.973   0.113   6.207
10386WAT      O31399   1.010   0.102   2.489
10386WAT     H131400   1.020   0.009   2.452
10386WAT     H231401   0.915   0.130   2.481
10387WAT      O31402   8.782   3.630   2.130
10387WAT     H131403   8.720   3.698   2.169
10387WAT     H231404   8.751   3.538   2.156
10388WAT      O31405   0.991   0.506   7.635
10388WAT     H131406   0.996   0.583   7.573
10388WAT     H231407   0.912   0.517   7.696
10389WAT      O31408   7.092   7.615   3.451
10389WAT     H131409   7.071   7.625   3.353
10389WAT     H231410   7.029   7.549   3.492
10390WAT      O31411   3.099   8.828   8.477
10390WAT     H131412   3.199   8.821   8.474
10390WAT     H231413   3.071   8.920   8.449
10391WAT      O31414   5.508   6.860   4.303
10391WAT     H131415   5.479   6.853   4.398
10391WAT     H231416   5.526   6.768   4.267
10392WAT      O31417   8.442   1.771   9.238
10392WAT     H131418   8.537   1.746   9.258
10392WAT     H231419   8.385   1.689   9.242
10393WAT      O31420   3.861   1.518   3.299
10393WAT     H131421   3.763   1.499   3.307
10393WAT     H231422   3.878   1.569   3.215
10394WAT      O31423   6.729   8.945   7.933
10394WAT     H131424   6.797   8.946   8.006
10394WAT     H231425   6.764   8.995   7.854
10395WAT      O31426   7.287   1.138   3.662
10395WAT     H131427   7.283   1.072   3.588
10395WAT     H231428   7.383   1.160   3.682
10396WAT      O31429   3.415   4.298   7.818
10396WAT     H131430   3.375   4.351   7.893
10396WAT     H231431   3.343   4.245   7.773
10397WAT      O31432   5.317   9.803   1.998
10397WAT     H131433   5.308   9.902   2.015
10397WAT     H231434   5.237   9.756   2.034
10398WAT      O31435   1.707   4.304   7.919
10398WAT     H131436   1.797   4.330   7.884
10398WAT     H231437   1.636   4.356   7.870
10399WAT      O31438   8.575   7.692   0.940
10399WAT     H131439   8.671   7.708   0.914
10399WAT     H231440   8.544   7.766   0.998
10400WAT      O31441   5.003   8.415   5.347
10400WAT     H131442   5.075   8.394   5.414
10400WAT     H231443   4.976   8.511   5.357
10401WAT      O31444   3.002   5.465   9.172
10401WAT     H131445   2.925   5.437   9.115
10401WAT     H231446   2.996   5.563   9.189
10402WAT      O31447   6.089   5.894   8.324
10402WAT     H131448   6.137   5.820   8.277
10402WAT     H231449   6.019   5.933   8.263
10403WAT      O31450   4.048   6.924   7.152
10403WAT     H131451   3.991   6.944   7.231
10403WAT     H231452   4.143   6.913   7.182
10404WAT      O31453   5.239   1.042   4.823
10404WAT     H131454   5.221   0.968   4.888
10404WAT     H231455   5.281   1.119   4.871
10405WAT      O31456   8.197   6.298   8.419
10405WAT     H131457   8.141   6.327   8.496
10405WAT     H231458   8.139   6.255   8.350
10406WAT      O31459   7.341   6.744   9.302
10406WAT     H131460   7.341   6.644   9.307
10406WAT     H231461   7.377   6.781   9.388
10407WAT      O31462   8.570   6.568   2.131
10407WAT     H131463   8.477   6.541   2.108
10407WAT     H231464   8.568   6.636   2.204
10408WAT      O31465   0.877   1.315   6.594
10408WAT     H131466   0.846   1.314   6.690
10408WAT     H231467   0.970   1.350   6.590
10409WAT      O31468   4.074   8.421   6.807
10409WAT     H131469   4.079   8.333   6.854
10409WAT     H231470   4.036   8.408   6.716
10410WAT      O31471   0.324   1.666   9.486
10410WAT     H131472   0.277   1.669   9.574
10410WAT     H231473   0.340   1.759   9.454
10411WAT      O31474   5.648   1.410   4.101
10411WAT     H131475   5.634   1.357   4.184
10411WAT     H231476   5.675   1.349   4.026
10412WAT      O31477   1.999   5.213   8.559
10412WAT     H131478   1.953   5.125   8.573
10412WAT     H231479   2.011   5.229   8.461
10413WAT      O31480   8.444   0.533   5.660
10413WAT     H131481   8.452   0.438   5.627
10413WAT     H231482   8.427   0.533   5.758
10414WAT      O31483   5.062   6.749   1.795
10414WAT     H131484   5.108   6.728   1.708
10414WAT     H231485   5.096   6.837   1.829
10415WAT      O31486   9.825   7.270   8.963
10415WAT     H131487   9.744   7.277   8.906
10415WAT     H231488   9.903   7.239   8.908
10416WAT      O31489   1.331   6.607   1.367
10416WAT     H131490   1.253   6.648   1.414
10416WAT     H231491   1.315   6.608   1.269
10417WAT      O31492   7.217   0.907   7.868
10417WAT     H131493   7.250   1.001   7.874
10417WAT     H231494   7.280   0.846   7.914
10418WAT      O31495   5.398   0.768   6.431
10418WAT     H131496   5.441   0.682   6.458
10418WAT     H231497   5.389   0.828   6.512
10419WAT      O31498   3.993   0.754   6.687
10419WAT     H131499   4.016   0.744   6.591
10419WAT     H231500   4.017   0.671   6.737
10420WAT      O31501   1.367   6.183   0.507
10420WAT     H131502   1.291   6.164   0.569
10420WAT     H231503   1.343   6.153   0.414
10421WAT      O31504   9.126   5.750   9.348
10421WAT     H131505   9.225   5.758   9.360
10421WAT     H231506   9.080   5.805   9.417
10422WAT      O31507   8.787   8.546   3.341
10422WAT     H131508   8.690   8.540   3.361
10422WAT     H231509   8.803   8.613   3.269
10423WAT      O31510   8.004   7.541   4.654
10423WAT     H131511   7.950   7.562   4.735
10423WAT     H231512   8.065   7.464   4.674
10424WAT      O31513   2.939   4.113   3.501
10424WAT     H131514   2.889   4.185   3.454
10424WAT     H231515   2.878   4.068   3.567
10425WAT      O31516   9.341   7.164   6.173
10425WAT     H131517   9.397   7.224   6.230
10425WAT     H231518   9.256   7.142   6.220
10426WAT      O31519   7.366   0.792   9.465
10426WAT     H131520   7.424   0.819   9.389
10426WAT     H231521   7.270   0.797   9.437
10427WAT      O31522   0.236   7.027   9.544
10427WAT     H131523   0.266   7.093   9.613
10427WAT     H231524   0.201   6.945   9.589
10428WAT      O31525   2.828   4.095   3.070
10428WAT     H131526   2.879   4.177   3.096
10428WAT     H231527   2.884   4.014   3.088
10429WAT      O31528   4.975   7.736   7.857
10429WAT     H131529   4.955   7.665   7.926
10429WAT     H231530   5.015   7.815   7.902
10430WAT      O31531   3.278   7.983   5.410
10430WAT     H131532   3.232   8.070   5.391
10430WAT     H231533   3.366   8.000   5.455
10431WAT      O31534   3.949   1.305   5.841
10431WAT     H131535   3.874   1.300   5.775
10431WAT     H231536   4.036   1.300   5.793
10432WAT      O31537   9.615   0.338   9.116
10432WAT     H131538   9.548   0.266   9.135
10432WAT     H231539   9.580   0.398   9.044
10433WAT      O31540   2.161   7.418   5.798
10433WAT     H131541   2.193   7.472   5.720
10433WAT     H231542   2.112   7.337   5.765
10434WAT      O31543   9.169   4.236   1.312
10434WAT     H131544   9.093   4.172   1.306
10434WAT     H231545   9.240   4.210   1.246
10435WAT      O31546   6.102   9.322   4.627
10435WAT     H131547   6.068   9.232   4.653
10435WAT     H231548   6.176   9.313   4.561
10436WAT      O31549   0.958   4.960   1.834
10436WAT     H131550   0.879   4.956   1.773
10436WAT     H231551   1.004   5.048   1.822
10437WAT      O31552   3.172   4.939   2.975
10437WAT     H131553   3.104   4.952   2.903
10437WAT     H231554   3.249   4.885   2.940
10438WAT      O31555   2.068   2.274   4.122
10438WAT     H131556   2.129   2.200   4.094
10438WAT     H231557   2.122   2.356   4.142
10439WAT      O31558   8.606   5.363   8.489
10439WAT     H131559   8.563   5.451   8.467
10439WAT     H231560   8.549   5.288   8.456
10440WAT      O31561   9.272   5.038   4.681
10440WAT     H131562   9.176   5.041   4.650
10440WAT     H231563   9.318   4.959   4.640
10441WAT      O31564   5.802   6.485   8.266
10441WAT     H131565   5.767   6.496   8.359
10441WAT     H231566   5.818   6.575   8.226
10442WAT      O31567   9.263   6.745   2.537
10442WAT     H131568   9.321   6.814   2.494
10442WAT     H231569   9.187   6.790   2.585
10443WAT      O31570   6.013   4.873   0.957
10443WAT     H131571   5.962   4.891   1.041
10443WAT     H231572   6.004   4.951   0.895
10444WAT      O31573   0.100   9.629   2.712
10444WAT     H131574   0.136   9.602   2.801
10444WAT     H231575   0.017   9.577   2.692
10445WAT      O31576   7.256   4.895   2.394
10445WAT     H131577   7.267   4.828   2.321
10445WAT     H231578   7.200   4.971   2.361
10446WAT      O31579   9.799   8.167   0.985
10446WAT     H131580   9.856   8.120   1.052
10446WAT     H231581   9.838   8.155   0.893
10447WAT      O31582   9.099   5.290   4.266
10447WAT     H131583   9.073   5.378   4.305
10447WAT     H231584   9.178   5.301   4.207
10448WAT      O31585   9.407   9.019   8.606
10448WAT     H131586   9.431   8.987   8.514
10448WAT     H231587   9.310   8.999   8.624
10449WAT      O31588   5.066   2.632   7.991
10449WAT     H131589   4.987   2.637   8.052
10449WAT     H231590   5.058   2.703   7.921
10450WAT      O31591   2.389   9.679   1.919
10450WAT     H131592   2.334   9.753   1.880
10450WAT     H231593   2.465   9.718   1.971
10451WAT      O31594   6.907   5.877   6.625
10451WAT     H131595   6.894   5.964   6.576
10451WAT     H231596   6.858   5.880   6.712
10452WAT      O31597   5.024   8.843   2.909
10452WAT     H131598   4.969   8.770   2.869
10452WAT     H231599   5.106   8.857   2.854
10453WAT      O31600   7.874   8.583   6.029
10453WAT     H131601   7.898   8.527   6.108
10453WAT     H231602   7.866   8.525   5.948
10454WAT      O31603   5.749   0.796   9.382
10454WAT     H131604   5.733   0.780   9.479
10454WAT     H231605   5.845   0.820   9.367
10455WAT      O31606   8.508   7.680   5.913
10455WAT     H131607   8.467   7.723   5.994
10455WAT     H231608   8.539   7.588   5.935
10456WAT      O31609   7.046   5.883   1.825
10456WAT     H131610   6.968   5.933   1.864
10456WAT     H231611   7.089   5.828   1.896
10457WAT      O31612   4.043   6.097   6.817
10457WAT     H131613   3.978   6.109   6.742
10457WAT     H231614   4.057   6.185   6.863
10458WAT      O31615   7.060   1.310   6.858
10458WAT     H131616   6.980   1.352   6.813
10458WAT     H231617   7.064   1.213   6.834
10459WAT      O31618   3.968   6.233   9.848
10459WAT     H131619   3.983   6.237   9.749
10459WAT     H231620   3.943   6.324   9.882
10460WAT      O31621   1.318   5.671   1.889
10460WAT     H131622   1.336   5.583   1.934
10460WAT     H231623   1.246   5.720   1.939
10461WAT      O31624   4.805   7.674   5.347
10461WAT     H131625   4.898   7.691   5.314
10461WAT     H231626   4.808   7.616   5.428
10462WAT      O31627   7.525   6.317   2.679
10462WAT     H131628   7.537   6.246   2.611
10462WAT     H231629   7.441   6.300   2.732
10463WAT      O31630   2.322   6.206   1.470
10463WAT     H131631   2.305   6.293   1.424
10463WAT     H231632   2.327   6.221   1.569
10464WAT      O31633   6.524   4.206   1.847
10464WAT     H131634   6.445   4.146   1.832
10464WAT     H231635   6.591   4.159   1.904
10465WAT      O31636   8.813   1.731   3.981
10465WAT     H131637   8.899   1.681   3.986
10465WAT     H231638   8.777   1.746   4.073
10466WAT      O31639   6.038   5.448   9.731
10466WAT     H131640   5.976   5.489   9.664
10466WAT     H231641   5.987   5.424   9.813
10467WAT      O31642   6.328   0.407   0.644
10467WAT     H131643   6.234   0.442   0.650
10467WAT     H231644   6.328   0.308   0.650
10468WAT      O31645   5.213   1.135   7.325
10468WAT     H131646   5.217   1.109   7.422
10468WAT     H231647   5.165   1.064   7.274
10469WAT      O31648   7.579   1.221   6.159
10469WAT     H131649   7.491   1.269   6.160
10469WAT     H231650   7.565   1.129   6.122
10470WAT      O31651   2.913   8.418   3.826
10470WAT     H131652   2.915   8.348   3.898
10470WAT     H231653   2.993   8.407   3.767
10471WAT      O31654   2.166   3.723   7.693
10471WAT     H131655   2.096   3.742   7.762
10471WAT     H231656   2.128   3.737   7.602
10472WAT      O31657   0.980   9.492   4.075
10472WAT     H131658   1.036   9.502   3.992
10472WAT     H231659   0.888   9.464   4.049
10473WAT      O31660   0.372   0.707   8.759
10473WAT     H131661   0.302   0.643   8.792
10473WAT     H231662   0.443   0.657   8.710
10474WAT      O31663   8.975   0.704   2.624
10474WAT     H131664   8.945   0.785   2.675
10474WAT     H231665   9.048   0.730   2.561
10475WAT      O31666   8.025   6.898   3.122
10475WAT     H131667   8.080   6.974   3.158
10475WAT     H231668   7.988   6.924   3.033
10476WAT      O31669   3.255   6.601   7.701
10476WAT     H131670   3.254   6.501   7.699
10476WAT     H231671   3.348   6.634   7.688
10477WAT      O31672   3.698   5.610   8.787
10477WAT     H131673   3.619   5.575   8.837
10477WAT     H231674   3.778   5.554   8.808
10478WAT      O31675   4.975   6.636   9.735
10478WAT     H131676   5.007   6.564   9.674
10478WAT     H231677   4.875   6.640   9.734
10479WAT      O31678   0.206   3.241   9.436
10479WAT     H131679   0.149   3.235   9.518
10479WAT     H231680   0.212   3.336   9.406
10480WAT      O31681   9.252   9.730   5.285
10480WAT     H131682   9.239   9.725   5.384
10480WAT     H231683   9.349   9.740   5.264
10481WAT      O31684   8.471   1.052   6.255
10481WAT     H131685   8.459   1.102   6.170
10481WAT     H231686   8.569   1.040   6.273
10482WAT      O31687   6.673   2.780   4.963
10482WAT     H131688   6.671   2.876   4.988
10482WAT     H231689   6.666   2.723   5.045
10483WAT      O31690   8.714   3.020   9.318
10483WAT     H131691   8.744   3.115   9.306
10483WAT     H231692   8.674   3.009   9.409
10484WAT      O31693   7.119   7.147   3.405
10484WAT     H131694   7.082   7.194   3.485
10484WAT     H231695   7.166   7.213   3.346
10485WAT      O31696   3.875   1.653   3.067
10485WAT     H131697   3.942   1.593   3.024
10485WAT     H231698   3.786   1.640   3.025
10486WAT      O31699   5.481   4.802   0.902
10486WAT     H131700   5.498   4.828   0.807
10486WAT     H231701   5.564   4.762   0.941
10487WAT      O31702   0.897   2.869   8.213
10487WAT     H131703   0.800   2.875   8.238
10487WAT     H231704   0.953   2.911   8.284
10488WAT      O31705   0.791   2.882   5.537
10488WAT     H131706   0.810   2.790   5.571
10488WAT     H231707   0.855   2.904   5.463
10489WAT      O31708   6.043   9.103   7.333
10489WAT     H131709   6.100   9.134   7.257
10489WAT     H231710   6.084   9.021   7.375
10490WAT      O31711   4.444   2.232   5.826
10490WAT     H131712   4.488   2.271   5.906
10490WAT     H231713   4.368   2.174   5.854
10491WAT      O31714   9.004   8.025   6.006
10491WAT     H131715   8.989   7.970   6.088
10491WAT     H231716   8.981   8.120   6.026
10492WAT      O31717   3.371   3.695   7.694
10492WAT     H131718   3.402   3.681   7.788
10492WAT     H231719   3.352   3.792   7.679
10493WAT      O31720   6.481   6.167   0.248
10493WAT     H131721   6.406   6.124   0.198
10493WAT     H231722   6.519   6.102   0.313
10494WAT      O31723   4.108   6.763   1.529
10494WAT     H131724   4.098   6.847   1.583
10494WAT     H231725   4.062   6.775   1.441
10495WAT      O31726   0.998   2.377   2.301
10495WAT     H131727   0.943   2.427   2.368
10495WAT     H231728   0.937   2.331   2.236
10496WAT      O31729   4.438   5.293   3.808
10496WAT     H131730   4.362   5.288   3.872
10496WAT     H231731   4.435   5.215   3.746
10497WAT      O31732   3.369   6.718   8.498
10497WAT     H131733   3.303   6.784   8.462
10497WAT     H231734   3.462   6.746   8.472
10498WAT      O31735   4.284   9.234   6.194
10498WAT     H131736   4.313   9.261   6.286
10498WAT     H231737   4.252   9.139   6.195
10499WAT      O31738   4.592   5.739   8.843
10499WAT     H131739   4.510   5.712   8.894
10499WAT     H231740   4.585   5.835   8.817
10500WAT      O31741   6.089   0.580   6.394
10500WAT     H131742   6.181   0.567   6.430
10500WAT     H231743   6.088   0.658   6.332
10501WAT      O31744   8.348   7.206   1.887
10501WAT     H131745   8.309   7.159   1.807
10501WAT     H231746   8.288   7.282   1.913
10502WAT      O31747   0.035   0.288   0.875
10502WAT     H131748   0.131   0.269   0.856
10502WAT     H231749   0.028   0.357   0.947
10503WAT      O31750   8.361   0.693   3.854
10503WAT     H131751   8.266   0.717   3.835
10503WAT     H231752   8.379   0.707   3.951
10504WAT      O31753   8.473   4.380   6.231
10504WAT     H131754   8.511   4.379   6.324
10504WAT     H231755   8.537   4.425   6.169
10505WAT      O31756   3.416   3.868   7.318
10505WAT     H131757   3.353   3.888   7.243
10505WAT     H231758   3.497   3.821   7.283
10506WAT      O31759   8.693   7.539   0.639
10506WAT     H131760   8.614   7.599   0.645
10506WAT     H231761   8.707   7.494   0.727
10507WAT      O31762   8.279   0.287   5.315
10507WAT     H131763   8.180   0.298   5.320
10507WAT     H231764   8.309   0.293   5.220
10508WAT      O31765   1.908   1.554   6.542
10508WAT     H131766   1.817   1.513   6.550
10508WAT     H231767   1.922   1.587   6.449
10509WAT      O31768   7.421   9.388   1.377
10509WAT     H131769   7.510   9.421   1.407
10509WAT     H231770   7.386   9.322   1.444
10510WAT      O31771   7.413   4.615   1.332
10510WAT     H131772   7.413   4.702   1.380
10510WAT     H231773   7.341   4.556   1.369
10511WAT      O31774   8.615   0.602   3.209
10511WAT     H131775   8.626   0.697   3.237
10511WAT     H231776   8.677   0.583   3.132
10512WAT      O31777   5.427   6.498   3.783
10512WAT     H131778   5.473   6.475   3.697
10512WAT     H231779   5.362   6.573   3.767
10513WAT      O31780   2.222   8.564   8.894
10513WAT     H131781   2.147   8.579   8.958
10513WAT     H231782   2.294   8.510   8.938
10514WAT      O31783   7.668   8.876   0.228
10514WAT     H131784   7.632   8.814   0.298
10514WAT     H231785   7.620   8.964   0.235
10515WAT      O31786   1.029   1.180   5.154
10515WAT     H131787   1.111   1.202   5.101
10515WAT     H231788   1.028   1.234   5.239
10516WAT      O31789   2.957   4.319   7.592
10516WAT     H131790   2.894   4.251   7.553
10516WAT     H231791   2.907   4.381   7.652
10517WAT      O31792   4.373   6.485   9.479
10517WAT     H131793   4.374   6.408   9.542
10517WAT     H231794   4.303   6.550   9.507
10518WAT      O31795   0.970   4.243   0.353
10518WAT     H131796   0.938   4.204   0.440
10518WAT     H231797   0.957   4.342   0.353
10519WAT      O31798   3.660   3.875   5.678
10519WAT     H131799   3.702   3.808   5.739
10519WAT     H231800   3.675   3.847   5.583
10520WAT      O31801   6.907   5.238   1.585
10520WAT     H131802   6.905   5.234   1.685
10520WAT     H231803   6.823   5.199   1.548
10521WAT      O31804   9.560   1.114   7.604
10521WAT     H131805   9.624   1.175   7.651
10521WAT     H231806   9.596   1.020   7.605
10522WAT      O31807   2.053   7.146   5.262
10522WAT     H131808   2.119   7.090   5.211
10522WAT     H231809   1.975   7.089   5.289
10523WAT      O31810   7.406   3.539   4.244
10523WAT     H131811   7.455   3.595   4.178
10523WAT     H231812   7.308   3.543   4.225
10524WAT      O31813   4.040   2.012   6.755
10524WAT     H131814   4.104   1.980   6.825
10524WAT     H231815   3.979   1.937   6.728
10525WAT      O31816   2.831   2.138   0.488
10525WAT     H131817   2.750   2.081   0.503
10525WAT     H231818   2.812   2.206   0.418
10526WAT      O31819   6.680   4.198   7.630
10526WAT     H131820   6.731   4.120   7.595
10526WAT     H231821   6.664   4.186   7.728
10527WAT      O31822   9.161   0.626   4.983
10527WAT     H131823   9.115   0.682   5.052
10527WAT     H231824   9.246   0.590   5.021
10528WAT      O31825   2.321   3.201   8.320
10528WAT     H131826   2.387   3.276   8.330
10528WAT     H231827   2.280   3.205   8.229
10529WAT      O31828   9.025   6.325   0.817
10529WAT     H131829   8.934   6.338   0.856
10529WAT     H231830   9.090   6.305   0.890
10530WAT      O31831   5.036   8.740   0.640
10530WAT     H131832   5.077   8.824   0.605
10530WAT     H231833   5.106   8.685   0.685
10531WAT      O31834   9.095   5.400   5.216
10531WAT     H131835   9.177   5.448   5.247
10531WAT     H231836   9.120   5.330   5.150
10532WAT      O31837   1.921   9.113   2.717
10532WAT     H131838   1.871   9.044   2.771
10532WAT     H231839   1.953   9.071   2.632
10533WAT      O31840   1.870   1.074   8.918
10533WAT     H131841   1.850   1.110   9.009
10533WAT     H231842   1.920   1.143   8.866
10534WAT      O31843   1.688   7.772   0.533
10534WAT     H131844   1.632   7.734   0.606
10534WAT     H231845   1.773   7.809   0.572
10535WAT      O31846   6.157   6.861   1.360
10535WAT     H131847   6.155   6.959   1.345
10535WAT     H231848   6.238   6.837   1.415
10536WAT      O31849   0.244   2.601   0.874
10536WAT     H131850   0.319   2.656   0.837
10536WAT     H231851   0.278   2.550   0.954
10537WAT      O31852   8.996   9.222   7.660
10537WAT     H131853   9.000   9.123   7.657
10537WAT     H231854   9.066   9.261   7.600
10538WAT      O31855   2.990   5.882   0.800
10538WAT     H131856   3.004   5.956   0.866
10538WAT     H231857   3.076   5.862   0.753
10539WAT      O31858   1.804   7.156   6.399
10539WAT     H131859   1.729   7.207   6.442
10539WAT     H231860   1.784   7.058   6.402
10540WAT      O31861   8.294   1.693   9.635
10540WAT     H131862   8.348   1.755   9.691
10540WAT     H231863   8.287   1.604   9.681
10541WAT      O31864   3.795   7.332   6.051
10541WAT     H131865   3.714   7.375   6.091
10541WAT     H231866   3.813   7.372   5.961
10542WAT      O31867   5.763   1.572   9.761
10542WAT     H131868   5.778   1.473   9.763
10542WAT     H231869   5.839   1.616   9.715
10543WAT      O31870   1.224   7.658   7.416
10543WAT     H131871   1.162   7.582   7.399
10543WAT     H231872   1.258   7.654   7.510
10544WAT      O31873   6.961   6.597   9.723
10544WAT     H131874   6.934   6.502   9.707
10544WAT     H231875   6.886   6.646   9.767
10545WAT      O31876   4.255   0.946   2.519
10545WAT     H131877   4.336   0.929   2.464
10545WAT     H231878   4.174   0.911   2.471
10546WAT      O31879   8.288   7.712   9.296
10546WAT     H131880   8.335   7.796   9.323
10546WAT     H231881   8.341   7.633   9.327
10547WAT      O31882   3.593   3.594   8.871
10547WAT     H131883   3.660   3.523   8.892
10547WAT     H231884   3.562   3.638   8.955
10548WAT      O31885   5.794   5.485   5.028
10548WAT     H131886   5.877   5.496   4.973
10548WAT     H231887   5.765   5.574   5.063
10549WAT      O31888   7.542   3.977   8.689
10549WAT     H131889   7.566   4.050   8.626
10549WAT     H231890   7.622   3.920   8.707
10550WAT      O31891   3.547   8.557   9.104
10550WAT     H131892   3.472   8.610   9.144
10550WAT     H231893   3.527   8.539   9.007
10551WAT      O31894   8.728   7.421   1.953
10551WAT     H131895   8.826   7.406   1.963
10551WAT     H231896   8.695   7.369   1.874
10552WAT      O31897   9.136   3.105   0.922
10552WAT     H131898   9.119   3.201   0.942
10552WAT     H231899   9.079   3.075   0.845
10553WAT      O31900   9.015   6.026   3.496
10553WAT     H131901   8.955   6.022   3.416
10553WAT     H231902   9.066   5.941   3.504
10554WAT      O31903   7.396   6.244   8.686
10554WAT     H131904   7.347   6.207   8.606
10554WAT     H231905   7.387   6.344   8.687
10555WAT      O31906   7.703   8.512   1.639
10555WAT     H131907   7.691   8.598   1.690
10555WAT     H231908   7.795   8.476   1.655
10556WAT      O31909   8.913   4.398   7.402
10556WAT     H131910   8.964   4.456   7.467
10556WAT     H231911   8.977   4.340   7.352
10557WAT      O31912   2.109   7.355   1.776
10557WAT     H131913   2.080   7.259   1.776
10557WAT     H231914   2.067   7.402   1.853
10558WAT      O31915   1.609   7.786   8.709
10558WAT     H131916   1.692   7.803   8.655
10558WAT     H231917   1.582   7.690   8.699
10559WAT      O31918   1.947   9.135   3.318
10559WAT     H131919   1.873   9.157   3.382
10559WAT     H231920   2.005   9.064   3.358
10560WAT      O31921   6.369   0.613   9.310
10560WAT     H131922   6.279   0.620   9.267
10560WAT     H231923   6.374   0.529   9.364
10561WAT      O31924   0.338   9.431   5.339
10561WAT     H131925   0.391   9.460   5.419
10561WAT     H231926   0.359   9.336   5.318
10562WAT      O31927   5.628   2.898   2.933
10562WAT     H131928   5.725   2.922   2.935
10562WAT     H231929   5.605   2.858   2.845
10563WAT      O31930   9.701   3.930   1.973
10563WAT     H131931   9.689   3.835   1.945
10563WAT     H231932   9.654   3.946   2.060
10564WAT      O31933   6.307   5.435   9.654
10564WAT     H131934   6.317   5.457   9.557
10564WAT     H231935   6.212   5.449   9.682
10565WAT      O31936   3.420   7.506   6.525
10565WAT     H131937   3.321   7.495   6.517
10565WAT     H231938   3.466   7.442   6.463
10566WAT      O31939   2.423   0.533   0.523
10566WAT     H131940   2.478   0.488   0.452
10566WAT     H231941   2.433   0.632   0.516
10567WAT      O31942   0.673   2.984   8.858
10567WAT     H131943   0.665   2.905   8.920
10567WAT     H231944   0.680   3.068   8.912
10568WAT      O31945   5.574   1.416   0.081
10568WAT     H131946   5.565   1.514   0.061
10568WAT     H231947   5.656   1.381   0.037
10569WAT      O31948   7.926   4.614   1.195
10569WAT     H131949   7.932   4.680   1.120
10569WAT     H231950   8.015   4.570   1.208
10570WAT      O31951   0.612   5.827   2.030
10570WAT     H131952   0.534   5.872   2.072
10570WAT     H231953   0.581   5.771   1.953
10571WAT      O31954   4.068   6.955   1.204
10571WAT     H131955   4.069   7.034   1.265
10571WAT     H231956   3.973   6.930   1.184
10572WAT      O31957   8.248   0.182   3.777
10572WAT     H131958   8.157   0.216   3.800
10572WAT     H231959   8.240   0.100   3.722
10573WAT      O31960   0.565   4.071   3.820
10573WAT     H131961   0.615   3.984   3.824
10573WAT     H231962   0.497   4.067   3.747
10574WAT      O31963   2.142   8.321   6.329
10574WAT     H131964   2.162   8.338   6.425
10574WAT     H231965   2.048   8.348   6.309
10575WAT      O31966   9.331   2.603   6.414
10575WAT     H131967   9.247   2.619   6.362
10575WAT     H231968   9.370   2.691   6.442
10576WAT      O31969   3.724   0.701   1.186
10576WAT     H131970   3.632   0.729   1.159
10576WAT     H231971   3.747   0.744   1.274
10577WAT      O31972   4.181   8.904   1.256
10577WAT     H131973   4.155   8.918   1.352
10577WAT     H231974   4.188   8.806   1.238
10578WAT      O31975   9.493   2.787   9.536
10578WAT     H131976   9.426   2.851   9.572
10578WAT     H231977   9.491   2.702   9.589
10579WAT      O31978   3.663   0.212   5.274
10579WAT     H131979   3.599   0.284   5.245
10579WAT     H231980   3.726   0.249   5.342
10580WAT      O31981   8.743   1.045   9.045
10580WAT     H131982   8.660   1.042   9.100
10580WAT     H231983   8.719   1.060   8.949
10581WAT      O31984   0.869   9.167   8.109
10581WAT     H131985   0.966   9.166   8.133
10581WAT     H231986   0.835   9.261   8.111
10582WAT      O31987   6.250   5.103   7.648
10582WAT     H131988   6.251   5.175   7.718
10582WAT     H231989   6.322   5.121   7.581
10583WAT      O31990   5.779   0.049   9.676
10583WAT     H131991   5.840   0.059   9.755
10583WAT     H231992   5.834   0.036   9.594
10584WAT      O31993   3.529   5.808   2.935
10584WAT     H131994   3.486   5.762   2.857
10584WAT     H231995   3.462   5.819   3.009
10585WAT      O31996   8.636   0.256   5.248
10585WAT     H131997   8.556   0.303   5.210
10585WAT     H231998   8.699   0.232   5.175
10586WAT      O31999   3.242   1.039   6.050
10586WAT     H132000   3.231   1.096   6.131
10586WAT     H232001   3.277   1.094   5.974
10587WAT      O32002   6.194   1.258   9.125
10587WAT     H132003   6.260   1.313   9.074
10587WAT     H232004   6.238   1.173   9.155
10588WAT      O32005   8.541   9.495   0.458
10588WAT     H132006   8.590   9.417   0.418
10588WAT     H232007   8.564   9.578   0.408
10589WAT      O32008   8.627   9.731   0.373
10589WAT     H132009   8.617   9.781   0.458
10589WAT     H232010   8.713   9.758   0.328
10590WAT      O32011   7.811   5.683   2.270
10590WAT     H132012   7.729   5.737   2.254
10590WAT     H232013   7.889   5.744   2.282
10591WAT      O32014   0.713   4.559   8.542
10591WAT     H132015   0.677   4.636   8.491
10591WAT     H232016   0.637   4.503   8.576
10592WAT      O32017   7.833   8.592   8.045
10592WAT     H132018   7.863   8.509   7.999
10592WAT     H232019   7.747   8.624   8.004
10593WAT      O32020   8.942   0.745   3.151
10593WAT     H132021   8.986   0.780   3.068
10593WAT     H232022   8.923   0.648   3.141
10594WAT      O32023   5.998   5.577   0.593
10594WAT     H132024   5.995   5.477   0.590
10594WAT     H232025   5.908   5.614   0.570
10595WAT      O32026   2.101   6.361   3.928
10595WAT     H132027   2.074   6.267   3.908
10595WAT     H232028   2.090   6.416   3.845
10596WAT      O32029   2.993   1.702   6.964
10596WAT     H132030   3.011   1.630   6.897
10596WAT     H232031   2.973   1.788   6.917
10597WAT      O32032   4.287   6.258   8.814
10597WAT     H132033   4.321   6.348   8.839
10597WAT     H232034   4.289   6.198   8.895
10598WAT      O32035   6.156   0.936   6.021
10598WAT     H132036   6.225   1.008   6.023
10598WAT     H232037   6.128   0.919   5.926
10599WAT      O32038   6.856   1.103   1.134
10599WAT     H132039   6.846   1.187   1.081
10599WAT     H232040   6.816   1.117   1.225
10600WAT      O32041   8.487   2.707   4.876
10600WAT     H132042   8.483   2.801   4.842
10600WAT     H232043   8.559   2.700   4.945
10601WAT      O32044   4.798   1.111   8.234
10601WAT     H132045   4.859   1.063   8.297
10601WAT     H232046   4.703   1.099   8.265
10602WAT      O32047   1.291   4.074   0.118
10602WAT     H132048   1.252   4.057   0.028
10602WAT     H232049   1.353   4.152   0.113
10603WAT      O32050   5.934   0.990   2.018
10603WAT     H132051   5.999   1.055   1.980
10603WAT     H232052   5.982   0.908   2.047
10604WAT      O32053   6.475   9.780   5.467
10604WAT     H132054   6.529   9.749   5.546
10604WAT     H232055   6.448   9.875   5.480
10605WAT      O32056   7.988   5.936   1.052
10605WAT     H132057   8.025   6.021   1.016
10605WAT     H232058   7.894   5.924   1.021
10606WAT      O32059   3.612   3.512   9.262
10606WAT     H132060   3.641   3.430   9.312
10606WAT     H232061   3.514   3.527   9.277
10607WAT      O32062   7.116   7.556   1.649
10607WAT     H132063   7.053   7.483   1.621
10607WAT     H232064   7.070   7.645   1.640
10608WAT      O32065   8.144   1.888   9.490
10608WAT     H132066   8.093   1.832   9.425
10608WAT     H232067   8.214   1.831   9.534
10609WAT      O32068   9.380   7.774   7.290
10609WAT     H132069   9.297   7.760   7.236
10609WAT     H232070   9.429   7.687   7.299
10610WAT      O32071   1.117   8.196   9.654
10610WAT     H132072   1.077   8.114   9.693
10610WAT     H232073   1.082   8.277   9.701
10611WAT      O32074   0.005   7.014   0.084
10611WAT     H132075   0.007   7.113   0.097
10611WAT     H232076  -0.072   6.989   0.026
10612WAT      O32077   0.325   1.482   1.526
10612WAT     H132078   0.278   1.451   1.443
10612WAT     H232079   0.314   1.415   1.599
10613WAT      O32080   7.836   0.892   5.600
10613WAT     H132081   7.899   0.953   5.552
10613WAT     H232082   7.859   0.890   5.698
10614WAT      O32083   8.515   1.403   0.672
10614WAT     H132084   8.459   1.382   0.752
10614WAT     H232085   8.457   1.438   0.599
10615WAT      O32086   8.497   0.969   5.612
10615WAT     H132087   8.400   0.974   5.587
10615WAT     H232088   8.509   1.011   5.702
10616WAT      O32089   8.715   4.975   4.319
10616WAT     H132090   8.645   5.002   4.385
10616WAT     H232091   8.769   5.055   4.295
10617WAT      O32092   3.147   4.821   3.248
10617WAT     H132093   3.146   4.851   3.153
10617WAT     H232094   3.189   4.730   3.254
10618WAT      O32095   1.324   5.917   8.700
10618WAT     H132096   1.360   5.824   8.693
10618WAT     H232097   1.383   5.971   8.760
10619WAT      O32098   3.425   8.374   8.596
10619WAT     H132099   3.478   8.451   8.561
10619WAT     H232100   3.328   8.387   8.576
10620WAT      O32101   4.284   3.275   1.078
10620WAT     H132102   4.209   3.209   1.082
10620WAT     H232103   4.372   3.226   1.084
10621WAT      O32104   9.683   1.906   5.036
10621WAT     H132105   9.769   1.937   5.076
10621WAT     H232106   9.651   1.972   4.969
10622WAT      O32107   5.675   9.437   5.094
10622WAT     H132108   5.762   9.476   5.122
10622WAT     H232109   5.660   9.454   4.997
10623WAT      O32110   9.654   6.998   2.532
10623WAT     H132111   9.661   7.085   2.484
10623WAT     H232112   9.564   6.957   2.515
10624WAT      O32113   8.002   0.378   8.421
10624WAT     H132114   7.938   0.341   8.355
10624WAT     H232115   8.094   0.345   8.401
10625WAT      O32116   0.237   5.688   6.008
10625WAT     H132117   0.271   5.596   5.987
10625WAT     H232118   0.314   5.752   6.010
10626WAT      O32119   9.117   0.518   6.839
10626WAT     H132120   9.210   0.491   6.814
10626WAT     H232121   9.054   0.493   6.765
10627WAT      O32122   6.976   7.498   3.046
10627WAT     H132123   6.974   7.582   3.100
10627WAT     H232124   6.972   7.419   3.108
10628WAT      O32125   9.206   8.270   3.253
10628WAT     H132126   9.217   8.232   3.345
10628WAT     H232127   9.112   8.305   3.243
10629WAT      O32128   4.687   8.749   2.314
10629WAT     H132129   4.658   8.845   2.311
10629WAT     H232130   4.669   8.706   2.225
10630WAT      O32131   0.798   9.197   9.745
10630WAT     H132132   0.738   9.277   9.739
10630WAT     H232133   0.754   9.119   9.700
10631WAT      O32134   8.131   0.259   1.592
10631WAT     H132135   8.210   0.298   1.639
10631WAT     H232136   8.087   0.191   1.651
10632WAT      O32137   4.240   9.234   7.963
10632WAT     H132138   4.170   9.167   7.987
10632WAT     H232139   4.249   9.238   7.863
10633WAT      O32140   9.078   3.581   2.371
10633WAT     H132141   9.006   3.571   2.439
10633WAT     H232142   9.053   3.654   2.307
10634WAT      O32143   1.229   9.325   4.638
10634WAT     H132144   1.174   9.408   4.626
10634WAT     H232145   1.245   9.283   4.548
10635WAT      O32146   5.385   8.649   8.399
10635WAT     H132147   5.474   8.610   8.419
10635WAT     H232148   5.394   8.747   8.383
10636WAT      O32149   0.289   5.438   9.063
10636WAT     H132150   0.306   5.415   9.158
10636WAT     H232151   0.258   5.357   9.013
10637WAT      O32152   9.156   3.921   8.847
10637WAT     H132153   9.113   3.842   8.889
10637WAT     H232154   9.223   3.961   8.910
10638WAT      O32155   3.524   5.902   7.172
10638WAT     H132156   3.507   5.843   7.094
10638WAT     H232157   3.618   5.888   7.205
10639WAT      O32158   6.095   8.447   4.133
10639WAT     H132159   6.180   8.486   4.170
10639WAT     H232160   6.097   8.454   4.033
10640WAT      O32161   4.570   4.831   6.872
10640WAT     H132162   4.479   4.864   6.845
10640WAT     H232163   4.633   4.842   6.795
10641WAT      O32164   1.366   2.147   0.738
10641WAT     H132165   1.396   2.123   0.646
10641WAT     H232166   1.367   2.246   0.749
10642WAT      O32167   8.985   1.788   4.481
10642WAT     H132168   8.971   1.886   4.489
10642WAT     H232169   9.032   1.753   4.562
10643WAT      O32170   8.127   1.371   4.711
10643WAT     H132171   8.085   1.293   4.756
10643WAT     H232172   8.056   1.435   4.681
10644WAT      O32173   8.908   0.971   2.707
10644WAT     H132174   8.941   1.056   2.665
10644WAT     H232175   8.825   0.990   2.760
10645WAT      O32176   5.272   7.488   5.358
10645WAT     H132177   5.225   7.413   5.405
10645WAT     H232178   5.300   7.458   5.267
10646WAT      O32179   6.202   5.180   3.769
10646WAT     H132180   6.276   5.179   3.835
10646WAT     H232181   6.126   5.236   3.803
10647WAT      O32182   5.301   8.615   4.360
10647WAT     H132183   5.389   8.573   4.339
10647WAT     H232184   5.304   8.652   4.453
10648WAT      O32185   5.505   0.882   0.547
10648WAT     H132186   5.419   0.847   0.582
10648WAT     H232187   5.556   0.809   0.502
10649WAT      O32188   3.341   4.319   0.784
10649WAT     H132189   3.411   4.260   0.824
10649WAT     H232190   3.303   4.378   0.856
10650WAT      O32191   8.274   7.867   2.578
10650WAT     H132192   8.200   7.926   2.546
10650WAT     H232193   8.252   7.772   2.558
10651WAT      O32194   2.982   1.811   2.251
10651WAT     H132195   2.897   1.863   2.261
10651WAT     H232196   2.962   1.723   2.208
10652WAT      O32197   8.966   4.445   1.808
10652WAT     H132198   8.930   4.534   1.837
10652WAT     H232199   9.043   4.459   1.746
10653WAT      O32200   5.856   8.846   1.110
10653WAT     H132201   5.762   8.813   1.121
10653WAT     H232202   5.858   8.917   1.039
10654WAT      O32203   2.022   9.667   9.611
10654WAT     H132204   1.923   9.668   9.626
10654WAT     H232205   2.067   9.627   9.690
10655WAT      O32206   3.871   8.787   7.948
10655WAT     H132207   3.849   8.714   8.013
10655WAT     H232208   3.798   8.855   7.948
10656WAT      O32209   9.746   5.013   7.192
10656WAT     H132210   9.827   4.992   7.247
10656WAT     H232211   9.664   5.001   7.247
10657WAT      O32212   3.890   6.265   1.991
10657WAT     H132213   3.930   6.256   1.900
10657WAT     H232214   3.931   6.199   2.053
10658WAT      O32215   1.990   6.649   0.880
10658WAT     H132216   2.057   6.586   0.841
10658WAT     H232217   2.005   6.659   0.978
10659WAT      O32218   9.323   4.238   5.138
10659WAT     H132219   9.262   4.165   5.168
10659WAT     H232220   9.386   4.202   5.069
10660WAT      O32221   1.264   7.041   1.127
10660WAT     H132222   1.252   7.021   1.224
10660WAT     H232223   1.184   7.091   1.093
10661WAT      O32224   8.944   0.878   8.230
10661WAT     H132225   8.869   0.888   8.296
10661WAT     H232226   8.938   0.789   8.185
10662WAT      O32227   9.866   4.520   5.152
10662WAT     H132228   9.805   4.444   5.131
10662WAT     H232229   9.957   4.501   5.115
10663WAT      O32230   7.370   8.949   6.651
10663WAT     H132231   7.273   8.935   6.635
10663WAT     H232232   7.422   8.874   6.609
10664WAT      O32233   9.685   8.625   1.355
10664WAT     H132234   9.755   8.644   1.286
10664WAT     H232235   9.625   8.552   1.322
10665WAT      O32236   5.874   8.905   7.747
10665WAT     H132237   5.918   8.849   7.677
10665WAT     H232238   5.943   8.938   7.811
10666WAT      O32239   1.419   3.298   2.668
10666WAT     H132240   1.448   3.365   2.599
10666WAT     H232241   1.498   3.243   2.696
10667WAT      O32242   0.266   5.374   7.871
10667WAT     H132243   0.255   5.473   7.867
10667WAT     H232244   0.362   5.350   7.856
10668WAT      O32245   0.989   5.366   8.450
10668WAT     H132246   0.991   5.266   8.455
10668WAT     H232247   0.954   5.394   8.360
10669WAT      O32248   7.820   9.105   7.720
10669WAT     H132249   7.767   9.039   7.666
10669WAT     H232250   7.854   9.061   7.802
10670WAT      O32251   0.959   9.187   9.091
10670WAT     H132252   1.050   9.146   9.079
10670WAT     H232253   0.968   9.271   9.146
10671WAT      O32254   6.481   4.477   1.368
10671WAT     H132255   6.543   4.502   1.294
10671WAT     H232256   6.415   4.409   1.334
10672WAT      O32257   1.637   6.216   1.633
10672WAT     H132258   1.723   6.265   1.649
10672WAT     H232259   1.560   6.275   1.658
10673WAT      O32260   7.658   0.350   0.649
10673WAT     H132261   7.651   0.395   0.560
10673WAT     H232262   7.660   0.420   0.721
10674WAT      O32263   7.338   3.157   4.093
10674WAT     H132264   7.383   3.110   4.168
10674WAT     H232265   7.390   3.145   4.009
10675WAT      O32266   1.024   3.344   3.789
10675WAT     H132267   0.941   3.395   3.767
10675WAT     H232268   1.075   3.392   3.860
10676WAT      O32269   5.805   9.232   1.780
10676WAT     H132270   5.711   9.219   1.811
10676WAT     H232271   5.818   9.185   1.693
10677WAT      O32272   9.730   3.627   5.312
10677WAT     H132273   9.705   3.724   5.321
10677WAT     H232274   9.710   3.597   5.219
10678WAT      O32275   8.010   2.244   5.363
10678WAT     H132276   8.062   2.281   5.440
10678WAT     H232277   7.960   2.163   5.392
10679WAT      O32278   5.177   5.205   8.320
10679WAT     H132279   5.241   5.150   8.372
10679WAT     H232280   5.227   5.270   8.263
10680WAT      O32281   0.933   7.204   9.810
10680WAT     H132282   0.985   7.280   9.770
10680WAT     H232283   0.871   7.239   9.880
10681WAT      O32284   2.980   4.970   9.082
10681WAT     H132285   3.057   5.034   9.083
10681WAT     H232286   2.909   5.002   9.144
10682WAT      O32287   9.792   7.580   4.962
10682WAT     H132288   9.787   7.617   4.869
10682WAT     H232289   9.804   7.481   4.958
10683WAT      O32290   5.945   4.173   8.216
10683WAT     H132291   5.925   4.209   8.124
10683WAT     H232292   5.979   4.079   8.208
10684WAT      O32293   4.328   1.814   4.935
10684WAT     H132294   4.420   1.847   4.954
10684WAT     H232295   4.316   1.723   4.974
10685WAT      O32296   6.943   6.188   4.084
10685WAT     H132297   6.968   6.151   3.995
10685WAT     H232298   6.889   6.120   4.135
10686WAT      O32299   5.025   8.648   5.723
10686WAT     H132300   4.971   8.585   5.778
10686WAT     H232301   5.116   8.657   5.762
10687WAT      O32302   7.483   4.553   2.231
10687WAT     H132303   7.568   4.546   2.180
10687WAT     H232304   7.440   4.463   2.239
10688WAT      O32305   4.904   4.054   6.559
10688WAT     H132306   4.873   4.025   6.468
10688WAT     H232307   4.980   4.119   6.549
10689WAT      O32308   0.559   0.085   1.140
10689WAT     H132309   0.647   0.129   1.158
10689WAT     H232310   0.569   0.016   1.068
10690WAT      O32311   2.477   5.839   8.536
10690WAT     H132312   2.422   5.756   8.547
10690WAT     H232313   2.436   5.914   8.588
10691WAT      O32314   4.141   9.232   8.951
10691WAT     H132315   4.191   9.266   9.031
10691WAT     H232316   4.053   9.194   8.981
10692WAT      O32317   4.155   2.356   5.208
10692WAT     H132318   4.162   2.343   5.109
10692WAT     H232319   4.246   2.345   5.249
10693WAT      O32320   4.605   2.762   7.702
10693WAT     H132321   4.535   2.830   7.720
10693WAT     H232322   4.624   2.710   7.785
10694WAT      O32323   7.773   4.604   5.414
10694WAT     H132324   7.762   4.665   5.492
10694WAT     H232325   7.763   4.657   5.329
10695WAT      O32326   5.903   5.825   2.197
10695WAT     H132327   5.971   5.872   2.253
10695WAT     H232328   5.878   5.884   2.120
10696WAT      O32329   3.251   3.281   2.192
10696WAT     H132330   3.226   3.188   2.165
10696WAT     H232331   3.175   3.343   2.169
10697WAT      O32332   4.780   4.808   3.894
10697WAT     H132333   4.697   4.859   3.869
10697WAT     H232334   4.828   4.857   3.967
10698WAT      O32335   7.015   2.057   7.618
10698WAT     H132336   7.019   2.120   7.695
10698WAT     H232337   7.094   1.996   7.621
10699WAT      O32338   7.860   7.643   7.843
10699WAT     H132339   7.843   7.721   7.903
10699WAT     H232340   7.793   7.572   7.860
10700WAT      O32341   2.267   5.088   1.912
10700WAT     H132342   2.323   5.075   1.994
10700WAT     H232343   2.185   5.141   1.937
10701WAT      O32344   4.796   1.573   3.559
10701WAT     H132345   4.735   1.646   3.590
10701WAT     H232346   4.840   1.531   3.639
10702WAT      O32347   8.831   0.881   1.496
10702WAT     H132348   8.836   0.979   1.478
10702WAT     H232349   8.742   0.846   1.468
10703WAT      O32350   0.514   3.384   5.713
10703WAT     H132351   0.555   3.323   5.781
10703WAT     H232352   0.574   3.390   5.633
10704WAT      O32353   4.301   6.018   2.880
10704WAT     H132354   4.388   5.988   2.841
10704WAT     H232355   4.311   6.030   2.979
10705WAT      O32356   3.085   1.740   1.883
10705WAT     H132357   3.057   1.836   1.885
10705WAT     H232358   3.129   1.719   1.796
10706WAT      O32359   1.242   3.894   6.906
10706WAT     H132360   1.274   3.809   6.863
10706WAT     H232361   1.304   3.920   6.980
10707WAT      O32362   9.792   2.816   0.679
10707WAT     H132363   9.823   2.721   0.686
10707WAT     H232364   9.781   2.855   0.771
10708WAT      O32365   1.817   9.465   3.504
10708WAT     H132366   1.885   9.425   3.443
10708WAT     H232367   1.864   9.513   3.578
10709WAT      O32368   6.909   7.942   6.923
10709WAT     H132369   6.828   7.898   6.961
10709WAT     H232370   6.974   7.961   6.997
10710WAT      O32371   5.675   7.768   5.607
10710WAT     H132372   5.635   7.680   5.583
10710WAT     H232373   5.649   7.792   5.701
10711WAT      O32374   8.885   1.197   7.964
10711WAT     H132375   8.962   1.162   8.018
10711WAT     H232376   8.850   1.280   8.007
10712WAT      O32377   3.115   9.057   4.231
10712WAT     H132378   3.154   9.116   4.160
10712WAT     H232379   3.161   9.074   4.318
10713WAT      O32380   5.614   8.881   8.508
10713WAT     H132381   5.645   8.806   8.449
10713WAT     H232382   5.626   8.855   8.604
10714WAT      O32383   7.056   9.834   8.997
10714WAT     H132384   6.983   9.817   8.931
10714WAT     H232385   7.141   9.854   8.949
10715WAT      O32386   4.216   7.890   7.182
10715WAT     H132387   4.140   7.900   7.118
10715WAT     H232388   4.224   7.794   7.209
10716WAT      O32389   3.590   3.084   6.911
10716WAT     H132390   3.538   3.164   6.880
10716WAT     H232391   3.527   3.012   6.939
10717WAT      O32392   4.104   4.281   7.951
10717WAT     H132393   4.035   4.338   7.995
10717WAT     H232394   4.072   4.186   7.948
10718WAT      O32395   4.287   2.275   7.286
10718WAT     H132396   4.323   2.202   7.344
10718WAT     H232397   4.316   2.364   7.321
10719WAT      O32398   6.824   2.317   4.866
10719WAT     H132399   6.842   2.340   4.961
10719WAT     H232400   6.773   2.391   4.822
10720WAT      O32401   0.641   2.023   2.486
10720WAT     H132402   0.644   2.035   2.585
10720WAT     H232403   0.606   1.932   2.464
10721WAT      O32404   2.789   6.887   9.381
10721WAT     H132405   2.731   6.955   9.337
10721WAT     H232406   2.767   6.882   9.478
10722WAT      O32407   6.272   4.995   6.550
10722WAT     H132408   6.234   4.925   6.610
10722WAT     H232409   6.353   5.036   6.594
10723WAT      O32410   4.101   0.551   6.827
10723WAT     H132411   4.191   0.562   6.868
10723WAT     H232412   4.039   0.507   6.893
10724WAT      O32413   3.422   1.249   1.108
10724WAT     H132414   3.421   1.331   1.165
10724WAT     H232415   3.494   1.257   1.039
10725WAT      O32416   9.529   4.274   3.535
10725WAT     H132417   9.615   4.231   3.561
10725WAT     H232418   9.524   4.281   3.435
10726WAT      O32419   8.064   5.538   9.632
10726WAT     H132420   7.969   5.556   9.655
10726WAT     H232421   8.103   5.473   9.698
10727WAT      O32422   7.672   3.984   4.216
10727WAT     H132423   7.630   3.934   4.292
10727WAT     H232424   7.702   3.920   4.146
10728WAT      O32425   2.553   5.871   6.344
10728WAT     H132426   2.549   5.781   6.299
10728WAT     H232427   2.481   5.930   6.306
10729WAT      O32428   8.586   9.755   7.198
10729WAT     H132429   8.586   9.821   7.123
10729WAT     H232430   8.519   9.782   7.267
10730WAT      O32431   6.358   8.091   5.101
10730WAT     H132432   6.404   8.149   5.168
10730WAT     H232433   6.336   8.146   5.020
10731WAT      O32434   8.934   0.315   1.752
10731WAT     H132435   8.997   0.262   1.809
10731WAT     H232436   8.955   0.412   1.760
10732WAT      O32437   6.209   0.750   6.772
10732WAT     H132438   6.302   0.784   6.759
10732WAT     H232439   6.144   0.814   6.729
10733WAT      O32440   2.900   8.439   4.682
10733WAT     H132441   2.908   8.533   4.648
10733WAT     H232442   2.939   8.434   4.774
10734WAT      O32443   2.958   3.415   5.547
10734WAT     H132444   3.056   3.430   5.560
10734WAT     H232445   2.943   3.342   5.481
10735WAT      O32446   4.522   6.041   8.069
10735WAT     H132447   4.542   5.985   8.149
10735WAT     H232448   4.552   5.993   7.986
10736WAT      O32449   0.023   7.249   2.749
10736WAT     H132450   0.065   7.186   2.813
10736WAT     H232451  -0.040   7.198   2.689
10737WAT      O32452   1.310   1.122   4.058
10737WAT     H132453   1.315   1.199   4.122
10737WAT     H232454   1.334   1.154   3.967
10738WAT      O32455   1.902   1.679   3.710
10738WAT     H132456   1.959   1.630   3.643
10738WAT     H232457   1.949   1.682   3.798
10739WAT      O32458   5.311   5.521   5.026
10739WAT     H132459   5.233   5.555   4.974
10739WAT     H232460   5.310   5.560   5.118
10740WAT      O32461   3.268   9.693   3.134
10740WAT     H132462   3.337   9.700   3.062
10740WAT     H232463   3.215   9.778   3.138
10741WAT      O32464   4.002   2.987   1.346
10741WAT     H132465   4.095   2.955   1.367
10741WAT     H232466   4.004   3.042   1.262
10742WAT      O32467   3.404   3.976   0.901
10742WAT     H132468   3.453   3.889   0.895
10742WAT     H232469   3.469   4.049   0.922
10743WAT      O32470   0.489   9.165   0.933
10743WAT     H132471   0.452   9.244   0.983
10743WAT     H232472   0.579   9.188   0.896
10744WAT      O32473   6.998   4.291   4.611
10744WAT     H132474   7.060   4.213   4.597
10744WAT     H232475   6.969   4.326   4.522
10745WAT      O32476   7.258   2.119   1.415
10745WAT     H132477   7.320   2.076   1.481
10745WAT     H232478   7.259   2.218   1.429
10746WAT      O32479   5.939   4.777   5.127
10746WAT     H132480   6.001   4.700   5.109
10746WAT     H232481   5.891   4.801   5.042
10747WAT      O32482   1.149   4.288   9.164
10747WAT     H132483   1.191   4.199   9.144
10747WAT     H232484   1.171   4.315   9.258
10748WAT      O32485   4.349   6.724   6.160
10748WAT     H132486   4.353   6.731   6.260
10748WAT     H232487   4.442   6.710   6.125
10749WAT      O32488   5.767   8.759   5.404
10749WAT     H132489   5.833   8.728   5.336
10749WAT     H232490   5.750   8.857   5.393
10750WAT      O32491   2.031   7.460   1.536
10750WAT     H132492   2.061   7.409   1.617
10750WAT     H232493   2.094   7.442   1.461
10751WAT      O32494   3.012   7.206   8.353
10751WAT     H132495   3.034   7.192   8.256
10751WAT     H232496   3.033   7.300   8.379
10752WAT      O32497   5.563   9.193   6.356
10752WAT     H132498   5.499   9.199   6.280
10752WAT     H232499   5.592   9.285   6.382
10753WAT      O32500   6.446   6.888   7.167
10753WAT     H132501   6.354   6.852   7.157
10753WAT     H232502   6.458   6.967   7.107
10754WAT      O32503   8.090   7.340   4.986
10754WAT     H132504   8.135   7.420   5.025
10754WAT     H232505   8.096   7.344   4.886
10755WAT      O32506   1.112   9.429   1.359
10755WAT     H132507   1.056   9.347   1.366
10755WAT     H232508   1.093   9.490   1.435
10756WAT      O32509   7.230   9.291   2.223
10756WAT     H132510   7.283   9.356   2.168
10756WAT     H232511   7.264   9.293   2.318
10757WAT      O32512   3.302   6.565   6.628
10757WAT     H132513   3.302   6.614   6.715
10757WAT     H232514   3.393   6.529   6.610
10758WAT      O32515   9.021   5.257   8.038
10758WAT     H132516   9.013   5.165   7.999
10758WAT     H232517   9.068   5.251   8.126
10759WAT      O32518   6.379   6.637   7.496
10759WAT     H132519   6.316   6.573   7.452
10759WAT     H232520   6.326   6.706   7.546
10760WAT      O32521   8.870   2.111   2.732
10760WAT     H132522   8.828   2.077   2.648
10760WAT     H232523   8.960   2.067   2.744
10761WAT      O32524   8.276   2.754   7.873
10761WAT     H132525   8.213   2.695   7.924
10761WAT     H232526   8.251   2.753   7.776
10762WAT      O32527   0.816   2.334   6.319
10762WAT     H132528   0.846   2.302   6.409
10762WAT     H232529   0.897   2.348   6.261
10763WAT      O32530   1.879   4.393   5.585
10763WAT     H132531   1.904   4.334   5.662
10763WAT     H232532   1.796   4.358   5.542
10764WAT      O32533   1.222   9.418   5.360
10764WAT     H132534   1.252   9.408   5.455
10764WAT     H232535   1.213   9.328   5.318
10765WAT      O32536   9.678   8.606   5.489
10765WAT     H132537   9.741   8.591   5.414
10765WAT     H232538   9.594   8.648   5.455
10766WAT      O32539   8.964   8.923   8.379
10766WAT     H132540   9.062   8.907   8.389
10766WAT     H232541   8.931   8.978   8.456
10767WAT      O32542   4.483   4.774   2.923
10767WAT     H132543   4.534   4.698   2.963
10767WAT     H232544   4.546   4.847   2.898
10768WAT      O32545   0.277   4.839   6.117
10768WAT     H132546   0.240   4.815   6.027
10768WAT     H232547   0.226   4.790   6.187
10769WAT      O32548   0.882   7.217   2.615
10769WAT     H132549   0.888   7.172   2.704
10769WAT     H232550   0.961   7.278   2.603
10770WAT      O32551   6.763   1.363   7.546
10770WAT     H132552   6.812   1.325   7.624
10770WAT     H232553   6.671   1.391   7.574
10771WAT      O32554   7.943   5.368   1.766
10771WAT     H132555   7.944   5.359   1.666
10771WAT     H232556   7.978   5.458   1.792
10772WAT      O32557   3.636   3.478   7.641
10772WAT     H132558   3.586   3.518   7.563
10772WAT     H232559   3.734   3.480   7.622
10773WAT      O32560   1.723   8.209   0.017
10773WAT     H132561   1.802   8.149   0.006
10773WAT     H232562   1.681   8.226  -0.072
10774WAT      O32563   6.118   6.884   6.595
10774WAT     H132564   6.126   6.964   6.535
10774WAT     H232565   6.199   6.880   6.654
10775WAT      O32566   4.654   6.447   2.872
10775WAT     H132567   4.569   6.492   2.848
10775WAT     H232568   4.724   6.469   2.804
10776WAT      O32569   8.368   2.427   1.325
10776WAT     H132570   8.344   2.392   1.416
10776WAT     H232571   8.285   2.439   1.271
10777WAT      O32572   9.102   8.656   0.649
10777WAT     H132573   9.135   8.655   0.555
10777WAT     H232574   9.173   8.695   0.708
10778WAT      O32575   8.979   4.914   2.037
10778WAT     H132576   9.056   4.947   1.983
10778WAT     H232577   8.939   4.990   2.088
10779WAT      O32578   1.801   3.382   1.663
10779WAT     H132579   1.767   3.387   1.757
10779WAT     H232580   1.844   3.469   1.638
10780WAT      O32581   0.177   7.372   6.755
10780WAT     H132582   0.169   7.460   6.709
10780WAT     H232583   0.259   7.324   6.722
10781WAT      O32584   4.546   1.904   0.802
10781WAT     H132585   4.545   1.846   0.884
10781WAT     H232586   4.624   1.966   0.807
10782WAT      O32587   2.101   2.170   6.354
10782WAT     H132588   2.077   2.211   6.266
10782WAT     H232589   2.107   2.071   6.345
10783WAT      O32590   1.976   5.772   7.892
10783WAT     H132591   2.024   5.798   7.975
10783WAT     H232592   1.941   5.853   7.846
10784WAT      O32593   9.451   0.506   1.490
10784WAT     H132594   9.383   0.475   1.557
10784WAT     H232595   9.463   0.436   1.420
10785WAT      O32596   1.057   8.974   8.513
10785WAT     H132597   0.957   8.967   8.509
10785WAT     H232598   1.098   8.906   8.453
10786WAT      O32599   2.532   3.903   3.498
10786WAT     H132600   2.445   3.952   3.495
10786WAT     H232601   2.553   3.865   3.408
10787WAT      O32602   5.291   8.586   2.895
10787WAT     H132603   5.388   8.567   2.907
10787WAT     H232604   5.269   8.674   2.935
10788WAT      O32605   3.621   5.955   2.732
10788WAT     H132606   3.693   6.020   2.757
10788WAT     H232607   3.598   5.899   2.812
10789WAT      O32608   4.378   3.356   9.416
10789WAT     H132609   4.347   3.322   9.504
10789WAT     H232610   4.451   3.296   9.381
10790WAT      O32611   0.803   5.744   9.741
10790WAT     H132612   0.872   5.684   9.702
10790WAT     H232613   0.735   5.690   9.790
10791WAT      O32614   2.247   2.463   2.071
10791WAT     H132615   2.202   2.488   1.985
10791WAT     H232616   2.185   2.479   2.147
10792WAT      O32617   4.834   9.060   9.845
10792WAT     H132618   4.891   8.998   9.790
10792WAT     H232619   4.882   9.082   9.930
10793WAT      O32620   4.136   5.642   5.126
10793WAT     H132621   4.169   5.554   5.160
10793WAT     H232622   4.053   5.627   5.072
10794WAT      O32623   5.943   8.047   3.968
10794WAT     H132624   5.924   8.120   3.902
10794WAT     H232625   5.866   7.984   3.972
10795WAT      O32626   8.509   9.477   3.022
10795WAT     H132627   8.514   9.566   2.977
10795WAT     H232628   8.433   9.476   3.087
10796WAT      O32629   1.765   0.490   8.929
10796WAT     H132630   1.843   0.427   8.930
10796WAT     H232631   1.758   0.537   9.017
10797WAT      O32632   8.118   4.389   0.648
10797WAT     H132633   8.081   4.324   0.582
10797WAT     H232634   8.166   4.462   0.600
10798WAT      O32635   5.650   4.402   8.846
10798WAT     H132636   5.726   4.451   8.890
10798WAT     H232637   5.652   4.422   8.748
10799WAT      O32638   6.519   8.932   0.505
10799WAT     H132639   6.461   8.851   0.522
10799WAT     H232640   6.583   8.943   0.581
10800WAT      O32641   3.609   1.132   6.635
10800WAT     H132642   3.563   1.091   6.556
10800WAT     H232643   3.699   1.165   6.607
10801WAT      O32644   7.948   5.325   4.193
10801WAT     H132645   7.868   5.384   4.181
10801WAT     H232646   7.919   5.236   4.228
10802WAT      O32647   3.345   4.563   0.148
10802WAT     H132648   3.301   4.499   0.084
10802WAT     H232649   3.275   4.614   0.197
10803WAT      O32650   5.407   1.513   7.434
10803WAT     H132651   5.410   1.613   7.438
10803WAT     H232652   5.352   1.478   7.509
10804WAT      O32653   4.842   1.556   1.529
10804WAT     H132654   4.910   1.483   1.517
10804WAT     H232655   4.778   1.555   1.452
10805WAT      O32656   0.239   8.910   6.518
10805WAT     H132657   0.243   8.897   6.419
10805WAT     H232658   0.266   9.003   6.540
10806WAT      O32659   4.598   8.435   8.099
10806WAT     H132660   4.628   8.513   8.044
10806WAT     H232661   4.660   8.423   8.177
10807WAT      O32662   0.770   8.344   1.121
10807WAT     H132663   0.844   8.296   1.169
10807WAT     H232664   0.726   8.281   1.057
10808WAT      O32665   4.249   0.293   8.936
10808WAT     H132666   4.235   0.367   9.001
10808WAT     H232667   4.161   0.253   8.911
10809WAT      O32668   7.375   0.583   6.802
10809WAT     H132669   7.409   0.581   6.896
10809WAT     H232670   7.373   0.490   6.765
10810WAT      O32671   9.150   5.275   2.740
10810WAT     H132672   9.113   5.183   2.756
10810WAT     H232673   9.245   5.279   2.771
10811WAT      O32674   5.130   0.044   2.324
10811WAT     H132675   5.106  -0.053   2.316
10811WAT     H232676   5.071   0.087   2.393
10812WAT      O32677   4.386   3.435   5.149
10812WAT     H132678   4.288   3.458   5.146
10812WAT     H232679   4.413   3.417   5.244
10813WAT      O32680   6.178   2.466   9.480
10813WAT     H132681   6.191   2.564   9.466
10813WAT     H232682   6.244   2.415   9.424
10814WAT      O32683   1.145   7.400   7.299
10814WAT     H132684   1.198   7.384   7.216
10814WAT     H232685   1.159   7.325   7.363
10815WAT      O32686   9.526   5.127   4.411
10815WAT     H132687   9.436   5.172   4.409
10815WAT     H232688   9.519   5.038   4.367
10816WAT      O32689   4.901   7.823   2.665
10816WAT     H132690   4.892   7.752   2.596
10816WAT     H232691   4.863   7.909   2.631
10817WAT      O32692   7.680   6.782   1.608
10817WAT     H132693   7.648   6.703   1.556
10817WAT     H232694   7.673   6.864   1.551
10818WAT      O32695   3.227   9.394   8.616
10818WAT     H132696   3.150   9.390   8.679
10818WAT     H232697   3.197   9.367   8.524
10819WAT      O32698   8.350   1.413   6.304
10819WAT     H132699   8.272   1.364   6.263
10819WAT     H232700   8.369   1.374   6.394
10820WAT      O32701   7.441   9.386   5.920
10820WAT     H132702   7.402   9.475   5.897
10820WAT     H232703   7.368   9.323   5.949
10821WAT      O32704   2.627   9.303   1.395
10821WAT     H132705   2.639   9.205   1.412
10821WAT     H232706   2.701   9.354   1.438
10822WAT      O32707   6.260   6.355   1.331
10822WAT     H132708   6.173   6.306   1.325
10822WAT     H232709   6.335   6.289   1.336
10823WAT      O32710   8.729   8.770   3.174
10823WAT     H132711   8.743   8.866   3.195
10823WAT     H232712   8.704   8.760   3.078
10824WAT      O32713   6.780   7.080   9.058
10824WAT     H132714   6.720   7.073   8.978
10824WAT     H232715   6.731   7.123   9.133
10825WAT      O32716   8.062   7.602   5.079
10825WAT     H132717   8.022   7.588   5.169
10825WAT     H232718   7.992   7.593   5.009
10826WAT      O32719   4.994   8.254   5.093
10826WAT     H132720   5.019   8.281   5.187
10826WAT     H232721   4.977   8.156   5.090
10827WAT      O32722   5.751   4.537   7.226
10827WAT     H132723   5.825   4.575   7.281
10827WAT     H232724   5.663   4.552   7.271
10828WAT      O32725   3.177   4.668   8.138
10828WAT     H132726   3.234   4.740   8.178
10828WAT     H232727   3.081   4.686   8.158
10829WAT      O32728   8.034   1.631   7.550
10829WAT     H132729   7.946   1.655   7.509
10829WAT     H232730   8.091   1.585   7.482
10830WAT      O32731   7.572   8.981   3.549
10830WAT     H132732   7.557   9.057   3.613
10830WAT     H232733   7.645   8.923   3.584
10831WAT      O32734   9.158   5.299   6.484
10831WAT     H132735   9.110   5.382   6.453
10831WAT     H232736   9.252   5.300   6.450
10832WAT      O32737   7.739   1.926   7.473
10832WAT     H132738   7.686   1.866   7.534
10832WAT     H232739   7.824   1.953   7.518
10833WAT      O32740   5.513   4.420   3.508
10833WAT     H132741   5.572   4.364   3.449
10833WAT     H232742   5.529   4.396   3.603
10834WAT      O32743   6.844   6.886   9.724
10834WAT     H132744   6.850   6.851   9.817
10834WAT     H232745   6.759   6.938   9.713
10835WAT      O32746   8.010   7.151   1.586
10835WAT     H132747   8.001   7.129   1.488
10835WAT     H232748   8.070   7.230   1.597
10836WAT      O32749   6.546   5.045   4.794
10836WAT     H132750   6.539   5.139   4.827
10836WAT     H232751   6.544   5.045   4.694
10837WAT      O32752   6.790   5.767   6.930
10837WAT     H132753   6.857   5.694   6.913
10837WAT     H232754   6.711   5.729   6.977
10838WAT      O32755   9.313   4.093   1.147
10838WAT     H132756   9.234   4.118   1.091
10838WAT     H232757   9.396   4.101   1.092
10839WAT      O32758   1.128   5.707   7.524
10839WAT     H132759   1.081   5.773   7.464
10839WAT     H232760   1.097   5.615   7.503
10840WAT      O32761   9.742   6.511   3.501
10840WAT     H132762   9.741   6.517   3.402
10840WAT     H232763   9.801   6.583   3.538
10841WAT      O32764   8.717   7.401   8.500
10841WAT     H132765   8.646   7.471   8.501
10841WAT     H232766   8.676   7.311   8.488
10842WAT      O32767   5.794   7.810   6.515
10842WAT     H132768   5.831   7.735   6.570
10842WAT     H232769   5.756   7.880   6.575
10843WAT      O32770   3.058   4.887   1.796
10843WAT     H132771   3.110   4.946   1.735
10843WAT     H232772   3.090   4.900   1.890
10844WAT      O32773   6.724   2.403   8.942
10844WAT     H132774   6.681   2.394   9.031
10844WAT     H232775   6.657   2.385   8.870
10845WAT      O32776   6.821   6.430   4.127
10845WAT     H132777   6.858   6.351   4.078
10845WAT     H232778   6.892   6.500   4.134
10846WAT      O32779   8.508   9.475   8.021
10846WAT     H132780   8.559   9.558   8.001
10846WAT     H232781   8.566   9.395   8.007
10847WAT      O32782   7.732   0.046   9.495
10847WAT     H132783   7.795  -0.031   9.482
10847WAT     H232784   7.784   0.129   9.514
10848WAT      O32785   4.611   7.825   0.570
10848WAT     H132786   4.666   7.824   0.487
10848WAT     H232787   4.581   7.732   0.591
10849WAT      O32788   4.859   5.403   6.456
10849WAT     H132789   4.892   5.488   6.416
10849WAT     H232790   4.817   5.347   6.385
10850WAT      O32791   7.645   6.716   5.786
10850WAT     H132792   7.562   6.753   5.829
10850WAT     H232793   7.724   6.739   5.841
10851WAT      O32794   8.065   2.104   3.441
10851WAT     H132795   8.091   2.072   3.532
10851WAT     H232796   7.969   2.084   3.424
10852WAT      O32797   3.525   5.972   9.130
10852WAT     H132798   3.439   5.922   9.130
10852WAT     H232799   3.577   5.948   9.212
10853WAT      O32800   9.810   9.434   7.461
10853WAT     H132801   9.728   9.467   7.507
10853WAT     H232802   9.847   9.356   7.512
10854WAT      O32803   3.739   0.527   9.287
10854WAT     H132804   3.801   0.468   9.338
10854WAT     H232805   3.769   0.622   9.295
10855WAT      O32806   8.537   1.263   9.734
10855WAT     H132807   8.591   1.264   9.650
10855WAT     H232808   8.592   1.300   9.809
10856WAT      O32809   6.155   7.773   5.532
10856WAT     H132810   6.151   7.689   5.587
10856WAT     H232811   6.234   7.827   5.560
10857WAT      O32812   1.409   6.380   9.644
10857WAT     H132813   1.318   6.422   9.639
10857WAT     H232814   1.409   6.295   9.590
10858WAT      O32815   0.224   1.904   6.340
10858WAT     H132816   0.275   1.872   6.260
10858WAT     H232817   0.255   1.996   6.364
10859WAT      O32818   6.014   4.088   7.278
10859WAT     H132819   6.109   4.072   7.302
10859WAT     H232820   5.954   4.033   7.337
10860WAT      O32821   4.781   0.345   4.932
10860WAT     H132822   4.797   0.333   4.834
10860WAT     H232823   4.782   0.255   4.977
10861WAT      O32824   8.425   8.556   5.641
10861WAT     H132825   8.501   8.552   5.576
10861WAT     H232826   8.451   8.615   5.718
10862WAT      O32827   4.883   3.551   8.081
10862WAT     H132828   4.876   3.521   7.986
10862WAT     H232829   4.937   3.484   8.133
10863WAT      O32830   8.062   8.474   9.593
10863WAT     H132831   8.041   8.563   9.632
10863WAT     H232832   8.015   8.464   9.505
10864WAT      O32833   6.931   8.426   0.528
10864WAT     H132834   6.857   8.479   0.570
10864WAT     H232835   7.016   8.478   0.533
10865WAT      O32836   5.322   1.945   2.438
10865WAT     H132837   5.327   1.863   2.495
10865WAT     H232838   5.355   1.924   2.346
10866WAT      O32839   6.439   7.419   1.177
10866WAT     H132840   6.402   7.458   1.093
10866WAT     H232841   6.364   7.395   1.239
10867WAT      O32842   8.836   0.542   8.382
10867WAT     H132843   8.820   0.639   8.398
10867WAT     H232844   8.935   0.524   8.378
10868WAT      O32845   0.547   0.527   6.442
10868WAT     H132846   0.624   0.463   6.445
10868WAT     H232847   0.561   0.592   6.367
10869WAT      O32848   0.749   5.425   3.845
10869WAT     H132849   0.740   5.476   3.930
10869WAT     H232850   0.802   5.479   3.779
10870WAT      O32851   0.496   2.079   0.041
10870WAT     H132852   0.456   2.037   0.122
10870WAT     H232853   0.455   2.170   0.027
10871WAT      O32854   0.436   5.681   3.886
10871WAT     H132855   0.522   5.729   3.867
10871WAT     H232856   0.404   5.635   3.803
10872WAT      O32857   5.082   5.614   1.439
10872WAT     H132858   5.085   5.531   1.384
10872WAT     H232859   4.986   5.639   1.457
10873WAT      O32860   1.490   4.948   8.421
10873WAT     H132861   1.504   4.861   8.467
10873WAT     H232862   1.404   4.946   8.370
10874WAT      O32863   8.815   3.319   9.594
10874WAT     H132864   8.731   3.285   9.636
10874WAT     H232865   8.893   3.295   9.652
10875WAT      O32866   3.095   2.365   6.229
10875WAT     H132867   3.131   2.374   6.136
10875WAT     H232868   3.171   2.349   6.293
10876WAT      O32869   8.123   1.180   9.058
10876WAT     H132870   8.113   1.217   9.151
10876WAT     H232871   8.100   1.251   8.992
10877WAT      O32872   2.183   7.179   1.467
10877WAT     H132873   2.260   7.243   1.469
10877WAT     H232874   2.157   7.157   1.561
10878WAT      O32875   7.946   2.885   6.485
10878WAT     H132876   7.915   2.880   6.580
10878WAT     H232877   8.045   2.870   6.481
10879WAT      O32878   0.471   5.181   3.829
10879WAT     H132879   0.501   5.107   3.889
10879WAT     H232880   0.480   5.268   3.876
10880WAT      O32881   3.781   6.388   0.878
10880WAT     H132882   3.735   6.314   0.829
10880WAT     H232883   3.879   6.370   0.881
10881WAT      O32884   3.480   4.285   1.657
10881WAT     H132885   3.498   4.365   1.600
10881WAT     H232886   3.536   4.209   1.625
10882WAT      O32887   9.840   7.148   4.171
10882WAT     H132888   9.870   7.232   4.218
10882WAT     H232889   9.743   7.134   4.188
10883WAT      O32890   2.448   3.275   6.510
10883WAT     H132891   2.511   3.339   6.465
10883WAT     H232892   2.380   3.243   6.444
10884WAT      O32893   3.142   2.682   8.218
10884WAT     H132894   3.208   2.736   8.270
10884WAT     H232895   3.173   2.587   8.213
10885WAT      O32896   3.214   4.436   6.032
10885WAT     H132897   3.250   4.409   5.943
10885WAT     H232898   3.136   4.497   6.020
10886WAT      O32899   4.598   5.098   3.118
10886WAT     H132900   4.507   5.107   3.158
10886WAT     H232901   4.655   5.042   3.177
10887WAT      O32902   0.269   5.845   8.555
10887WAT     H132903   0.187   5.790   8.569
10887WAT     H232904   0.267   5.886   8.464
10888WAT      O32905   4.940   8.046   8.041
10888WAT     H132906   4.957   8.144   8.032
10888WAT     H232907   4.844   8.027   8.024
10889WAT      O32908   2.355   6.586   6.575
10889WAT     H132909   2.315   6.670   6.613
10889WAT     H232910   2.432   6.558   6.632
10890WAT      O32911   3.063   3.645   4.783
10890WAT     H132912   3.022   3.574   4.725
10890WAT     H232913   3.043   3.734   4.743
10891WAT      O32914   0.888   7.187   1.638
10891WAT     H132915   0.979   7.181   1.599
10891WAT     H232916   0.848   7.277   1.616
10892WAT      O32917   7.883   1.390   1.179
10892WAT     H132918   7.800   1.335   1.186
10892WAT     H232919   7.924   1.401   1.269
10893WAT      O32920   9.301   1.010   2.511
10893WAT     H132921   9.348   1.098   2.523
10893WAT     H232922   9.274   0.999   2.416
10894WAT      O32923   4.266   5.837   1.092
10894WAT     H132924   4.187   5.823   1.152
10894WAT     H232925   4.350   5.818   1.141
10895WAT      O32926   5.924   0.996   4.833
10895WAT     H132927   5.863   0.992   4.754
10895WAT     H232928   5.874   0.973   4.916
10896WAT      O32929   7.834   9.227   3.184
10896WAT     H132930   7.856   9.295   3.254
10896WAT     H232931   7.775   9.157   3.224
10897WAT      O32932   1.104   4.601   9.430
10897WAT     H132933   1.024   4.556   9.470
10897WAT     H232934   1.101   4.699   9.452
10898WAT      O32935   0.247   3.180   0.233
10898WAT     H132936   0.346   3.167   0.221
10898WAT     H232937   0.230   3.224   0.321
10899WAT      O32938   6.680   8.977   5.374
10899WAT     H132939   6.629   8.984   5.460
10899WAT     H232940   6.737   9.058   5.362
10900WAT      O32941   1.284   7.824   2.212
10900WAT     H132942   1.253   7.841   2.306
10900WAT     H232943   1.294   7.726   2.197
10901WAT      O32944   8.372   0.715   6.223
10901WAT     H132945   8.430   0.796   6.222
10901WAT     H232946   8.291   0.731   6.166
10902WAT      O32947   4.727   3.124   1.910
10902WAT     H132948   4.659   3.143   1.980
10902WAT     H232949   4.745   3.208   1.858
10903WAT      O32950   1.327   3.094   8.930
10903WAT     H132951   1.326   3.018   8.995
10903WAT     H232952   1.248   3.087   8.869
10904WAT      O32953   6.194   9.835   2.384
10904WAT     H132954   6.195   9.771   2.307
10904WAT     H232955   6.128   9.908   2.366
10905WAT      O32956   9.375   2.707   6.780
10905WAT     H132957   9.354   2.756   6.695
10905WAT     H232958   9.291   2.667   6.817
10906WAT      O32959   4.329   9.565   9.378
10906WAT     H132960   4.251   9.627   9.386
10906WAT     H232961   4.413   9.615   9.394
10907WAT      O32962   5.359   6.011   0.729
10907WAT     H132963   5.263   5.988   0.741
10907WAT     H232964   5.382   6.088   0.788
10908WAT      O32965   3.174  -0.002   1.652
10908WAT     H132966   3.094   0.001   1.592
10908WAT     H232967   3.228   0.081   1.640
10909WAT      O32968   4.535   5.294   6.591
10909WAT     H132969   4.498   5.241   6.515
10909WAT     H232970   4.580   5.233   6.655
10910WAT      O32971   4.734   8.528   6.770
10910WAT     H132972   4.805   8.484   6.826
10910WAT     H232973   4.678   8.587   6.828
10911WAT      O32974   8.210   4.580   2.010
10911WAT     H132975   8.176   4.534   2.092
10911WAT     H232976   8.211   4.515   1.933
10912WAT      O32977   4.490   6.538   9.868
10912WAT     H132978   4.541   6.519   9.952
10912WAT     H232979   4.442   6.455   9.840
10913WAT      O32980   2.773   2.057   9.171
10913WAT     H132981   2.763   2.156   9.174
10913WAT     H232982   2.686   2.015   9.145
10914WAT      O32983   6.003   5.234   8.001
10914WAT     H132984   5.985   5.136   8.001
10914WAT     H232985   6.044   5.261   8.088
10915WAT      O32986   0.161   7.427   5.444
10915WAT     H132987   0.257   7.402   5.457
10915WAT     H232988   0.154   7.499   5.374
10916WAT      O32989   7.099   4.620   3.140
10916WAT     H132990   7.000   4.624   3.125
10916WAT     H232991   7.122   4.671   3.222
10917WAT      O32992   5.085   3.515   7.307
10917WAT     H132993   5.091   3.416   7.294
10917WAT     H232994   5.143   3.562   7.240
10918WAT      O32995   4.587   0.969   4.400
10918WAT     H132996   4.679   0.943   4.430
10918WAT     H232997   4.595   1.044   4.334
10919WAT      O32998   9.116   6.132   2.888
10919WAT     H132999   9.168   6.050   2.862
10919WAT     H233000   9.169   6.187   2.951
10920WAT      O33001   4.908   0.770   0.678
10920WAT     H133002   5.005   0.750   0.662
10920WAT     H233003   4.891   0.771   0.777
10921WAT      O33004   1.374   0.611   0.154
10921WAT     H133005   1.441   0.605   0.080
10921WAT     H233006   1.352   0.708   0.172
10922WAT      O33007   0.816   2.899   1.178
10922WAT     H133008   0.903   2.949   1.186
10922WAT     H233009   0.809   2.858   1.088
10923WAT      O33010   1.988   4.173   1.610
10923WAT     H133011   2.063   4.130   1.558
10923WAT     H233012   1.987   4.136   1.703
10924WAT      O33013   1.875   3.572   0.881
10924WAT     H133014   1.818   3.646   0.846
10924WAT     H233015   1.970   3.585   0.850
10925WAT      O33016   8.463   7.733   1.255
10925WAT     H133017   8.486   7.830   1.259
10925WAT     H233018   8.545   7.680   1.234
10926WAT      O33019   2.007   4.302   3.619
10926WAT     H133020   2.036   4.320   3.525
10926WAT     H233021   2.068   4.234   3.661
10927WAT      O33022   4.368   7.447   6.126
10927WAT     H133023   4.406   7.486   6.042
10927WAT     H233024   4.404   7.497   6.205
10928WAT      O33025   9.775   7.858   1.416
10928WAT     H133026   9.811   7.951   1.430
10928WAT     H233027   9.701   7.841   1.480
10929WAT      O33028   2.246   7.592   7.132
10929WAT     H133029   2.278   7.506   7.172
10929WAT     H233030   2.150   7.605   7.155
10930WAT      O33031   4.683   3.037   0.051
10930WAT     H133032   4.683   2.938   0.036
10930WAT     H233033   4.740   3.058   0.131
10931WAT      O33034   4.203   3.214   8.671
10931WAT     H133035   4.103   3.205   8.676
10931WAT     H233036   4.245   3.130   8.705
10932WAT      O33037   7.342   4.566   0.940
10932WAT     H133038   7.392   4.550   0.855
10932WAT     H233039   7.403   4.607   1.008
10933WAT      O33040   5.921   7.386   1.835
10933WAT     H133041   5.933   7.464   1.896
10933WAT     H233042   5.995   7.385   1.768
10934WAT      O33043   8.059   6.950   0.259
10934WAT     H133044   7.962   6.974   0.268
10934WAT     H233045   8.077   6.866   0.311
10935WAT      O33046   5.839   3.469   8.945
10935WAT     H133047   5.866   3.392   9.004
10935WAT     H233048   5.831   3.437   8.851
10936WAT      O33049   2.933   5.189   5.994
10936WAT     H133050   2.881   5.106   6.013
10936WAT     H233051   3.030   5.173   6.014
10937WAT      O33052   7.833   3.587   9.851
10937WAT     H133053   7.899   3.599   9.925
10937WAT     H233054   7.882   3.576   9.765
10938WAT      O33055   1.403   2.374   2.572
10938WAT     H133056   1.341   2.406   2.500
10938WAT     H233057   1.363   2.294   2.617
10939WAT      O33058   6.600   1.260   1.775
10939WAT     H133059   6.599   1.163   1.797
10939WAT     H233060   6.507   1.291   1.754
10940WAT      O33061   1.284   7.787   1.086
10940WAT     H133062   1.308   7.756   0.994
10940WAT     H233063   1.367   7.795   1.141
10941WAT      O33064   2.828   8.518   9.072
10941WAT     H133065   2.876   8.498   9.157
10941WAT     H233066   2.836   8.616   9.051
10942WAT      O33067   5.729   7.682   0.991
10942WAT     H133068   5.784   7.609   1.031
10942WAT     H233069   5.741   7.683   0.892
10943WAT      O33070   0.474   3.098   4.690
10943WAT     H133071   0.498   3.075   4.785
10943WAT     H233072   0.514   3.187   4.666
10944WAT      O33073   8.206   2.103   5.874
10944WAT     H133074   8.155   2.111   5.960
10944WAT     H233075   8.241   2.193   5.848
10945WAT      O33076   3.386   7.844   2.921
10945WAT     H133077   3.468   7.886   2.883
10945WAT     H233078   3.374   7.875   3.015
10946WAT      O33079   7.988   2.575   3.551
10946WAT     H133080   8.042   2.501   3.509
10946WAT     H233081   8.009   2.580   3.649
10947WAT      O33082   8.895   9.493   2.821
10947WAT     H133083   8.988   9.469   2.792
10947WAT     H233084   8.867   9.578   2.776
10948WAT      O33085   8.890   0.661   4.822
10948WAT     H133086   8.955   0.634   4.893
10948WAT     H233087   8.838   0.740   4.852
10949WAT      O33088   0.499   9.183   1.386
10949WAT     H133089   0.516   9.280   1.403
10949WAT     H233090   0.574   9.128   1.423
10950WAT      O33091   8.927   3.254   5.432
10950WAT     H133092   8.943   3.339   5.382
10950WAT     H233093   8.964   3.262   5.525
10951WAT      O33094   5.727   3.105   1.874
10951WAT     H133095   5.801   3.115   1.940
10951WAT     H233096   5.745   3.164   1.794
10952WAT      O33097   8.663   1.554   4.579
10952WAT     H133098   8.659   1.460   4.611
10952WAT     H233099   8.755   1.574   4.544
10953WAT      O33100   9.858   9.047   9.457
10953WAT     H133101   9.823   9.112   9.389
10953WAT     H233102   9.921   9.095   9.519
10954WAT      O33103   8.752   4.938   8.672
10954WAT     H133104   8.676   4.928   8.737
10954WAT     H233105   8.794   5.028   8.685
10955WAT      O33106   4.637   7.880   5.393
10955WAT     H133107   4.678   7.788   5.393
10955WAT     H233108   4.706   7.946   5.422
10956WAT      O33109   9.448   2.588   3.418
10956WAT     H133110   9.504   2.610   3.338
10956WAT     H233111   9.508   2.575   3.497
10957WAT      O33112   3.239   5.378   8.124
10957WAT     H133113   3.319   5.337   8.169
10957WAT     H233114   3.210   5.459   8.175
10958WAT      O33115   8.772   9.151   5.910
10958WAT     H133116   8.737   9.082   5.847
10958WAT     H233117   8.855   9.192   5.871
10959WAT      O33118   4.617   9.094   0.679
10959WAT     H133119   4.580   9.001   0.672
10959WAT     H233120   4.706   9.091   0.725
10960WAT      O33121   1.967   5.211   2.712
10960WAT     H133122   1.902   5.158   2.657
10960WAT     H233123   2.059   5.198   2.676
10961WAT      O33124   5.057   6.258   7.970
10961WAT     H133125   5.051   6.357   7.957
10961WAT     H233126   5.115   6.218   7.899
10962WAT      O33127   8.298   0.224   7.379
10962WAT     H133128   8.340   0.136   7.400
10962WAT     H233129   8.327   0.291   7.448
10963WAT      O33130   2.945   7.656   8.703
10963WAT     H133131   3.004   7.578   8.725
10963WAT     H233132   2.926   7.709   8.785
10964WAT      O33133   3.827   8.554   8.844
10964WAT     H133134   3.919   8.516   8.853
10964WAT     H233135   3.786   8.521   8.759
10965WAT      O33136   0.039   3.408   4.885
10965WAT     H133137   0.051   3.309   4.875
10965WAT     H233138   0.069   3.454   4.801
10966WAT      O33139   3.050   3.559   9.477
10966WAT     H133140   3.113   3.636   9.464
10966WAT     H233141   3.050   3.502   9.394
10967WAT      O33142   6.142   4.366   6.393
10967WAT     H133143   6.083   4.447   6.393
10967WAT     H233144   6.233   4.391   6.360
10968WAT      O33145   0.451   8.555   6.631
10968WAT     H133146   0.481   8.514   6.545
10968WAT     H233147   0.467   8.490   6.706
10969WAT      O33148   9.048   2.975   3.665
10969WAT     H133149   9.013   3.009   3.752
10969WAT     H233150   9.080   2.881   3.677
10970WAT      O33151   1.135   8.137   8.972
10970WAT     H133152   1.222   8.151   9.019
10970WAT     H233153   1.078   8.075   9.027
10971WAT      O33154   6.327   9.643   4.639
10971WAT     H133155   6.249   9.610   4.585
10971WAT     H233156   6.335   9.742   4.629
10972WAT      O33157   7.569   6.896   6.320
10972WAT     H133158   7.600   6.972   6.377
10972WAT     H233159   7.548   6.929   6.228
10973WAT      O33160   5.817   3.845   0.056
10973WAT     H133161   5.915   3.830   0.045
10973WAT     H233162   5.791   3.930   0.011
10974WAT      O33163   1.228   2.814   8.623
10974WAT     H133164   1.149   2.797   8.682
10974WAT     H233165   1.232   2.911   8.599
10975WAT      O33166   8.867   5.143   3.007
10975WAT     H133167   8.951   5.130   3.059
10975WAT     H233168   8.839   5.239   3.013
10976WAT      O33169   3.745   3.740   9.055
10976WAT     H133170   3.791   3.729   9.143
10976WAT     H233171   3.734   3.651   9.011
10977WAT      O33172   3.200   2.570   8.893
10977WAT     H133173   3.178   2.486   8.943
10977WAT     H233174   3.191   2.553   8.795
10978WAT      O33175   3.454   0.003   8.974
10978WAT     H133176   3.411   0.092   8.958
10978WAT     H233177   3.497   0.003   9.065
10979WAT      O33178   2.762   0.371   4.258
10979WAT     H133179   2.784   0.343   4.352
10979WAT     H233180   2.846   0.404   4.214
10980WAT      O33181   7.506   0.263   2.644
10980WAT     H133182   7.552   0.184   2.602
10980WAT     H233183   7.470   0.237   2.733
10981WAT      O33184   7.699   3.701   1.608
10981WAT     H133185   7.693   3.730   1.703
10981WAT     H233186   7.770   3.754   1.562
10982WAT      O33187   5.691   4.035   7.069
10982WAT     H133188   5.720   4.127   7.094
10982WAT     H233189   5.591   4.029   7.070
10983WAT      O33190   2.706   2.573   9.804
10983WAT     H133191   2.666   2.648   9.857
10983WAT     H233192   2.692   2.487   9.852
10984WAT      O33193   7.898   8.384   2.262
10984WAT     H133194   7.985   8.390   2.312
10984WAT     H233195   7.843   8.464   2.281
10985WAT      O33196   6.557   1.133   2.487
10985WAT     H133197   6.465   1.095   2.498
10985WAT     H233198   6.551   1.229   2.459
10986WAT      O33199   9.059   7.351   3.613
10986WAT     H133200   9.121   7.307   3.678
10986WAT     H233201   9.091   7.443   3.594
10987WAT      O33202   6.971   9.252   1.767
10987WAT     H133203   6.960   9.198   1.684
10987WAT     H233204   6.977   9.191   1.846
10988WAT      O33205   1.461   8.641   8.011
10988WAT     H133206   1.440   8.685   7.923
10988WAT     H233207   1.391   8.573   8.032
10989WAT      O33208   5.464   4.679   4.408
10989WAT     H133209   5.482   4.738   4.487
10989WAT     H233210   5.372   4.699   4.373
10990WAT      O33211   5.650   8.906   2.543
10990WAT     H133212   5.558   8.935   2.516
10990WAT     H233213   5.702   8.986   2.573
10991WAT      O33214   9.206   0.451   1.114
10991WAT     H133215   9.205   0.371   1.055
10991WAT     H233216   9.157   0.526   1.070
10992WAT      O33217   4.059   0.040   2.933
10992WAT     H133218   4.122   0.096   2.986
10992WAT     H233219   4.095   0.027   2.840
10993WAT      O33220   7.829   7.750   2.479
10993WAT     H133221   7.789   7.792   2.560
10993WAT     H233222   7.758   7.699   2.430
10994WAT      O33223   0.847   8.970   3.662
10994WAT     H133224   0.828   9.053   3.610
10994WAT     H233225   0.861   8.994   3.758
10995WAT      O33226   5.796   6.363   9.853
10995WAT     H133227   5.741   6.282   9.834
10995WAT     H233228   5.886   6.335   9.887
10996WAT      O33229   0.451   5.338   3.348
10996WAT     H133230   0.488   5.302   3.433
10996WAT     H233231   0.420   5.262   3.290
10997WAT      O33232   1.813   2.354   4.783
10997WAT     H133233   1.880   2.281   4.799
10997WAT     H233234   1.802   2.368   4.685
10998WAT      O33235   7.969   4.624   8.934
10998WAT     H133236   7.955   4.722   8.918
10998WAT     H233237   8.047   4.592   8.881
10999WAT      O33238   6.342   2.393   4.937
10999WAT     H133239   6.246   2.372   4.954
10999WAT     H233240   6.356   2.492   4.947
11000WAT      O33241   5.715   8.861   6.155
11000WAT     H133242   5.729   8.867   6.056
11000WAT     H233243   5.748   8.945   6.198
11001WAT      O33244   9.181   6.610   1.952
11001WAT     H133245   9.263   6.582   1.904
11001WAT     H233246   9.105   6.549   1.928
11002WAT      O33247   0.407   7.043   6.057
11002WAT     H133248   0.391   7.138   6.085
11002WAT     H233249   0.489   7.039   6.001
11003WAT      O33250   9.111   1.940   1.100
11003WAT     H133251   9.025   1.946   1.151
11003WAT     H233252   9.149   2.032   1.089
11004WAT      O33253   6.546   5.208   5.544
11004WAT     H133254   6.603   5.282   5.579
11004WAT     H233255   6.475   5.246   5.484
11005WAT      O33256   7.751   3.088   8.086
11005WAT     H133257   7.775   3.004   8.036
11005WAT     H233258   7.805   3.093   8.170
11006WAT      O33259   7.559   7.498   9.277
11006WAT     H133260   7.570   7.413   9.226
11006WAT     H233261   7.647   7.543   9.288
11007WAT      O33262   1.178   7.615   3.002
11007WAT     H133263   1.258   7.556   2.994
11007WAT     H233264   1.207   7.711   2.994
11008WAT      O33265   5.063   1.964   9.234
11008WAT     H133266   5.038   1.906   9.157
11008WAT     H233267   5.158   1.945   9.261
11009WAT      O33268   7.227   4.856   9.581
11009WAT     H133269   7.261   4.857   9.675
11009WAT     H233270   7.176   4.940   9.563
11010WAT      O33271   7.765   8.482   4.734
11010WAT     H133272   7.817   8.547   4.790
11010WAT     H233273   7.712   8.532   4.665
11011WAT      O33274   2.389   8.655   6.860
11011WAT     H133275   2.431   8.702   6.937
11011WAT     H233276   2.356   8.565   6.890
11012WAT      O33277   5.766   1.962   0.555
11012WAT     H133278   5.813   2.031   0.610
11012WAT     H233279   5.739   2.003   0.467
11013WAT      O33280   3.015   8.649   8.247
11013WAT     H133281   2.916   8.658   8.257
11013WAT     H233282   3.061   8.702   8.318
11014WAT      O33283   7.868   8.423   5.785
11014WAT     H133284   7.819   8.337   5.798
11014WAT     H233285   7.832   8.470   5.704
11015WAT      O33286   2.260   7.966   1.804
11015WAT     H133287   2.357   7.958   1.825
11015WAT     H233288   2.242   7.925   1.715
11016WAT      O33289   0.408   5.372   4.911
11016WAT     H133290   0.308   5.369   4.912
11016WAT     H233291   0.445   5.295   4.962
11017WAT      O33292   4.967   3.107   1.765
11017WAT     H133293   4.883   3.099   1.819
11017WAT     H233294   4.951   3.170   1.689
11018WAT      O33295   1.453   0.489   8.242
11018WAT     H133296   1.469   0.391   8.237
11018WAT     H233297   1.369   0.507   8.292
11019WAT      O33298   3.464   6.472   0.726
11019WAT     H133299   3.368   6.455   0.702
11019WAT     H233300   3.520   6.397   0.691
11020WAT      O33301   7.943   9.099   1.419
11020WAT     H133302   7.966   9.009   1.456
11020WAT     H233303   7.849   9.122   1.443
11021WAT      O33304   8.415   0.558   0.526
11021WAT     H133305   8.395   0.643   0.477
11021WAT     H233306   8.332   0.525   0.572
11022WAT      O33307   9.846   2.796   1.807
11022WAT     H133308   9.840   2.697   1.796
11022WAT     H233309   9.847   2.818   1.905
11023WAT      O33310   2.340   7.663   5.855
11023WAT     H133311   2.352   7.604   5.775
11023WAT     H233312   2.429   7.676   5.900
11024WAT      O33313   0.421   1.146   6.875
11024WAT     H133314   0.435   1.053   6.908
11024WAT     H233315   0.354   1.193   6.932
11025WAT      O33316   9.268   6.310   2.183
11025WAT     H133317   9.306   6.267   2.265
11025WAT     H233318   9.267   6.410   2.195
11026WAT      O33319   6.791   6.949   6.810
11026WAT     H133320   6.875   6.947   6.756
11026WAT     H233321   6.813   6.929   6.906
11027WAT      O33322   0.835   2.405   8.626
11027WAT     H133323   0.808   2.435   8.717
11027WAT     H233324   0.885   2.318   8.633
11028WAT      O33325   5.077   7.674   5.249
11028WAT     H133326   5.155   7.614   5.267
11028WAT     H233327   5.104   7.745   5.183
11029WAT      O33328   4.545   8.936   4.545
11029WAT     H133329   4.518   8.928   4.449
11029WAT     H233330   4.464   8.953   4.601
11030WAT      O33331   4.267   0.143   4.646
11030WAT     H133332   4.174   0.122   4.616
11030WAT     H233333   4.263   0.187   4.736
11031WAT      O33334   1.599   0.943   4.877
11031WAT     H133335   1.526   0.934   4.945
11031WAT     H233336   1.573   0.892   4.795
11032WAT      O33337   8.827   4.750   9.498
11032WAT     H133338   8.762   4.818   9.463
11032WAT     H233339   8.799   4.659   9.470
11033WAT      O33340   1.421   5.873   4.593
11033WAT     H133341   1.506   5.844   4.549
11033WAT     H233342   1.348   5.808   4.569
11034WAT      O33343   5.595   1.987   5.694
11034WAT     H133344   5.572   2.046   5.617
11034WAT     H233345   5.647   2.038   5.762
11035WAT      O33346   5.402   6.073   9.706
11035WAT     H133347   5.396   6.131   9.624
11035WAT     H233348   5.322   6.013   9.710
11036WAT      O33349   8.983   5.648   9.153
11036WAT     H133350   8.934   5.730   9.123
11036WAT     H233351   9.038   5.670   9.234
11037WAT      O33352   3.697   2.405   7.663
11037WAT     H133353   3.711   2.359   7.751
11037WAT     H233354   3.741   2.352   7.591
11038WAT      O33355   5.046   3.981   2.969
11038WAT     H133356   5.008   4.069   2.939
11038WAT     H233357   5.108   3.946   2.900
11039WAT      O33358   9.041   6.351   9.643
11039WAT     H133359   9.091   6.339   9.729
11039WAT     H233360   8.946   6.377   9.663
11040WAT      O33361   9.316   5.951   5.697
11040WAT     H133362   9.288   5.887   5.769
11040WAT     H233363   9.393   6.005   5.729
11041WAT      O33364   5.230   4.127   7.792
11041WAT     H133365   5.235   4.176   7.704
11041WAT     H233366   5.254   4.031   7.778
11042WAT      O33367   7.890   8.999   3.452
11042WAT     H133368   7.857   9.091   3.474
11042WAT     H233369   7.987   8.993   3.473
11043WAT      O33370   3.797   4.695   8.197
11043WAT     H133371   3.889   4.680   8.162
11043WAT     H233372   3.801   4.713   8.296
11044WAT      O33373   0.281   8.210   7.313
11044WAT     H133374   0.340   8.280   7.354
11044WAT     H233375   0.188   8.245   7.305
11045WAT      O33376   2.866   9.503   3.974
11045WAT     H133377   2.862   9.404   3.985
11045WAT     H233378   2.938   9.540   4.032
11046WAT      O33379   4.266   3.171   7.019
11046WAT     H133380   4.284   3.083   7.064
11046WAT     H233381   4.194   3.159   6.950
11047WAT      O33382   0.056   6.556   4.572
11047WAT     H133383   0.037   6.460   4.588
11047WAT     H233384   0.139   6.583   4.622
11048WAT      O33385   9.102   2.219   8.320
11048WAT     H133386   9.186   2.274   8.320
11048WAT     H233387   9.086   2.182   8.229
11049WAT      O33388   8.283   7.974   7.203
11049WAT     H133389   8.347   7.903   7.173
11049WAT     H233390   8.190   7.935   7.207
11050WAT      O33391   8.009   9.008   4.482
11050WAT     H133392   8.047   9.022   4.573
11050WAT     H233393   7.940   8.935   4.485
11051WAT      O33394   5.109   2.607   2.123
11051WAT     H133395   5.147   2.677   2.063
11051WAT     H233396   5.048   2.547   2.071
11052WAT      O33397   5.817   5.876   5.980
11052WAT     H133398   5.767   5.924   6.051
11052WAT     H233399   5.893   5.933   5.948
11053WAT      O33400   7.733   3.531   0.866
11053WAT     H133401   7.746   3.619   0.913
11053WAT     H233402   7.637   3.503   0.873
11054WAT      O33403   3.319   4.872   9.502
11054WAT     H133404   3.407   4.855   9.459
11054WAT     H233405   3.247   4.827   9.450
11055WAT      O33406   7.956   3.346   3.915
11055WAT     H133407   7.906   3.267   3.879
11055WAT     H233408   8.052   3.322   3.927
11056WAT      O33409   5.877   4.052   8.778
11056WAT     H133410   5.796   4.093   8.736
11056WAT     H233411   5.919   3.988   8.714
11057WAT      O33412   5.772   7.621   0.725
11057WAT     H133413   5.766   7.680   0.644
11057WAT     H233414   5.769   7.525   0.696
11058WAT      O33415   8.485   1.521   3.982
11058WAT     H133416   8.507   1.593   3.916
11058WAT     H233417   8.505   1.553   4.074
11059WAT      O33418   7.956   9.407   2.750
11059WAT     H133419   8.048   9.420   2.712
11059WAT     H233420   7.897   9.482   2.722
11060WAT      O33421   6.242   4.132   6.502
11060WAT     H133422   6.341   4.123   6.494
11060WAT     H233423   6.211   4.210   6.448
11061WAT      O33424   7.821   3.687   4.769
11061WAT     H133425   7.786   3.641   4.687
11061WAT     H233426   7.898   3.634   4.805
11062WAT      O33427   0.131   5.218   8.877
11062WAT     H133428   0.123   5.180   8.785
11062WAT     H233429   0.043   5.253   8.907
11063WAT      O33430   1.322   3.349   8.429
11063WAT     H133431   1.281   3.399   8.506
11063WAT     H233432   1.358   3.414   8.363
11064WAT      O33433   1.035   8.725   4.012
11064WAT     H133434   1.099   8.709   3.936
11064WAT     H233435   1.085   8.757   4.092
11065WAT      O33436   2.526   2.703   7.093
11065WAT     H133437   2.545   2.694   7.190
11065WAT     H233438   2.556   2.620   7.045
11066WAT      O33439   5.120   0.400   4.067
11066WAT     H133440   5.107   0.385   4.165
11066WAT     H233441   5.218   0.410   4.048
11067WAT      O33442   2.007   2.175   0.059
11067WAT     H133443   2.002   2.159   0.158
11067WAT     H233444   2.027   2.088   0.013
11068WAT      O33445   3.898   6.991   9.761
11068WAT     H133446   3.993   6.962   9.747
11068WAT     H233447   3.873   6.977   9.856
11069WAT      O33448   4.552   3.650   7.325
11069WAT     H133449   4.458   3.629   7.298
11069WAT     H233450   4.555   3.737   7.374
11070WAT      O33451   8.340   5.219   9.527
11070WAT     H133452   8.286   5.294   9.490
11070WAT     H233453   8.400   5.183   9.456
11071WAT      O33454   3.218   8.344   8.188
11071WAT     H133455   3.159   8.284   8.243
11071WAT     H233456   3.249   8.421   8.244
11072WAT      O33457   9.270   0.835   3.304
11072WAT     H133458   9.277   0.888   3.219
11072WAT     H233459   9.189   0.866   3.355
11073WAT      O33460   3.303   3.238   4.153
11073WAT     H133461   3.377   3.227   4.220
11073WAT     H233462   3.223   3.186   4.184
11074WAT      O33463   0.946   7.138   0.549
11074WAT     H133464   0.965   7.237   0.555
11074WAT     H233465   0.933   7.113   0.453
11075WAT      O33466   5.085   1.495   0.197
11075WAT     H133467   5.051   1.452   0.114
11075WAT     H233468   5.163   1.443   0.232
11076WAT      O33469   0.141   6.946   2.647
11076WAT     H133470   0.171   7.017   2.583
11076WAT     H233471   0.205   6.941   2.723
11077WAT      O33472   0.627   8.809   0.135
11077WAT     H133473   0.534   8.802   0.171
11077WAT     H233474   0.625   8.806   0.035
11078WAT      O33475   0.928   9.171   6.937
11078WAT     H133476   0.875   9.127   7.009
11078WAT     H233477   0.944   9.107   6.862
11079WAT      O33478   2.870   0.850   4.214
11079WAT     H133479   2.894   0.939   4.175
11079WAT     H233480   2.775   0.851   4.244
11080WAT      O33481   5.995   7.987   2.371
11080WAT     H133482   6.056   7.909   2.357
11080WAT     H233483   5.942   7.973   2.455
11081WAT      O33484   2.323   6.851   6.991
11081WAT     H133485   2.321   6.752   6.976
11081WAT     H233486   2.409   6.876   7.035
11082WAT      O33487   7.694   3.774   4.037
11082WAT     H133488   7.691   3.677   4.060
11082WAT     H233489   7.763   3.789   3.966
11083WAT      O33490   6.266   4.896   8.864
11083WAT     H133491   6.178   4.910   8.817
11083WAT     H233492   6.339   4.938   8.811
11084WAT      O33493   4.058   3.799   0.031
11084WAT     H133494   3.966   3.777   0.000
11084WAT     H233495   4.095   3.873  -0.026
11085WAT      O33496   8.822   6.672   4.851
11085WAT     H133497   8.865   6.634   4.769
11085WAT     H233498   8.826   6.771   4.848
11086WAT      O33499   9.811   9.528   5.820
11086WAT     H133500   9.754   9.590   5.764
11086WAT     H233501   9.759   9.499   5.900
11087WAT      O33502   1.820   2.005   2.794
11087WAT     H133503   1.761   1.933   2.757
11087WAT     H233504   1.782   2.037   2.881
11088WAT      O33505   8.674   7.428   4.808
11088WAT     H133506   8.682   7.511   4.752
11088WAT     H233507   8.735   7.358   4.772
11089WAT      O33508   6.932   4.531   0.845
11089WAT     H133509   6.970   4.470   0.915
11089WAT     H233510   6.839   4.557   0.870
11090WAT      O33511   8.776   6.315   4.821
11090WAT     H133512   8.679   6.328   4.845
11090WAT     H233513   8.831   6.317   4.904
11091WAT      O33514   9.609   2.205   0.130
11091WAT     H133515   9.661   2.288   0.149
11091WAT     H233516   9.641   2.165   0.044
11092WAT      O33517   7.468   2.641   6.763
11092WAT     H133518   7.486   2.731   6.724
11092WAT     H233519   7.369   2.624   6.762
11093WAT      O33520   8.062   8.271   9.752
11093WAT     H133521   8.060   8.357   9.700
11093WAT     H233522   8.123   8.206   9.707
11094WAT      O33523   6.450   3.330   4.570
11094WAT     H133524   6.487   3.262   4.634
11094WAT     H233525   6.416   3.284   4.489
11095WAT      O33526   0.728   8.110   7.473
11095WAT     H133527   0.746   8.012   7.471
11095WAT     H233528   0.784   8.156   7.404
11096WAT      O33529   9.305   8.373   6.040
11096WAT     H133530   9.381   8.309   6.046
11096WAT     H233531   9.236   8.337   5.977
11097WAT      O33532   9.325   9.405   7.958
11097WAT     H133533   9.229   9.408   7.929
11097WAT     H233534   9.378   9.468   7.902
11098WAT      O33535   8.193   1.517   5.968
11098WAT     H133536   8.147   1.592   5.920
11098WAT     H233537   8.289   1.514   5.939
11099WAT      O33538   6.815   5.470   2.094
11099WAT     H133539   6.812   5.570   2.087
11099WAT     H233540   6.858   5.445   2.181
11100WAT      O33541   8.132   9.590   1.105
11100WAT     H133542   8.088   9.581   1.016
11100WAT     H233543   8.231   9.576   1.095
11101WAT      O33544   7.347   4.590   4.136
11101WAT     H133545   7.407   4.570   4.213
11101WAT     H233546   7.314   4.504   4.096
11102WAT      O33547   3.215   1.479   3.092
11102WAT     H133548   3.130   1.467   3.041
11102WAT     H233549   3.292   1.486   3.028
11103WAT      O33550   0.203   7.189   4.068
11103WAT     H133551   0.112   7.160   4.097
11103WAT     H233552   0.198   7.281   4.029
11104WAT      O33553   6.165   2.541   0.635
11104WAT     H133554   6.187   2.547   0.732
11104WAT     H233555   6.189   2.450   0.601
11105WAT      O33556   5.504   1.696   7.961
11105WAT     H133557   5.539   1.783   7.995
11105WAT     H233558   5.404   1.699   7.959
11106WAT      O33559   4.164   2.234   1.908
11106WAT     H133560   4.107   2.210   1.986
11106WAT     H233561   4.216   2.154   1.879
11107WAT      O33562   5.530   5.498   8.717
11107WAT     H133563   5.622   5.534   8.702
11107WAT     H233564   5.500   5.520   8.810
11108WAT      O33565   3.326   3.562   6.615
11108WAT     H133566   3.403   3.548   6.677
11108WAT     H233567   3.254   3.495   6.634
11109WAT      O33568   2.273   9.238   7.598
11109WAT     H133569   2.280   9.317   7.536
11109WAT     H233570   2.362   9.195   7.608
11110WAT      O33571   4.411   9.720   7.664
11110WAT     H133572   4.373   9.651   7.602
11110WAT     H233573   4.483   9.770   7.617
11111WAT      O33574   4.413   9.778   2.683
11111WAT     H133575   4.386   9.703   2.744
11111WAT     H233576   4.508   9.803   2.702
11112WAT      O33577   3.805   6.454   2.158
11112WAT     H133578   3.780   6.534   2.104
11112WAT     H233579   3.817   6.375   2.098
11113WAT      O33580   9.009   5.232   5.735
11113WAT     H133581   9.018   5.266   5.642
11113WAT     H233582   8.944   5.289   5.785
11114WAT      O33583   2.957   8.840   3.786
11114WAT     H133584   2.941   8.884   3.874
11114WAT     H233585   2.887   8.771   3.770
11115WAT      O33586   6.902   0.657   5.914
11115WAT     H133587   6.987   0.613   5.943
11115WAT     H233588   6.923   0.733   5.853
11116WAT      O33589   5.786   2.459   0.608
11116WAT     H133590   5.851   2.528   0.639
11116WAT     H233591   5.782   2.384   0.675
11117WAT      O33592   7.393   9.291   2.479
11117WAT     H133593   7.347   9.213   2.522
11117WAT     H233594   7.411   9.361   2.548
11118WAT      O33595   7.128   9.012   3.010
11118WAT     H133596   7.114   9.056   3.098
11118WAT     H233597   7.046   9.022   2.953
11119WAT      O33598   7.042   7.816   4.461
11119WAT     H133599   7.057   7.717   4.467
11119WAT     H233600   7.055   7.846   4.366
11120WAT      O33601   4.233   7.152   4.205
11120WAT     H133602   4.332   7.142   4.192
11120WAT     H233603   4.209   7.129   4.299
11121WAT      O33604   1.591   0.423   8.732
11121WAT     H133605   1.667   0.446   8.793
11121WAT     H233606   1.577   0.324   8.734
11122WAT      O33607   2.569   5.972   4.948
11122WAT     H133608   2.640   6.028   4.991
11122WAT     H233609   2.484   5.981   5.001
11123WAT      O33610   1.015   9.356   0.420
11123WAT     H133611   0.968   9.375   0.334
11123WAT     H233612   1.074   9.276   0.409
11124WAT      O33613   7.364   5.160   4.656
11124WAT     H133614   7.312   5.088   4.611
11124WAT     H233615   7.345   5.159   4.754
11125WAT      O33616   6.324   4.888   7.040
11125WAT     H133617   6.301   4.791   7.033
11125WAT     H233618   6.337   4.912   7.136
11126WAT      O33619   2.172   8.908   5.951
11126WAT     H133620   2.247   8.970   5.929
11126WAT     H233621   2.085   8.957   5.943
11127WAT      O33622   5.419   5.977   7.183
11127WAT     H133623   5.406   5.882   7.155
11127WAT     H233624   5.396   6.038   7.107
11128WAT      O33625   6.258   8.573   5.955
11128WAT     H133626   6.320   8.586   5.879
11128WAT     H233627   6.184   8.641   5.951
11129WAT      O33628   6.698   3.289   5.978
11129WAT     H133629   6.747   3.208   6.010
11129WAT     H233630   6.764   3.358   5.947
11130WAT      O33631   9.446   3.566   0.665
11130WAT     H133632   9.485   3.539   0.753
11130WAT     H233633   9.383   3.642   0.678
11131WAT      O33634   2.459   7.821   9.353
11131WAT     H133635   2.522   7.746   9.369
11131WAT     H233636   2.427   7.858   9.441
11132WAT      O33637   9.841   9.064   9.022
11132WAT     H133638   9.925   9.016   9.050
11132WAT     H233639   9.807   9.118   9.099
11133WAT      O33640   6.933   0.169   7.790
11133WAT     H133641   6.933   0.071   7.768
11133WAT     H233642   6.967   0.182   7.884
11134WAT      O33643   3.012   2.296   8.307
11134WAT     H133644   2.943   2.315   8.238
11134WAT     H233645   3.086   2.363   8.299
11135WAT      O33646   7.688   5.007   1.213
11135WAT     H133647   7.701   5.105   1.222
11135WAT     H233648   7.711   4.962   1.300
11136WAT      O33649   6.321   7.080   3.948
11136WAT     H133650   6.402   7.069   3.890
11136WAT     H233651   6.338   7.152   4.016
11137WAT      O33652   8.227   4.513   8.518
11137WAT     H133653   8.260   4.603   8.490
11137WAT     H233654   8.168   4.476   8.447
11138WAT      O33655   7.455   2.438   5.611
11138WAT     H133656   7.382   2.381   5.573
11138WAT     H233657   7.419   2.529   5.632
11139WAT      O33658   7.673   8.023   8.848
11139WAT     H133659   7.592   8.058   8.802
11139WAT     H233660   7.745   8.007   8.781
11140WAT      O33661   1.029   2.773   0.248
11140WAT     H133662   1.034   2.815   0.157
11140WAT     H233663   0.941   2.727   0.258
11141WAT      O33664   2.632   7.078   9.251
11141WAT     H133665   2.604   7.147   9.318
11141WAT     H233666   2.693   7.120   9.183
11142WAT      O33667   2.435   6.234   3.187
11142WAT     H133668   2.447   6.235   3.286
11142WAT     H233669   2.343   6.265   3.164
11143WAT      O33670   2.161   7.311   3.278
11143WAT     H133671   2.105   7.250   3.335
11143WAT     H233672   2.238   7.345   3.332
11144WAT      O33673   1.098   4.191   5.204
11144WAT     H133674   1.152   4.110   5.228
11144WAT     H233675   1.157   4.257   5.157
11145WAT      O33676   7.368   9.262   3.061
11145WAT     H133677   7.346   9.307   2.974
11145WAT     H233678   7.381   9.164   3.045
11146WAT      O33679   9.858   1.125   8.565
11146WAT     H133680   9.920   1.201   8.584
11146WAT     H233681   9.784   1.156   8.506
11147WAT      O33682   8.584   2.007   6.947
11147WAT     H133683   8.620   2.042   7.034
11147WAT     H233684   8.578   2.081   6.881
11148WAT      O33685   2.203   3.792   6.248
11148WAT     H133686   2.295   3.799   6.210
11148WAT     H233687   2.198   3.845   6.333
11149WAT      O33688   1.248   4.623   6.679
11149WAT     H133689   1.206   4.542   6.638
11149WAT     H233690   1.178   4.677   6.725
11150WAT      O33691   8.003   5.157   6.442
11150WAT     H133692   7.910   5.147   6.408
11150WAT     H233693   8.051   5.227   6.390
11151WAT      O33694   8.909   4.905   9.154
11151WAT     H133695   8.964   4.830   9.194
11151WAT     H233696   8.901   4.979   9.221
11152WAT      O33697   5.231   3.301   2.342
11152WAT     H133698   5.266   3.370   2.279
11152WAT     H233699   5.158   3.341   2.398
11153WAT      O33700   3.070   4.522   7.454
11153WAT     H133701   3.058   4.600   7.515
11153WAT     H233702   3.050   4.437   7.502
11154WAT      O33703   8.312   2.072   4.850
11154WAT     H133704   8.327   1.973   4.852
11154WAT     H233705   8.310   2.107   4.943
11155WAT      O33706   7.090   2.980   4.586
11155WAT     H133707   6.993   2.990   4.566
11155WAT     H233708   7.101   2.942   4.678
11156WAT      O33709   9.357   6.725   4.106
11156WAT     H133710   9.277   6.710   4.048
11156WAT     H233711   9.436   6.679   4.066
11157WAT      O33712   9.720   0.118   9.381
11157WAT     H133713   9.627   0.131   9.416
11157WAT     H233714   9.732   0.171   9.297
11158WAT      O33715   0.963   4.449   7.995
11158WAT     H133716   1.030   4.517   8.022
11158WAT     H233717   0.965   4.438   7.895
11159WAT      O33718   7.008   6.083   2.201
11159WAT     H133719   6.966   6.001   2.239
11159WAT     H233720   7.024   6.150   2.274
11160WAT      O33721   1.819   8.099   8.867
11160WAT     H133722   1.819   8.103   8.967
11160WAT     H233723   1.745   8.155   8.831
11161WAT      O33724   2.166   5.870   5.493
11161WAT     H133725   2.253   5.887   5.447
11161WAT     H233726   2.172   5.783   5.543
11162WAT      O33727   6.967   0.021   2.677
11162WAT     H133728   7.006   0.099   2.629
11162WAT     H233729   6.996   0.022   2.773
11163WAT      O33730   9.663   9.732   0.821
11163WAT     H133731   9.675   9.633   0.827
11163WAT     H233732   9.568   9.755   0.840
11164WAT      O33733   0.494   0.776   1.269
11164WAT     H133734   0.440   0.739   1.193
11164WAT     H233735   0.525   0.701   1.327
11165WAT      O33736   4.687   9.353   7.818
11165WAT     H133737   4.649   9.296   7.891
11165WAT     H233738   4.655   9.447   7.829
11166WAT      O33739   7.967   6.740   8.250
11166WAT     H133740   7.869   6.724   8.236
11166WAT     H233741   7.985   6.838   8.249
11167WAT      O33742   9.758   2.376   4.407
11167WAT     H133743   9.812   2.412   4.483
11167WAT     H233744   9.761   2.441   4.331
11168WAT      O33745   9.497   5.986   8.178
11168WAT     H133746   9.491   5.931   8.261
11168WAT     H233747   9.408   5.990   8.133
11169WAT      O33748   4.269   8.407   8.198
11169WAT     H133749   4.249   8.505   8.206
11169WAT     H233750   4.267   8.365   8.288
11170WAT      O33751   2.953   5.466   4.253
11170WAT     H133752   2.931   5.407   4.331
11170WAT     H233753   2.898   5.549   4.258
11171WAT      O33754   2.653   5.109   6.493
11171WAT     H133755   2.663   5.086   6.590
11171WAT     H233756   2.559   5.092   6.464
11172WAT      O33757   1.538   7.349   2.056
11172WAT     H133758   1.591   7.392   2.129
11172WAT     H233759   1.446   7.387   2.054
11173WAT      O33760   0.857   3.166   6.731
11173WAT     H133761   0.777   3.115   6.698
11173WAT     H233762   0.887   3.127   6.818
11174WAT      O33763   8.078   1.067   4.704
11174WAT     H133764   8.163   1.058   4.652
11174WAT     H233765   8.000   1.054   4.643
11175WAT      O33766   0.479   4.898   4.292
11175WAT     H133767   0.575   4.889   4.321
11175WAT     H233768   0.437   4.975   4.340
11176WAT      O33769   7.475   3.920   1.312
11176WAT     H133770   7.414   3.860   1.363
11176WAT     H233771   7.547   3.955   1.373
11177WAT      O33772   4.324   1.580   0.723
11177WAT     H133773   4.250   1.629   0.770
11177WAT     H233774   4.405   1.638   0.716
11178WAT      O33775   4.497   1.997   3.754
11178WAT     H133776   4.414   1.942   3.764
11178WAT     H233777   4.484   2.062   3.679
11179WAT      O33778   4.178   6.503   3.676
11179WAT     H133779   4.224   6.452   3.603
11179WAT     H233780   4.080   6.501   3.661
11180WAT      O33781   4.283   8.272   8.455
11180WAT     H133782   4.245   8.194   8.505
11180WAT     H233783   4.382   8.262   8.448
11181WAT      O33784   8.991   5.515   4.433
11181WAT     H133785   8.914   5.566   4.472
11181WAT     H233786   9.051   5.578   4.384
11182WAT      O33787   3.453   6.185   1.954
11182WAT     H133788   3.526   6.163   1.890
11182WAT     H233789   3.402   6.102   1.976
11183WAT      O33790   3.235   1.369   0.837
11183WAT     H133791   3.255   1.399   0.930
11183WAT     H233792   3.278   1.280   0.821
11184WAT      O33793   5.769   5.344   7.920
11184WAT     H133794   5.850   5.306   7.965
11184WAT     H233795   5.794   5.374   7.828
11185WAT      O33796   0.626   5.749   1.160
11185WAT     H133797   0.559   5.783   1.226
11185WAT     H233798   0.595   5.661   1.124
11186WAT      O33799   8.146   5.418   6.411
11186WAT     H133800   8.163   5.467   6.326
11186WAT     H233801   8.229   5.370   6.439
11187WAT      O33802   4.156   3.564   3.042
11187WAT     H133803   4.218   3.492   3.072
11187WAT     H233804   4.062   3.535   3.057
11188WAT      O33805   8.935   1.206   9.122
11188WAT     H133806   8.859   1.143   9.103
11188WAT     H233807   8.955   1.205   9.220
11189WAT      O33808   2.823   5.037   9.275
11189WAT     H133809   2.789   4.965   9.334
11189WAT     H233810   2.749   5.101   9.253
11190WAT      O33811   3.649   3.960   9.580
11190WAT     H133812   3.646   3.965   9.680
11190WAT     H233813   3.629   4.050   9.542
11191WAT      O33814   9.650   2.754   9.318
11191WAT     H133815   9.620   2.677   9.261
11191WAT     H233816   9.582   2.769   9.390
11192WAT      O33817   2.581   6.778   4.924
11192WAT     H133818   2.561   6.781   4.826
11192WAT     H233819   2.671   6.818   4.942
11193WAT      O33820   1.142   3.286   5.331
11193WAT     H133821   1.191   3.228   5.266
11193WAT     H233822   1.204   3.312   5.405
11194WAT      O33823   8.287   8.281   1.063
11194WAT     H133824   8.356   8.352   1.080
11194WAT     H233825   8.297   8.247   0.970
11195WAT      O33826   3.964   3.573   6.990
11195WAT     H133827   4.029   3.528   6.928
11195WAT     H233828   3.920   3.649   6.942
11196WAT      O33829   7.751   2.347   5.274
11196WAT     H133830   7.680   2.286   5.241
11196WAT     H233831   7.840   2.303   5.265
11197WAT      O33832   9.781   6.064   0.934
11197WAT     H133833   9.707   6.094   0.874
11197WAT     H233834   9.757   5.976   0.975
11198WAT      O33835   6.580   2.322   2.984
11198WAT     H133836   6.548   2.263   3.059
11198WAT     H233837   6.666   2.286   2.949
11199WAT      O33838   6.277   2.017   9.215
11199WAT     H133839   6.339   2.029   9.138
11199WAT     H233840   6.315   2.063   9.296
11200WAT      O33841   8.420   6.510   2.416
11200WAT     H133842   8.485   6.433   2.420
11200WAT     H233843   8.327   6.475   2.425
11201WAT      O33844   5.977   8.301   2.905
11201WAT     H133845   5.910   8.239   2.946
11201WAT     H233846   5.930   8.373   2.855
11202WAT      O33847   6.220   8.150   1.759
11202WAT     H133848   6.138   8.169   1.704
11202WAT     H233849   6.297   8.204   1.724
11203WAT      O33850   4.311   3.194   2.563
11203WAT     H133851   4.266   3.268   2.613
11203WAT     H233852   4.410   3.207   2.565
11204WAT      O33853   9.139   8.115   9.284
11204WAT     H133854   9.057   8.114   9.341
11204WAT     H233855   9.135   8.193   9.222
11205WAT      O33856   8.731   4.369   1.382
11205WAT     H133857   8.684   4.448   1.345
11205WAT     H233858   8.718   4.290   1.322
11206WAT      O33859   6.401   1.225   4.440
11206WAT     H133860   6.351   1.259   4.360
11206WAT     H233861   6.397   1.294   4.513
11207WAT      O33862   9.617   2.169   6.246
11207WAT     H133863   9.661   2.079   6.244
11207WAT     H233864   9.648   2.219   6.327
11208WAT      O33865   6.476   5.499   8.749
11208WAT     H133866   6.527   5.510   8.835
11208WAT     H233867   6.514   5.561   8.680
11209WAT      O33868   0.721   0.269   6.491
11209WAT     H133869   0.682   0.211   6.562
11209WAT     H233870   0.821   0.264   6.496
11210WAT      O33871   8.463   8.828   8.231
11210WAT     H133872   8.405   8.872   8.300
11210WAT     H233873   8.520   8.759   8.276
11211WAT      O33874   3.119   9.331   7.690
11211WAT     H133875   3.079   9.411   7.735
11211WAT     H233876   3.046   9.269   7.662
11212WAT      O33877   5.726   0.914   1.884
11212WAT     H133878   5.711   0.817   1.902
11212WAT     H233879   5.803   0.947   1.939
11213WAT      O33880   2.979   2.615   4.090
11213WAT     H133881   2.960   2.620   4.188
11213WAT     H233882   3.034   2.534   4.070
11214WAT      O33883   9.529   6.455   0.444
11214WAT     H133884   9.602   6.469   0.510
11214WAT     H233885   9.548   6.508   0.361
11215WAT      O33886   0.444   8.163   6.470
11215WAT     H133887   0.507   8.091   6.499
11215WAT     H233888   0.496   8.243   6.441
11216WAT      O33889   2.097   6.915   7.382
11216WAT     H133890   2.067   6.889   7.291
11216WAT     H233891   2.056   7.002   7.408
11217WAT      O33892   9.412   2.294   0.872
11217WAT     H133893   9.396   2.273   0.775
11217WAT     H233894   9.497   2.346   0.881
11218WAT      O33895   4.515   7.722   3.807
11218WAT     H133896   4.471   7.800   3.850
11218WAT     H233897   4.448   7.648   3.794
11219WAT      O33898   3.350   4.459   6.667
11219WAT     H133899   3.317   4.536   6.612
11219WAT     H233900   3.274   4.395   6.683
11220WAT      O33901   7.821   3.209   7.442
11220WAT     H133902   7.758   3.225   7.518
11220WAT     H233903   7.769   3.185   7.360
11221WAT      O33904   1.216   7.595   9.882
11221WAT     H133905   1.162   7.651   9.946
11221WAT     H233906   1.272   7.656   9.824
11222WAT      O33907   6.624   6.976   4.305
11222WAT     H133908   6.641   7.074   4.301
11222WAT     H233909   6.676   6.930   4.233
11223WAT      O33910   3.489   4.549   1.034
11223WAT     H133911   3.539   4.468   1.066
11223WAT     H233912   3.551   4.627   1.033
11224WAT      O33913   8.376   1.991   2.306
11224WAT     H133914   8.284   1.983   2.344
11224WAT     H233915   8.420   1.901   2.306
11225WAT      O33916   0.767   1.344   6.354
11225WAT     H133917   0.797   1.423   6.301
11225WAT     H233918   0.826   1.333   6.434
11226WAT      O33919   5.591   5.515   5.536
11226WAT     H133920   5.582   5.555   5.445
11226WAT     H233921   5.514   5.544   5.592
11227WAT      O33922   6.018   4.602   1.621
11227WAT     H133923   6.116   4.582   1.624
11227WAT     H233924   6.003   4.688   1.571
11228WAT      O33925   9.152   4.455   9.803
11228WAT     H133926   9.139   4.381   9.737
11228WAT     H233927   9.250   4.475   9.811
11229WAT      O33928   1.597   4.993   7.713
11229WAT     H133929   1.635   5.039   7.793
11229WAT     H233930   1.663   4.925   7.679
11230WAT      O33931   6.951   6.800   0.565
11230WAT     H133932   6.875   6.862   0.544
11230WAT     H233933   6.994   6.829   0.651
11231WAT      O33934   9.117   6.509   9.449
11231WAT     H133935   9.078   6.428   9.492
11231WAT     H233936   9.113   6.586   9.512
11232WAT      O33937   3.622   9.644   7.357
11232WAT     H133938   3.671   9.641   7.444
11232WAT     H233939   3.531   9.684   7.372
11233WAT      O33940   2.703   1.236   2.053
11233WAT     H133941   2.797   1.268   2.064
11233WAT     H233942   2.650   1.256   2.135
11234WAT      O33943   9.124   7.292   1.361
11234WAT     H133944   9.157   7.375   1.314
11234WAT     H233945   9.194   7.221   1.356
11235WAT      O33946   2.100   3.704   0.778
11235WAT     H133947   2.130   3.674   0.687
11235WAT     H233948   2.153   3.657   0.848
11236WAT      O33949   1.370   7.598   7.651
11236WAT     H133950   1.330   7.633   7.736
11236WAT     H233951   1.463   7.632   7.641
11237WAT      O33952   6.146   1.476   5.911
11237WAT     H133953   6.148   1.576   5.907
11237WAT     H233954   6.170   1.439   5.821
11238WAT      O33955   1.312   3.016   1.296
11238WAT     H133956   1.290   3.037   1.392
11238WAT     H233957   1.403   3.053   1.275
11239WAT      O33958   2.895   3.995   4.177
11239WAT     H133959   2.835   4.012   4.255
11239WAT     H233960   2.841   3.957   4.101
11240WAT      O33961   0.791   8.168   4.910
11240WAT     H133962   0.720   8.227   4.948
11240WAT     H233963   0.804   8.189   4.813
11241WAT      O33964   7.684   4.224   4.650
11241WAT     H133965   7.683   4.126   4.673
11241WAT     H233966   7.635   4.238   4.564
11242WAT      O33967   6.275   6.430   8.441
11242WAT     H133968   6.196   6.419   8.380
11242WAT     H233969   6.295   6.342   8.485
11243WAT      O33970   7.404   7.041   4.745
11243WAT     H133971   7.492   7.024   4.702
11243WAT     H233972   7.346   6.959   4.738
11244WAT      O33973   3.478   2.755   7.491
11244WAT     H133974   3.471   2.791   7.398
11244WAT     H233975   3.418   2.675   7.500
11245WAT      O33976   6.957   1.956   9.395
11245WAT     H133977   6.960   1.867   9.440
11245WAT     H233978   6.943   1.942   9.297
11246WAT      O33979   8.559   7.048   7.486
11246WAT     H133980   8.523   7.026   7.395
11246WAT     H233981   8.651   7.086   7.477
11247WAT      O33982   0.355   3.882   6.305
11247WAT     H133983   0.275   3.826   6.286
11247WAT     H233984   0.424   3.866   6.235
11248WAT      O33985   1.459   5.269   6.263
11248WAT     H133986   1.464   5.172   6.241
11248WAT     H233987   1.363   5.296   6.272
11249WAT      O33988   9.612   7.699   3.005
11249WAT     H133989   9.628   7.601   2.997
11249WAT     H233990   9.666   7.748   2.936
11250WAT      O33991   4.095   1.720   1.076
11250WAT     H133992   4.110   1.751   0.983
11250WAT     H233993   4.015   1.661   1.079
11251WAT      O33994   2.447   1.925   1.611
11251WAT     H133995   2.463   2.023   1.606
11251WAT     H233996   2.500   1.886   1.686
11252WAT      O33997   4.078   4.493   7.367
11252WAT     H133998   3.988   4.519   7.332
11252WAT     H233999   4.121   4.572   7.412
11253WAT      O34000   7.295   3.838   5.313
11253WAT     H134001   7.370   3.904   5.312
11253WAT     H234002   7.208   3.885   5.305
11254WAT      O34003   6.215   8.879   3.254
11254WAT     H134004   6.310   8.878   3.286
11254WAT     H234005   6.212   8.901   3.157
11255WAT      O34006   1.755   1.736   6.846
11255WAT     H134007   1.786   1.669   6.913
11255WAT     H234008   1.669   1.706   6.806
11256WAT      O34009   5.877   0.270   6.281
11256WAT     H134010   5.902   0.301   6.373
11256WAT     H234011   5.958   0.274   6.222
11257WAT      O34012   3.433   2.895   2.830
11257WAT     H134013   3.431   2.993   2.811
11257WAT     H234014   3.528   2.864   2.834
11258WAT      O34015   1.541   2.910   1.122
11258WAT     H134016   1.571   2.955   1.206
11258WAT     H234017   1.507   2.978   1.058
11259WAT      O34018   5.237   6.300   1.143
11259WAT     H134019   5.321   6.341   1.107
11259WAT     H234020   5.218   6.214   1.095
11260WAT      O34021   2.488   8.900   9.389
11260WAT     H134022   2.467   8.946   9.303
11260WAT     H234023   2.472   8.802   9.379
11261WAT      O34024   0.187   4.836   1.032
11261WAT     H134025   0.094   4.842   0.996
11261WAT     H234026   0.247   4.797   0.962
11262WAT      O34027   0.099   1.465   4.266
11262WAT     H134028   0.003   1.451   4.240
11262WAT     H234029   0.103   1.520   4.349
11263WAT      O34030   7.019   0.906   6.038
11263WAT     H134031   7.047   0.904   5.942
11263WAT     H234032   7.052   0.823   6.084
11264WAT      O34033   8.840   0.466   6.512
11264WAT     H134034   8.763   0.420   6.467
11264WAT     H234035   8.808   0.509   6.597
11265WAT      O34036   6.642   7.515   3.490
11265WAT     H134037   6.722   7.457   3.479
11265WAT     H234038   6.646   7.562   3.579
11266WAT      O34039   7.001   1.066   4.128
11266WAT     H134040   7.019   1.024   4.039
11266WAT     H234041   7.071   1.134   4.148
11267WAT      O34042   5.846   2.265   3.272
11267WAT     H134043   5.789   2.293   3.349
11267WAT     H234044   5.802   2.291   3.187
11268WAT      O34045   1.749   4.302   1.361
11268WAT     H134046   1.662   4.347   1.339
11268WAT     H234047   1.778   4.329   1.453
11269WAT      O34048   4.003   7.983   7.045
11269WAT     H134049   3.933   8.009   7.112
11269WAT     H234050   3.964   7.923   6.976
11270WAT      O34051   1.353   3.483   3.171
11270WAT     H134052   1.268   3.526   3.141
11270WAT     H234053   1.425   3.552   3.178
11271WAT      O34054   9.593   4.945   9.550
11271WAT     H134055   9.546   5.032   9.568
11271WAT     H234056   9.591   4.926   9.452
11272WAT      O34057   9.845   9.331   0.005
11272WAT     H134058   9.900   9.414   0.017
11272WAT     H234059   9.890   9.254   0.050
11273WAT      O34060   9.208   6.376   0.449
11273WAT     H134061   9.306   6.396   0.442
11273WAT     H234062   9.194   6.278   0.432
11274WAT      O34063   0.162   8.136   1.744
11274WAT     H134064   0.152   8.187   1.829
11274WAT     H234065   0.094   8.064   1.740
11275WAT      O34066   0.268   3.051   2.155
11275WAT     H134067   0.291   3.025   2.062
11275WAT     H234068   0.351   3.072   2.206
11276WAT      O34069   6.650   5.382   3.381
11276WAT     H134070   6.710   5.302   3.370
11276WAT     H234071   6.680   5.455   3.319
11277WAT      O34072   9.759   0.689   6.677
11277WAT     H134073   9.758   0.789   6.679
11277WAT     H234074   9.826   0.658   6.609
11278WAT      O34075   3.027   3.125   0.921
11278WAT     H134076   3.053   3.045   0.975
11278WAT     H234077   2.932   3.150   0.943
11279WAT      O34078   2.783   3.141   6.020
11279WAT     H134079   2.841   3.114   5.944
11279WAT     H234080   2.839   3.159   6.101
11280WAT      O34081   8.146   6.460   3.578
11280WAT     H134082   8.210   6.499   3.644
11280WAT     H234083   8.053   6.472   3.610
11281WAT      O34084   5.747   8.178   4.311
11281WAT     H134085   5.780   8.256   4.258
11281WAT     H234086   5.816   8.107   4.312
11282WAT      O34087   3.929   7.624   9.222
11282WAT     H134088   3.850   7.609   9.163
11282WAT     H234089   4.003   7.666   9.169
11283WAT      O34090   6.860   9.705   9.526
11283WAT     H134091   6.818   9.790   9.555
11283WAT     H234092   6.932   9.679   9.590
11284WAT      O34093   5.671   8.578   7.144
11284WAT     H134094   5.589   8.631   7.164
11284WAT     H234095   5.727   8.570   7.227
11285WAT      O34096   9.286   3.180   6.098
11285WAT     H134097   9.365   3.199   6.040
11285WAT     H234098   9.212   3.244   6.076
11286WAT      O34099   2.254   3.899   8.548
11286WAT     H134100   2.192   3.858   8.614
11286WAT     H234101   2.276   3.992   8.576
11287WAT      O34102   0.791   8.744   1.713
11287WAT     H134103   0.757   8.661   1.756
11287WAT     H234104   0.815   8.811   1.783
11288WAT      O34105   6.766   7.787   2.393
11288WAT     H134106   6.748   7.762   2.488
11288WAT     H234107   6.859   7.762   2.368
11289WAT      O34108   1.583   1.021   2.365
11289WAT     H134109   1.516   1.027   2.439
11289WAT     H234110   1.579   0.930   2.324
11290WAT      O34111   9.035   9.761   3.540
11290WAT     H134112   8.975   9.699   3.591
11290WAT     H234113   8.979   9.817   3.479
11291WAT      O34114   5.944   7.357   0.247
11291WAT     H134115   5.878   7.425   0.277
11291WAT     H234116   5.962   7.369   0.149
11292WAT      O34117   4.446   5.100   6.303
11292WAT     H134118   4.406   5.024   6.252
11292WAT     H234119   4.518   5.143   6.248
11293WAT      O34120   8.305   6.254   7.278
11293WAT     H134121   8.281   6.292   7.367
11293WAT     H234122   8.223   6.242   7.223
11294WAT      O34123   0.106   6.476   3.269
11294WAT     H134124   0.125   6.476   3.367
11294WAT     H234125   0.175   6.530   3.222
11295WAT      O34126   7.701   0.421   2.244
11295WAT     H134127   7.779   0.359   2.239
11295WAT     H234128   7.622   0.380   2.199
11296WAT      O34129   1.407   2.506   0.427
11296WAT     H134130   1.422   2.447   0.347
11296WAT     H234131   1.371   2.594   0.397
11297WAT      O34132   6.657   9.539   9.130
11297WAT     H134133   6.605   9.478   9.191
11297WAT     H234134   6.680   9.623   9.179
11298WAT      O34135   1.729   0.289   7.903
11298WAT     H134136   1.708   0.361   7.968
11298WAT     H234137   1.809   0.237   7.935
11299WAT      O34138   5.260   6.082   2.447
11299WAT     H134139   5.258   6.173   2.406
11299WAT     H234140   5.295   6.088   2.541
11300WAT      O34141   0.706   5.046   8.151
11300WAT     H134142   0.708   5.086   8.242
11300WAT     H234143   0.795   5.057   8.108
11301WAT      O34144   2.276   1.363   9.485
11301WAT     H134145   2.265   1.434   9.555
11301WAT     H234146   2.275   1.406   9.395
11302WAT      O34147   9.203   4.808   5.217
11302WAT     H134148   9.126   4.835   5.274
11302WAT     H234149   9.195   4.712   5.193
11303WAT      O34150   0.951   1.027   1.192
11303WAT     H134151   0.882   1.021   1.265
11303WAT     H234152   0.917   0.982   1.110
11304WAT      O34153   6.851   5.649   8.610
11304WAT     H134154   6.895   5.585   8.547
11304WAT     H234155   6.917   5.717   8.641
11305WAT      O34156   0.982   7.596   0.989
11305WAT     H134157   1.018   7.672   0.934
11305WAT     H234158   0.888   7.616   1.015
11306WAT      O34159   5.594   8.557   5.310
11306WAT     H134160   5.638   8.470   5.332
11306WAT     H234161   5.659   8.632   5.328
11307WAT      O34162   2.082   7.132   6.434
11307WAT     H134163   2.119   7.047   6.396
11307WAT     H234164   1.986   7.140   6.408
11308WAT      O34165   6.697   4.291   1.102
11308WAT     H134166   6.795   4.270   1.107
11308WAT     H234167   6.645   4.217   1.145
11309WAT      O34168   1.044   8.421   1.694
11309WAT     H134169   1.108   8.345   1.702
11309WAT     H234170   1.019   8.453   1.786
11310WAT      O34171   7.619   6.514   1.504
11310WAT     H134172   7.713   6.483   1.491
11310WAT     H234173   7.578   6.463   1.580
11311WAT      O34174   2.933   5.068   6.632
11311WAT     H134175   2.919   5.156   6.586
11311WAT     H234176   2.926   5.081   6.731
11312WAT      O34177   7.156   6.699   6.134
11312WAT     H134178   7.207   6.721   6.217
11312WAT     H234179   7.199   6.743   6.055
11313WAT      O34180   6.090   3.625   9.741
11313WAT     H134181   6.089   3.640   9.642
11313WAT     H234182   6.081   3.527   9.760
11314WAT      O34183   7.176   1.495   7.653
11314WAT     H134184   7.178   1.553   7.734
11314WAT     H234185   7.191   1.400   7.679
11315WAT      O34186   4.199   0.978   9.053
11315WAT     H134187   4.292   0.943   9.061
11315WAT     H234188   4.194   1.040   8.974
11316WAT      O34189   3.025   7.313   4.344
11316WAT     H134190   3.118   7.319   4.380
11316WAT     H234191   3.028   7.281   4.250
11317WAT      O34192   0.417   3.501   4.843
11317WAT     H134193   0.368   3.451   4.772
11317WAT     H234194   0.512   3.470   4.845
11318WAT      O34195   5.278   4.747   2.513
11318WAT     H134196   5.198   4.772   2.457
11318WAT     H234197   5.249   4.684   2.585
11319WAT      O34198   0.405   6.013   4.175
11319WAT     H134199   0.322   5.961   4.153
11319WAT     H234200   0.391   6.110   4.154
11320WAT      O34201   3.622   0.049   9.551
11320WAT     H134202   3.532   0.090   9.566
11320WAT     H234203   3.614  -0.025   9.484
11321WAT      O34204   6.419   7.122   6.692
11321WAT     H134205   6.431   7.023   6.698
11321WAT     H234206   6.458   7.155   6.606
11322WAT      O34207   1.728   2.749   3.702
11322WAT     H134208   1.678   2.800   3.771
11322WAT     H234209   1.668   2.683   3.657
11323WAT      O34210   0.690   5.106   8.443
11323WAT     H134211   0.714   5.161   8.524
11323WAT     H234212   0.616   5.043   8.466
11324WAT      O34213   4.595   1.242   4.721
11324WAT     H134214   4.630   1.311   4.658
11324WAT     H234215   4.499   1.260   4.741
11325WAT      O34216   3.247   0.783   8.398
11325WAT     H134217   3.276   0.849   8.467
11325WAT     H234218   3.305   0.792   8.317
11326WAT      O34219   5.667   6.953   9.002
11326WAT     H134220   5.756   6.987   8.971
11326WAT     H234221   5.595   7.001   8.953
11327WAT      O34222   9.296   3.475   2.017
11327WAT     H134223   9.328   3.549   1.958
11327WAT     H234224   9.298   3.505   2.112
11328WAT      O34225   9.166   8.674   0.380
11328WAT     H134226   9.190   8.579   0.365
11328WAT     H234227   9.248   8.726   0.403
11329WAT      O34228   6.127   1.545   8.243
11329WAT     H134229   6.162   1.638   8.233
11329WAT     H234230   6.132   1.517   8.339
11330WAT      O34231   6.143   5.623   6.573
11330WAT     H134232   6.199   5.570   6.637
11330WAT     H234233   6.054   5.580   6.564
11331WAT      O34234   9.407   4.718   5.547
11331WAT     H134235   9.410   4.675   5.637
11331WAT     H234236   9.409   4.818   5.558
11332WAT      O34237   6.215   1.115   4.027
11332WAT     H134238   6.265   1.036   4.062
11332WAT     H234239   6.117   1.095   4.026
11333WAT      O34240   3.017   5.344   8.350
11333WAT     H134241   3.058   5.418   8.296
11333WAT     H234242   2.979   5.381   8.435
11334WAT      O34243   9.524   7.245   5.253
11334WAT     H134244   9.541   7.334   5.211
11334WAT     H234245   9.425   7.232   5.264
11335WAT      O34246   3.229   9.717   8.350
11335WAT     H134247   3.177   9.736   8.433
11335WAT     H234248   3.192   9.636   8.305
11336WAT      O34249   8.978   7.860   4.967
11336WAT     H134250   8.984   7.819   5.058
11336WAT     H234251   8.905   7.815   4.916
11337WAT      O34252   3.089   2.302   2.561
11337WAT     H134253   3.062   2.389   2.520
11337WAT     H234254   3.056   2.226   2.505
11338WAT      O34255   4.679   1.326   9.565
11338WAT     H134256   4.628   1.294   9.645
11338WAT     H234257   4.749   1.391   9.593
11339WAT      O34258   8.384   8.996   1.452
11339WAT     H134259   8.406   8.983   1.355
11339WAT     H234260   8.415   8.917   1.504
11340WAT      O34261   3.479   0.520   0.679
11340WAT     H134262   3.405   0.454   0.664
11340WAT     H234263   3.550   0.479   0.737
11341WAT      O34264   7.286   1.926   2.950
11341WAT     H134265   7.197   1.904   2.911
11341WAT     H234266   7.303   1.867   3.029
11342WAT      O34267   4.655   3.522   1.535
11342WAT     H134268   4.614   3.575   1.609
11342WAT     H234269   4.600   3.533   1.452
11343WAT      O34270   7.249   8.052   2.613
11343WAT     H134271   7.226   8.001   2.697
11343WAT     H234272   7.230   7.995   2.533
11344WAT      O34273   3.685   6.820   7.495
11344WAT     H134274   3.692   6.728   7.535
11344WAT     H234275   3.614   6.821   7.426
11345WAT      O34276   0.214   0.200   5.784
11345WAT     H134277   0.218   0.160   5.876
11345WAT     H234278   0.288   0.162   5.728
11346WAT      O34279   1.287   4.504   1.005
11346WAT     H134280   1.377   4.529   0.970
11346WAT     H234281   1.288   4.408   1.033
11347WAT      O34282   6.674   3.577   0.159
11347WAT     H134283   6.616   3.652   0.193
11347WAT     H234284   6.618   3.494   0.151
11348WAT      O34285   7.098   3.171   7.852
11348WAT     H134286   7.119   3.251   7.908
11348WAT     H234287   7.178   3.147   7.797
11349WAT      O34288   6.814   0.011   0.694
11349WAT     H134289   6.896   0.035   0.746
11349WAT     H234290   6.835  -0.063   0.630
11350WAT      O34291   3.462   3.293   6.043
11350WAT     H134292   3.487   3.372   5.988
11350WAT     H234293   3.371   3.307   6.082
11351WAT      O34294   3.143   9.368   1.397
11351WAT     H134295   3.101   9.459   1.399
11351WAT     H234296   3.185   9.349   1.486
11352WAT      O34297   8.264   2.043   8.655
11352WAT     H134298   8.209   1.987   8.716
11352WAT     H234299   8.239   2.139   8.666
11353WAT      O34300   7.933   9.100   4.757
11353WAT     H134301   7.908   9.141   4.669
11353WAT     H234302   7.854   9.052   4.795
11354WAT      O34303   1.042   3.113   1.477
11354WAT     H134304   1.133   3.118   1.518
11354WAT     H234305   1.009   3.206   1.458
11355WAT      O34306   5.619   1.993   7.506
11355WAT     H134307   5.680   1.916   7.524
11355WAT     H234308   5.635   2.064   7.575
11356WAT      O34309   7.391   8.593   7.805
11356WAT     H134310   7.478   8.622   7.844
11356WAT     H234311   7.368   8.652   7.727
11357WAT      O34312   2.384   4.421   0.468
11357WAT     H134313   2.424   4.513   0.472
11357WAT     H234314   2.457   4.353   0.465
11358WAT      O34315   0.031   9.180   3.950
11358WAT     H134316   0.032   9.230   4.037
11358WAT     H234317   0.113   9.124   3.942
11359WAT      O34318   7.379   6.960   4.177
11359WAT     H134319   7.292   6.999   4.147
11359WAT     H234320   7.385   6.865   4.149
11360WAT      O34321   0.561   0.869   0.957
11360WAT     H134322   0.557   0.967   0.975
11360WAT     H234323   0.471   0.828   0.972
11361WAT      O34324   1.723   7.819   5.198
11361WAT     H134325   1.634   7.780   5.177
11361WAT     H234326   1.761   7.776   5.280
11362WAT      O34327   5.959   8.058   6.023
11362WAT     H134328   5.952   8.146   6.071
11362WAT     H234329   5.890   7.995   6.058
11363WAT      O34330   7.924   6.067   4.025
11363WAT     H134331   7.904   6.089   3.930
11363WAT     H234332   7.855   6.108   4.084
11364WAT      O34333   8.948   9.741   9.709
11364WAT     H134334   8.935   9.683   9.629
11364WAT     H234335   8.899   9.702   9.787
11365WAT      O34336   8.841   0.505   0.319
11365WAT     H134337   8.827   0.474   0.413
11365WAT     H234338   8.938   0.523   0.304
11366WAT      O34339   5.277   5.020   9.822
11366WAT     H134340   5.321   5.087   9.882
11366WAT     H234341   5.183   5.005   9.851
11367WAT      O34342   4.212   2.073   5.875
11367WAT     H134343   4.148   2.003   5.906
11367WAT     H234344   4.181   2.163   5.907
11368WAT      O34345   2.186   6.046   9.685
11368WAT     H134346   2.104   6.006   9.643
11368WAT     H234347   2.174   6.051   9.784
11369WAT      O34348   7.315   7.056   3.172
11369WAT     H134349   7.393   7.061   3.109
11369WAT     H234350   7.282   7.148   3.192
11370WAT      O34351   1.507   8.142   1.748
11370WAT     H134352   1.557   8.129   1.834
11370WAT     H234353   1.561   8.108   1.672
11371WAT      O34354   0.359   1.191   9.839
11371WAT     H134355   0.450   1.226   9.861
11371WAT     H234356   0.365   1.130   9.760
11372WAT      O34357   3.556   0.468   5.208
11372WAT     H134358   3.593   0.529   5.138
11372WAT     H234359   3.468   0.503   5.240
11373WAT      O34360   5.774   5.577   8.663
11373WAT     H134361   5.830   5.495   8.652
11373WAT     H234362   5.784   5.635   8.582
11374WAT      O34363   7.220   7.125   7.418
11374WAT     H134364   7.166   7.104   7.336
11374WAT     H234365   7.243   7.222   7.419
11375WAT      O34366   5.188   2.270   4.427
11375WAT     H134367   5.214   2.356   4.472
11375WAT     H234368   5.270   2.218   4.405
11376WAT      O34369   4.458   6.357   3.509
11376WAT     H134370   4.468   6.448   3.550
11376WAT     H234371   4.460   6.364   3.409
11377WAT      O34372   3.852   6.732   2.448
11377WAT     H134373   3.870   6.646   2.496
11377WAT     H234374   3.910   6.804   2.486
11378WAT      O34375   4.550   6.678   7.332
11378WAT     H134376   4.612   6.757   7.328
11378WAT     H234377   4.462   6.703   7.292
11379WAT      O34378   9.041   3.863   3.253
11379WAT     H134379   9.087   3.949   3.272
11379WAT     H234380   8.943   3.881   3.237
11380WAT      O34381   0.215   7.054   9.060
11380WAT     H134382   0.202   7.099   8.972
11380WAT     H234383   0.243   7.122   9.128
11381WAT      O34384   2.082   4.100   5.930
11381WAT     H134385   2.125   4.163   5.995
11381WAT     H234386   2.053   4.017   5.978
11382WAT      O34387   5.332   0.620   0.928
11382WAT     H134388   5.413   0.596   0.874
11382WAT     H234389   5.273   0.540   0.937
11383WAT      O34390   4.488   8.472   3.340
11383WAT     H134391   4.580   8.465   3.378
11383WAT     H234392   4.493   8.490   3.242
11384WAT      O34393   9.475   2.685   5.097
11384WAT     H134394   9.503   2.589   5.096
11384WAT     H234395   9.552   2.742   5.066
11385WAT      O34396   4.453   1.526   8.708
11385WAT     H134397   4.379   1.573   8.659
11385WAT     H234398   4.425   1.433   8.729
11386WAT      O34399   8.827   0.128   9.600
11386WAT     H134400   8.869   0.052   9.649
11386WAT     H234401   8.731   0.135   9.626
11387WAT      O34402   7.006   9.380   8.381
11387WAT     H134403   7.049   9.370   8.471
11387WAT     H234404   6.963   9.469   8.374
11388WAT      O34405   0.647   6.893   6.288
11388WAT     H134406   0.704   6.881   6.369
11388WAT     H234407   0.705   6.917   6.209
11389WAT      O34408   1.927   7.538   5.921
11389WAT     H134409   2.023   7.524   5.947
11389WAT     H234410   1.910   7.498   5.831
11390WAT      O34411   1.666   5.745   9.889
11390WAT     H134412   1.728   5.687   9.838
11390WAT     H234413   1.706   5.766   9.979
11391WAT      O34414   5.505   7.556   6.657
11391WAT     H134415   5.565   7.492   6.705
11391WAT     H234416   5.491   7.525   6.563
11392WAT      O34417   8.891   5.223   5.000
11392WAT     H134418   8.835   5.286   4.948
11392WAT     H234419   8.988   5.247   4.990
11393WAT      O34420   1.118   9.076   2.603
11393WAT     H134421   1.204   9.105   2.561
11393WAT     H234422   1.136   9.047   2.698
11394WAT      O34423   6.569   6.762   3.408
11394WAT     H134424   6.572   6.746   3.507
11394WAT     H234425   6.592   6.678   3.359
11395WAT      O34426   1.868   5.095   7.033
11395WAT     H134427   1.959   5.125   7.061
11395WAT     H234428   1.876   5.021   6.966
11396WAT      O34429   1.728   0.857   3.858
11396WAT     H134430   1.687   0.788   3.798
11396WAT     H234431   1.817   0.884   3.821
11397WAT      O34432   8.968   1.395   2.414
11397WAT     H134433   9.067   1.409   2.420
11397WAT     H234434   8.945   1.359   2.324
11398WAT      O34435   5.512   8.413   3.837
11398WAT     H134436   5.587   8.378   3.893
11398WAT     H234437   5.547   8.479   3.771
11399WAT      O34438   7.550   7.675   3.470
11399WAT     H134439   7.470   7.617   3.483
11399WAT     H234440   7.630   7.632   3.513
11400WAT      O34441   9.362   6.614   8.505
11400WAT     H134442   9.404   6.632   8.595
11400WAT     H234443   9.360   6.515   8.489
11401WAT      O34444   8.943   8.393   3.556
11401WAT     H134445   9.018   8.329   3.539
11401WAT     H234446   8.907   8.426   3.468
11402WAT      O34447   4.368   8.591   0.451
11402WAT     H134448   4.389   8.519   0.517
11402WAT     H234449   4.329   8.670   0.499
11403WAT      O34450   8.483   4.805   4.190
11403WAT     H134451   8.509   4.885   4.244
11403WAT     H234452   8.565   4.754   4.165
11404WAT      O34453   4.192   5.580   0.554
11404WAT     H134454   4.105   5.570   0.603
11404WAT     H234455   4.259   5.516   0.591
11405WAT      O34456   0.117   2.464   6.573
11405WAT     H134457   0.154   2.423   6.490
11405WAT     H234458   0.190   2.476   6.640
11406WAT      O34459   5.193   5.652   2.442
11406WAT     H134460   5.181   5.681   2.347
11406WAT     H234461   5.280   5.603   2.451
11407WAT      O34462   6.492   5.949   5.535
11407WAT     H134463   6.422   5.983   5.472
11407WAT     H234464   6.449   5.889   5.603
11408WAT      O34465   9.248   9.794   1.555
11408WAT     H134466   9.261   9.773   1.652
11408WAT     H234467   9.260   9.710   1.502
11409WAT      O34468   2.896   1.814   4.103
11409WAT     H134469   2.866   1.909   4.102
11409WAT     H234470   2.862   1.770   4.187
11410WAT      O34471   7.313   1.371   8.965
11410WAT     H134472   7.309   1.304   8.891
11410WAT     H234473   7.220   1.394   8.995
11411WAT      O34474   0.492   8.457   1.544
11411WAT     H134475   0.455   8.367   1.566
11411WAT     H234476   0.592   8.453   1.541
11412WAT      O34477   8.236   1.231   1.409
11412WAT     H134478   8.255   1.218   1.506
11412WAT     H234479   8.137   1.242   1.396
11413WAT      O34480   4.042   6.556   9.015
11413WAT     H134481   4.141   6.562   9.025
11413WAT     H234482   4.019   6.490   8.944
11414WAT      O34483   9.847   6.570   6.714
11414WAT     H134484   9.926   6.627   6.693
11414WAT     H234485   9.870   6.474   6.698
11415WAT      O34486   5.709   9.385   9.574
11415WAT     H134487   5.716   9.333   9.659
11415WAT     H234488   5.656   9.468   9.590
11416WAT      O34489   2.654   8.996   1.688
11416WAT     H134490   2.746   9.035   1.677
11416WAT     H234491   2.658   8.897   1.676
11417WAT      O34492   5.982   3.400   6.467
11417WAT     H134493   6.072   3.369   6.437
11417WAT     H234494   5.912   3.357   6.411
11418WAT      O34495   8.028   8.997   0.167
11418WAT     H134496   7.961   9.049   0.220
11418WAT     H234497   8.057   8.917   0.220
11419WAT      O34498   8.937   7.455   0.412
11419WAT     H134499   8.871   7.501   0.352
11419WAT     H234500   8.892   7.380   0.460
11420WAT      O34501   1.612   7.881   1.989
11420WAT     H134502   1.630   7.874   2.087
11420WAT     H234503   1.553   7.805   1.960
11421WAT      O34504   6.015   1.923   4.861
11421WAT     H134505   6.058   1.963   4.779
11421WAT     H234506   6.038   1.826   4.866
11422WAT      O34507   0.454   6.095   7.687
11422WAT     H134508   0.461   6.122   7.591
11422WAT     H234509   0.523   6.025   7.707
11423WAT      O34510   7.557   6.369   2.270
11423WAT     H134511   7.600   6.410   2.351
11423WAT     H234512   7.586   6.418   2.188
11424WAT      O34513   8.386   1.272   1.695
11424WAT     H134514   8.405   1.354   1.749
11424WAT     H234515   8.380   1.193   1.756
11425WAT      O34516   3.697   9.530   4.769
11425WAT     H134517   3.675   9.457   4.703
11425WAT     H234518   3.781   9.506   4.818
11426WAT      O34519   9.751   1.328   4.486
11426WAT     H134520   9.770   1.423   4.461
11426WAT     H234521   9.789   1.309   4.576
11427WAT      O34522   5.244   7.458   2.786
11427WAT     H134523   5.244   7.553   2.754
11427WAT     H234524   5.330   7.438   2.832
11428WAT      O34525   3.570   5.761   9.810
11428WAT     H134526   3.526   5.795   9.727
11428WAT     H234527   3.502   5.755   9.884
11429WAT      O34528   8.756   5.649   5.422
11429WAT     H134529   8.721   5.666   5.330
11429WAT     H234530   8.702   5.577   5.466
11430WAT      O34531   2.764   2.353   4.036
11430WAT     H134532   2.684   2.313   4.081
11430WAT     H234533   2.846   2.328   4.087
11431WAT      O34534   9.491   8.469   7.206
11431WAT     H134535   9.436   8.531   7.263
11431WAT     H234536   9.588   8.483   7.226
11432WAT      O34537   7.267   0.791   3.691
11432WAT     H134538   7.220   0.708   3.662
11432WAT     H234539   7.250   0.864   3.625
11433WAT      O34540   5.973   5.113   5.411
11433WAT     H134541   5.971   5.121   5.312
11433WAT     H234542   5.884   5.140   5.448
11434WAT      O34543   4.287   6.426   0.504
11434WAT     H134544   4.297   6.327   0.517
11434WAT     H234545   4.326   6.474   0.583
11435WAT      O34546   0.830   5.829   2.814
11435WAT     H134547   0.834   5.816   2.913
11435WAT     H234548   0.863   5.921   2.790
11436WAT      O34549   7.391   5.429   6.323
11436WAT     H134550   7.380   5.525   6.297
11436WAT     H234551   7.314   5.401   6.381
11437WAT      O34552   3.077   0.325   3.734
11437WAT     H134553   3.001   0.315   3.670
11437WAT     H234554   3.075   0.250   3.800
11438WAT      O34555   9.128   1.411   3.406
11438WAT     H134556   9.217   1.452   3.426
11438WAT     H234557   9.056   1.477   3.425
11439WAT      O34558   3.098   6.299   3.327
11439WAT     H134559   3.163   6.305   3.403
11439WAT     H234560   3.098   6.385   3.277
11440WAT      O34561   8.965   8.043   8.269
11440WAT     H134562   8.873   8.018   8.299
11440WAT     H234563   8.960   8.122   8.208
11441WAT      O34564   2.818   7.780   1.738
11441WAT     H134565   2.838   7.797   1.641
11441WAT     H234566   2.903   7.780   1.790
11442WAT      O34567   9.537   3.914   7.756
11442WAT     H134568   9.527   3.882   7.851
11442WAT     H234569   9.613   3.866   7.713
11443WAT      O34570   5.250   5.364   1.022
11443WAT     H134571   5.321   5.352   1.092
11443WAT     H234572   5.293   5.378   0.933
11444WAT      O34573   9.461   3.130   1.743
11444WAT     H134574   9.491   3.034   1.743
11444WAT     H234575   9.387   3.142   1.677
11445WAT      O34576   6.778   0.153   4.088
11445WAT     H134577   6.748   0.248   4.085
11445WAT     H234578   6.876   0.149   4.106
11446WAT      O34579   1.392   6.274   5.461
11446WAT     H134580   1.316   6.269   5.526
11446WAT     H234581   1.386   6.360   5.409
11447WAT      O34582   8.873   7.773   9.319
11447WAT     H134583   8.788   7.782   9.267
11447WAT     H234584   8.894   7.676   9.332
11448WAT      O34585   0.188   7.407   3.912
11448WAT     H134586   0.244   7.483   3.878
11448WAT     H234587   0.100   7.442   3.944
11449WAT      O34588   6.577   1.589   7.756
11449WAT     H134589   6.550   1.521   7.687
11449WAT     H234590   6.575   1.547   7.847
11450WAT      O34591   3.427   1.483   7.170
11450WAT     H134592   3.506   1.454   7.224
11450WAT     H234593   3.441   1.575   7.135
11451WAT      O34594   2.524   2.449   7.766
11451WAT     H134595   2.493   2.425   7.857
11451WAT     H234596   2.450   2.431   7.700
11452WAT      O34597   2.112   6.294   8.381
11452WAT     H134598   2.094   6.373   8.322
11452WAT     H234599   2.144   6.327   8.470
11453WAT      O34600   3.282   1.923   7.857
11453WAT     H134601   3.239   1.836   7.837
11453WAT     H234602   3.372   1.907   7.898
11454WAT      O34603   4.396   0.046   7.043
11454WAT     H134604   4.320  -0.019   7.047
11454WAT     H234605   4.359   0.138   7.029
11455WAT      O34606   1.654   2.680   1.023
11455WAT     H134607   1.589   2.604   1.025
11455WAT     H234608   1.608   2.764   1.054
11456WAT      O34609   0.452   2.461   3.080
11456WAT     H134610   0.457   2.423   2.987
11456WAT     H234611   0.404   2.397   3.140
11457WAT      O34612   1.987   5.419   2.306
11457WAT     H134613   1.965   5.429   2.403
11457WAT     H234614   2.078   5.379   2.296
11458WAT      O34615   9.032   5.909   2.460
11458WAT     H134616   9.034   5.843   2.535
11458WAT     H234617   8.938   5.926   2.433
11459WAT      O34618   6.964   5.008   4.330
11459WAT     H134619   6.995   5.004   4.236
11459WAT     H234620   6.978   5.099   4.367
11460WAT      O34621   5.298   3.807   9.428
11460WAT     H134622   5.315   3.808   9.329
11460WAT     H234623   5.201   3.791   9.444
11461WAT      O34624   0.294   6.005   8.346
11461WAT     H134625   0.291   6.089   8.401
11461WAT     H234626   0.375   6.007   8.287
11462WAT      O34627   8.814   7.161   5.474
11462WAT     H134628   8.768   7.105   5.543
11462WAT     H234629   8.845   7.247   5.516
11463WAT      O34630   0.548   2.282   7.854
11463WAT     H134631   0.637   2.307   7.815
11463WAT     H234632   0.480   2.276   7.782
11464WAT      O34633   6.115   1.154   1.831
11464WAT     H134634   6.202   1.125   1.793
11464WAT     H234635   6.127   1.239   1.882
11465WAT      O34636   6.483   2.883   0.298
11465WAT     H134637   6.439   2.971   0.317
11465WAT     H234638   6.446   2.813   0.359
11466WAT      O34639   9.801   8.561   4.106
11466WAT     H134640   9.857   8.640   4.130
11466WAT     H234641   9.826   8.484   4.164
11467WAT      O34642   2.739   9.701   5.866
11467WAT     H134643   2.821   9.647   5.887
11467WAT     H234644   2.729   9.775   5.932
11468WAT      O34645   3.364   8.093   8.111
11468WAT     H134646   3.315   8.176   8.136
11468WAT     H234647   3.317   8.014   8.150
11469WAT      O34648   7.101   2.027   1.216
11469WAT     H134649   7.142   2.065   1.298
11469WAT     H234650   7.102   1.927   1.221
11470WAT      O34651   5.319   8.886   7.438
11470WAT     H134652   5.310   8.984   7.457
11470WAT     H234653   5.373   8.842   7.509
11471WAT      O34654   4.786   7.212   1.633
11471WAT     H134655   4.826   7.299   1.606
11471WAT     H234656   4.789   7.203   1.732
11472WAT      O34657   8.173   7.473   3.858
11472WAT     H134658   8.249   7.480   3.923
11472WAT     H234659   8.089   7.504   3.902
11473WAT      O34660   2.636   2.793   4.494
11473WAT     H134661   2.684   2.877   4.519
11473WAT     H234662   2.660   2.766   4.401
11474WAT      O34663   9.035   0.094   5.196
11474WAT     H134664   9.071   0.184   5.219
11474WAT     H234665   9.105   0.025   5.215
11475WAT      O34666   1.203   6.652   5.308
11475WAT     H134667   1.287   6.598   5.311
11475WAT     H234668   1.129   6.596   5.272
11476WAT      O34669   4.713   8.458   3.524
11476WAT     H134670   4.720   8.552   3.559
11476WAT     H234671   4.790   8.404   3.558
11477WAT      O34672   1.514   8.178   4.863
11477WAT     H134673   1.562   8.192   4.776
11477WAT     H234674   1.497   8.267   4.907
11478WAT      O34675   1.265   5.230   0.761
11478WAT     H134676   1.252   5.274   0.672
11478WAT     H234677   1.341   5.273   0.809
11479WAT      O34678   9.052   3.101   8.701
11479WAT     H134679   9.040   3.013   8.656
11479WAT     H234680   9.005   3.172   8.648
11480WAT      O34681   3.589   7.698   9.858
11480WAT     H134682   3.643   7.661   9.783
11480WAT     H234683   3.492   7.693   9.835
11481WAT      O34684   3.007   8.482   1.083
11481WAT     H134685   2.982   8.415   1.013
11481WAT     H234686   3.070   8.549   1.044
11482WAT      O34687   4.629   6.042   7.573
11482WAT     H134688   4.726   6.032   7.551
11482WAT     H234689   4.598   6.132   7.542
11483WAT      O34690   0.197   0.651   5.902
11483WAT     H134691   0.223   0.570   5.851
11483WAT     H234692   0.243   0.731   5.864
11484WAT      O34693   0.410   2.346   9.885
11484WAT     H134694   0.318   2.338   9.847
11484WAT     H234695   0.415   2.426   9.944
11485WAT      O34696   9.250   3.487   4.801
11485WAT     H134697   9.343   3.512   4.829
11485WAT     H234698   9.249   3.467   4.703
11486WAT      O34699   0.410   8.871   2.612
11486WAT     H134700   0.394   8.815   2.693
11486WAT     H234701   0.508   8.888   2.601
11487WAT      O34702   6.650   5.317   6.807
11487WAT     H134703   6.645   5.388   6.737
11487WAT     H234704   6.683   5.357   6.893
11488WAT      O34705   5.155   4.925   8.524
11488WAT     H134706   5.170   4.882   8.613
11488WAT     H234707   5.233   4.982   8.500
11489WAT      O34708   2.467   7.979   2.038
11489WAT     H134709   2.498   7.941   2.125
11489WAT     H234710   2.373   8.012   2.048
11490WAT      O34711   7.472   4.091   7.416
11490WAT     H134712   7.532   4.146   7.474
11490WAT     H234713   7.381   4.087   7.456
11491WAT      O34714   6.977   7.537   7.046
11491WAT     H134715   6.890   7.515   7.001
11491WAT     H234716   7.051   7.488   7.000
11492WAT      O34717   0.536   9.454   4.216
11492WAT     H134718   0.450   9.423   4.175
11492WAT     H234719   0.519   9.482   4.311
11493WAT      O34720   8.201   9.047   7.958
11493WAT     H134721   8.292   9.051   8.000
11493WAT     H234722   8.210   9.037   7.859
11494WAT      O34723   3.388   9.173   7.491
11494WAT     H134724   3.350   9.263   7.470
11494WAT     H234725   3.486   9.180   7.508
11495WAT      O34726   4.283   0.185   6.025
11495WAT     H134727   4.252   0.223   5.937
11495WAT     H234728   4.357   0.119   6.008
11496WAT      O34729   0.151   4.722   4.776
11496WAT     H134730   0.205   4.672   4.844
11496WAT     H234731   0.093   4.789   4.823
11497WAT      O34732   1.510   4.419   8.114
11497WAT     H134733   1.571   4.343   8.139
11497WAT     H234734   1.506   4.426   8.014
11498WAT      O34735   6.540   1.847   3.431
11498WAT     H134736   6.560   1.920   3.496
11498WAT     H234737   6.464   1.874   3.372
11499WAT      O34738   6.280   8.557   1.631
11499WAT     H134739   6.307   8.462   1.615
11499WAT     H234740   6.349   8.603   1.687
11500WAT      O34741   3.348   7.189   2.288
11500WAT     H134742   3.332   7.285   2.310
11500WAT     H234743   3.268   7.150   2.244
11501WAT      O34744   8.442   9.004   1.857
11501WAT     H134745   8.393   9.041   1.936
11501WAT     H234746   8.430   9.066   1.779
11502WAT      O34747   5.258   4.822   8.076
11502WAT     H134748   5.294   4.785   8.161
11502WAT     H234749   5.159   4.835   8.084
11503WAT      O34750   9.348   6.861   2.818
11503WAT     H134751   9.336   6.798   2.741
11503WAT     H234752   9.261   6.905   2.839
11504WAT      O34753   9.363   1.904   4.751
11504WAT     H134754   9.422   1.984   4.763
11504WAT     H234755   9.419   1.825   4.725
11505WAT      O34756   8.129   6.793   2.461
11505WAT     H134757   8.056   6.841   2.510
11505WAT     H234758   8.200   6.766   2.526
11506WAT      O34759   4.139   8.863   9.407
11506WAT     H134760   4.110   8.925   9.334
11506WAT     H234761   4.088   8.883   9.490
11507WAT      O34762   0.630   4.574   9.595
11507WAT     H134763   0.547   4.563   9.649
11507WAT     H234764   0.710   4.568   9.654
11508WAT      O34765   0.017   1.390   9.719
11508WAT     H134766   0.076   1.466   9.748
11508WAT     H234767  -0.072   1.426   9.691
11509WAT      O34768   4.362   0.834   4.903
11509WAT     H134769   4.414   0.791   4.977
11509WAT     H234770   4.418   0.835   4.819
11510WAT      O34771   4.018   4.458   2.582
11510WAT     H134772   4.116   4.464   2.597
11510WAT     H234773   3.992   4.364   2.562
11511WAT      O34774   3.849   5.681   1.104
11511WAT     H134775   3.872   5.774   1.135
11511WAT     H234776   3.899   5.662   1.019
11512WAT      O34777   3.952   4.539   2.180
11512WAT     H134778   3.977   4.585   2.265
11512WAT     H234779   3.959   4.440   2.193
11513WAT      O34780   5.772   2.754   6.796
11513WAT     H134781   5.693   2.700   6.765
11513WAT     H234782   5.748   2.806   6.877
11514WAT      O34783   5.470   3.159   5.078
11514WAT     H134784   5.374   3.173   5.100
11514WAT     H234785   5.501   3.072   5.116
11515WAT      O34786   1.573   4.673   2.239
11515WAT     H134787   1.559   4.575   2.229
11515WAT     H234788   1.484   4.719   2.248
11516WAT      O34789   7.230   3.960   0.506
11516WAT     H134790   7.224   3.887   0.574
11516WAT     H234791   7.296   4.029   0.537
11517WAT      O34792   5.344   5.660   5.673
11517WAT     H134793   5.312   5.609   5.753
11517WAT     H234794   5.277   5.651   5.599
11518WAT      O34795   2.493   5.039   9.004
11518WAT     H134796   2.469   4.965   9.066
11518WAT     H234797   2.492   5.126   9.053
11519WAT      O34798   5.315   4.675   9.285
11519WAT     H134799   5.264   4.605   9.335
11519WAT     H234800   5.365   4.732   9.350
11520WAT      O34801   8.826   0.124   0.792
11520WAT     H134802   8.831   0.217   0.828
11520WAT     H234803   8.810   0.060   0.867
11521WAT      O34804   9.386   9.494   0.612
11521WAT     H134805   9.474   9.447   0.610
11521WAT     H234806   9.383   9.557   0.689
11522WAT      O34807   4.865   0.057   0.204
11522WAT     H134808   4.910  -0.002   0.271
11522WAT     H234809   4.918   0.057   0.119
11523WAT      O34810   5.248   3.118   7.062
11523WAT     H134811   5.314   3.169   7.007
11523WAT     H234812   5.280   3.024   7.072
11524WAT      O34813   8.400   7.160   6.391
11524WAT     H134814   8.470   7.229   6.412
11524WAT     H234815   8.318   7.179   6.445
11525WAT      O34816   6.914   0.611   7.647
11525WAT     H134817   6.959   0.664   7.719
11525WAT     H234818   6.820   0.643   7.636
11526WAT      O34819   1.304   1.539   7.646
11526WAT     H134820   1.398   1.573   7.640
11526WAT     H234821   1.305   1.440   7.661
11527WAT      O34822   7.518   3.977   6.716
11527WAT     H134823   7.444   4.041   6.694
11527WAT     H234824   7.567   3.953   6.632
11528WAT      O34825   8.413   8.040   4.024
11528WAT     H134826   8.484   8.109   4.043
11528WAT     H234827   8.438   7.954   4.068
11529WAT      O34828   5.208   0.186   2.709
11529WAT     H134829   5.297   0.161   2.671
11529WAT     H234830   5.136   0.153   2.647
11530WAT      O34831   6.544   4.944   9.712
11530WAT     H134832   6.541   4.896   9.800
11530WAT     H234833   6.635   4.934   9.672
11531WAT      O34834   0.596   1.737   2.710
11531WAT     H134835   0.664   1.664   2.719
11531WAT     H234836   0.508   1.698   2.685
11532WAT      O34837   6.389   3.842   9.633
11532WAT     H134838   6.318   3.861   9.566
11532WAT     H234839   6.372   3.894   9.716
11533WAT      O34840   1.160   0.008   5.668
11533WAT     H134841   1.195   0.100   5.654
11533WAT     H234842   1.060   0.011   5.675
11534WAT      O34843   2.584   9.302   3.209
11534WAT     H134844   2.597   9.326   3.306
11534WAT     H234845   2.537   9.376   3.162
11535WAT      O34846   9.708   8.480   7.558
11535WAT     H134847   9.635   8.457   7.622
11535WAT     H234848   9.791   8.430   7.584
11536WAT      O34849   7.930   6.107   6.614
11536WAT     H134850   7.949   6.011   6.634
11536WAT     H234851   8.015   6.159   6.617
11537WAT      O34852   8.346   5.369   7.117
11537WAT     H134853   8.284   5.305   7.072
11537WAT     H234854   8.298   5.455   7.136
11538WAT      O34855   4.444   6.579   2.773
11538WAT     H134856   4.353   6.581   2.814
11538WAT     H234857   4.482   6.672   2.772
11539WAT      O34858   3.301   5.856   3.070
11539WAT     H134859   3.308   5.956   3.074
11539WAT     H234860   3.263   5.823   3.157
11540WAT      O34861   5.858   5.986   9.174
11540WAT     H134862   5.872   6.045   9.253
11540WAT     H234863   5.760   5.972   9.159
11541WAT      O34864   4.011   7.034   3.155
11541WAT     H134865   3.993   7.006   3.061
11541WAT     H234866   4.103   7.073   3.162
11542WAT      O34867   8.321   3.257   3.800
11542WAT     H134868   8.319   3.224   3.706
11542WAT     H234869   8.274   3.192   3.859
11543WAT      O34870   3.083   2.517   8.617
11543WAT     H134871   3.058   2.421   8.602
11543WAT     H234872   3.009   2.576   8.585
11544WAT      O34873   9.427   5.443   2.153
11544WAT     H134874   9.369   5.416   2.076
11544WAT     H234875   9.416   5.541   2.170
11545WAT      O34876   0.084   1.113   0.644
11545WAT     H134877   0.089   1.137   0.740
11545WAT     H234878   0.012   1.043   0.631
11546WAT      O34879   4.829   8.478   7.536
11546WAT     H134880   4.809   8.392   7.490
11546WAT     H234881   4.851   8.461   7.632
11547WAT      O34882   9.541   7.270   7.786
11547WAT     H134883   9.619   7.215   7.816
11547WAT     H234884   9.461   7.245   7.840
11548WAT      O34885   3.478   2.166   7.960
11548WAT     H134886   3.496   2.070   7.942
11548WAT     H234887   3.445   2.210   7.876
11549WAT      O34888   4.027   8.322   6.523
11549WAT     H134889   3.950   8.282   6.474
11549WAT     H234890   4.039   8.417   6.494
11550WAT      O34891   5.475   6.294   8.032
11550WAT     H134892   5.428   6.380   8.015
11550WAT     H234893   5.430   6.244   8.106
11551WAT      O34894   4.208   1.023   7.963
11551WAT     H134895   4.270   0.946   7.976
11551WAT     H234896   4.259   1.101   7.926
11552WAT      O34897   3.275   9.317   2.556
11552WAT     H134898   3.261   9.227   2.598
11552WAT     H234899   3.359   9.316   2.502
11553WAT      O34900   4.506   7.592   5.263
11553WAT     H134901   4.591   7.595   5.315
11553WAT     H234902   4.433   7.556   5.322
11554WAT      O34903   5.083   2.455   1.003
11554WAT     H134904   4.998   2.505   0.988
11554WAT     H234905   5.083   2.416   1.095
11555WAT      O34906   2.299   2.268   2.620
11555WAT     H134907   2.378   2.254   2.680
11555WAT     H234908   2.217   2.233   2.664
11556WAT      O34909   9.018   2.854   0.322
11556WAT     H134910   9.106   2.842   0.275
11556WAT     H234911   9.004   2.778   0.385
11557WAT      O34912   1.229   9.156   3.937
11557WAT     H134913   1.244   9.255   3.934
11557WAT     H234914   1.229   9.119   3.844
11558WAT      O34915   4.990   1.886   1.669
11558WAT     H134916   4.944   1.875   1.581
11558WAT     H234917   4.939   1.950   1.725
11559WAT      O34918   8.323   9.400   0.924
11559WAT     H134919   8.377   9.483   0.908
11559WAT     H234920   8.342   9.365   1.015
11560WAT      O34921   8.412   4.665   7.374
11560WAT     H134922   8.404   4.583   7.430
11560WAT     H234923   8.426   4.744   7.432
11561WAT      O34924   2.256   2.559   2.562
11561WAT     H134925   2.222   2.599   2.647
11561WAT     H234926   2.313   2.479   2.584
11562WAT      O34927   6.549   8.757   3.797
11562WAT     H134928   6.588   8.794   3.881
11562WAT     H234929   6.588   8.667   3.779
11563WAT      O34930   5.488   0.064   0.717
11563WAT     H134931   5.568   0.077   0.658
11563WAT     H234932   5.404   0.080   0.664
11564WAT      O34933   1.424   4.642   3.214
11564WAT     H134934   1.438   4.635   3.313
11564WAT     H234935   1.446   4.735   3.185
11565WAT      O34936   7.456   1.974   8.393
11565WAT     H134937   7.359   1.995   8.377
11565WAT     H234938   7.480   1.996   8.487
11566WAT      O34939   0.030   4.652   6.178
11566WAT     H134940   0.014   4.572   6.236
11566WAT     H234941   0.012   4.628   6.083
11567WAT      O34942   6.328   8.546   1.185
11567WAT     H134943   6.396   8.601   1.233
11567WAT     H234944   6.249   8.603   1.162
11568WAT      O34945   2.469   0.362   6.849
11568WAT     H134946   2.384   0.336   6.894
11568WAT     H234947   2.448   0.399   6.758
11569WAT      O34948   7.422   4.289   6.216
11569WAT     H134949   7.393   4.225   6.287
11569WAT     H234950   7.396   4.253   6.126
11570WAT      O34951   8.006   6.793   2.039
11570WAT     H134952   7.922   6.821   1.993
11570WAT     H234953   8.080   6.856   2.014
11571WAT      O34954   3.522   0.021   0.766
11571WAT     H134955   3.491  -0.045   0.698
11571WAT     H234956   3.620   0.035   0.757
11572WAT      O34957   9.176   4.852   5.751
11572WAT     H134958   9.196   4.898   5.837
11572WAT     H234959   9.249   4.871   5.685
11573WAT      O34960   7.151   0.131   2.019
11573WAT     H134961   7.201   0.155   2.102
11573WAT     H234962   7.212   0.085   1.955
11574WAT      O34963   8.212   6.499   2.974
11574WAT     H134964   8.134   6.439   2.985
11574WAT     H234965   8.291   6.462   3.023
11575WAT      O34966   4.744   7.815   2.100
11575WAT     H134967   4.811   7.757   2.054
11575WAT     H234968   4.711   7.885   2.036
11576WAT      O34969   6.795   0.886   6.911
11576WAT     H134970   6.858   0.934   6.972
11576WAT     H234971   6.764   0.802   6.955
11577WAT      O34972   9.441   3.962   8.248
11577WAT     H134973   9.485   3.907   8.319
11577WAT     H234974   9.343   3.945   8.249
11578WAT      O34975   1.400   1.179   9.824
11578WAT     H134976   1.329   1.235   9.867
11578WAT     H234977   1.443   1.232   9.750
11579WAT      O34978   8.885   1.837   6.319
11579WAT     H134979   8.902   1.835   6.220
11579WAT     H234980   8.956   1.785   6.366
11580WAT      O34981   9.618   9.268   3.491
11580WAT     H134982   9.564   9.219   3.423
11580WAT     H234983   9.615   9.219   3.578
11581WAT      O34984   4.706   1.311   7.265
11581WAT     H134985   4.607   1.297   7.253
11581WAT     H234986   4.749   1.223   7.287
11582WAT      O34987   1.616   1.182   3.721
11582WAT     H134988   1.609   1.135   3.809
11582WAT     H234989   1.689   1.250   3.725
11583WAT      O34990   8.412   3.479   9.006
11583WAT     H134991   8.478   3.413   9.043
11583WAT     H234992   8.323   3.434   8.994
11584WAT      O34993   6.385   5.723   9.237
11584WAT     H134994   6.420   5.809   9.274
11584WAT     H234995   6.285   5.722   9.244
11585WAT      O34996   9.141   7.955   1.474
11585WAT     H134997   9.123   8.035   1.416
11585WAT     H234998   9.073   7.951   1.547
11586WAT      O34999   2.785   6.416   8.021
11586WAT     H135000   2.717   6.444   7.953
11586WAT     H235001   2.741   6.361   8.091
11587WAT      O35002   8.275   0.649   7.648
11587WAT     H135003   8.325   0.709   7.711
11587WAT     H235004   8.178   0.670   7.652
11588WAT      O35005   3.656   7.065   1.241
11588WAT     H135006   3.745   7.110   1.231
11588WAT     H235007   3.613   7.095   1.327
11589WAT      O35008   4.239   6.633   8.006
11589WAT     H135009   4.178   6.708   8.031
11589WAT     H235010   4.331   6.653   8.038
11590WAT      O35011   7.124   5.861   6.836
11590WAT     H135012   7.152   5.896   6.747
11590WAT     H235013   7.041   5.909   6.866
11591WAT      O35014   9.258   8.504   1.815
11591WAT     H135015   9.194   8.441   1.859
11591WAT     H235016   9.299   8.460   1.736
11592WAT      O35017   5.812   3.074   5.089
11592WAT     H135018   5.777   3.163   5.062
11592WAT     H235019   5.900   3.085   5.135
11593WAT      O35020   0.913   3.635   5.371
11593WAT     H135021   0.938   3.551   5.419
11593WAT     H235022   0.863   3.611   5.288
11594WAT      O35023   9.455   4.137   5.835
11594WAT     H135024   9.427   4.092   5.920
11594WAT     H235025   9.536   4.193   5.852
11595WAT      O35026   4.670   7.127   2.245
11595WAT     H135027   4.611   7.073   2.304
11595WAT     H235028   4.620   7.207   2.211
11596WAT      O35029   6.490   7.356   2.805
11596WAT     H135030   6.553   7.308   2.866
11596WAT     H235031   6.542   7.398   2.731
11597WAT      O35032   8.377   3.692   2.277
11597WAT     H135033   8.443   3.767   2.277
11597WAT     H235034   8.331   3.688   2.366
11598WAT      O35035   4.262   1.369   0.557
11598WAT     H135036   4.286   1.436   0.627
11598WAT     H235037   4.233   1.284   0.600
11599WAT      O35038   1.901   7.528   1.914
11599WAT     H135039   1.820   7.473   1.894
11599WAT     H235040   1.898   7.613   1.862
11600WAT      O35041   4.537   1.906   4.348
11600WAT     H135042   4.492   1.861   4.272
11600WAT     H235043   4.636   1.890   4.343
11601WAT      O35044   5.362   8.537   5.453
11601WAT     H135045   5.324   8.623   5.486
11601WAT     H235046   5.459   8.548   5.432
11602WAT      O35047   9.419   5.662   3.702
11602WAT     H135048   9.359   5.657   3.622
11602WAT     H235049   9.513   5.645   3.674
11603WAT      O35050   1.844   3.004   8.562
11603WAT     H135051   1.791   2.926   8.594
11603WAT     H235052   1.817   3.026   8.468
11604WAT      O35053   1.789   3.179   9.019
11604WAT     H135054   1.718   3.109   9.007
11604WAT     H235055   1.868   3.156   8.963
11605WAT      O35056   4.486   1.882   4.613
11605WAT     H135057   4.548   1.945   4.658
11605WAT     H235058   4.508   1.877   4.515
11606WAT      O35059   3.762   3.185   0.920
11606WAT     H135060   3.825   3.138   0.859
11606WAT     H235061   3.670   3.147   0.909
11607WAT      O35062   3.432   0.193   5.061
11607WAT     H135063   3.487   0.244   4.995
11607WAT     H235064   3.493   0.139   5.120
11608WAT      O35065   1.225   2.269   0.274
11608WAT     H135066   1.316   2.303   0.249
11608WAT     H235067   1.177   2.341   0.325
11609WAT      O35068   4.660   4.927   8.039
11609WAT     H135069   4.624   5.012   8.002
11609WAT     H235070   4.670   4.860   7.965
11610WAT      O35071   3.496   2.007   8.749
11610WAT     H135072   3.592   2.034   8.754
11610WAT     H235073   3.469   1.963   8.834
11611WAT      O35074   1.292   8.595   7.765
11611WAT     H135075   1.193   8.605   7.757
11611WAT     H235076   1.336   8.684   7.752
11612WAT      O35077   2.406   9.302   8.407
11612WAT     H135078   2.422   9.220   8.352
11612WAT     H235079   2.308   9.321   8.410
11613WAT      O35080   9.710   7.694   8.681
11613WAT     H135081   9.758   7.695   8.593
11613WAT     H235082   9.611   7.697   8.666
11614WAT      O35083   5.087   2.818   7.343
11614WAT     H135084   5.160   2.814   7.274
11614WAT     H235085   5.085   2.910   7.383
11615WAT      O35086   3.213   3.229   2.456
11615WAT     H135087   3.227   3.256   2.361
11615WAT     H235088   3.270   3.286   2.515
11616WAT      O35089   7.673   1.216   2.010
11616WAT     H135090   7.586   1.261   1.991
11616WAT     H235091   7.690   1.144   1.942
11617WAT      O35092   4.788   1.410   5.303
11617WAT     H135093   4.827   1.363   5.383
11617WAT     H235094   4.858   1.416   5.231
11618WAT      O35095   4.526   5.574   2.677
11618WAT     H135096   4.454   5.643   2.668
11618WAT     H235097   4.598   5.592   2.610
11619WAT      O35098   2.726   0.477   9.111
11619WAT     H135099   2.724   0.515   9.204
11619WAT     H235100   2.719   0.377   9.116
11620WAT      O35101   0.417   3.416   3.277
11620WAT     H135102   0.441   3.390   3.183
11620WAT     H235103   0.381   3.509   3.277
11621WAT      O35104   2.872   3.239   2.283
11621WAT     H135105   2.796   3.243   2.218
11621WAT     H235106   2.913   3.148   2.281
11622WAT      O35107   4.324   2.453   2.782
11622WAT     H135108   4.232   2.417   2.764
11622WAT     H235109   4.341   2.452   2.881
11623WAT      O35110   1.313   2.474   6.516
11623WAT     H135111   1.327   2.544   6.446
11623WAT     H235112   1.335   2.512   6.606
11624WAT      O35113   1.450   8.724   3.638
11624WAT     H135114   1.503   8.793   3.588
11624WAT     H235115   1.499   8.637   3.637
11625WAT      O35116   6.392   7.662   4.719
11625WAT     H135117   6.353   7.732   4.779
11625WAT     H235118   6.338   7.578   4.726
11626WAT      O35119   7.883   7.551   4.885
11626WAT     H135120   7.808   7.612   4.911
11626WAT     H235121   7.887   7.474   4.948
11627WAT      O35122   0.116   8.754   4.113
11627WAT     H135123   0.178   8.677   4.130
11627WAT     H235124   0.127   8.822   4.186
11628WAT      O35125   5.643   1.248   2.132
11628WAT     H135126   5.638   1.224   2.035
11628WAT     H235127   5.553   1.275   2.165
11629WAT      O35128   4.175   6.128   5.090
11629WAT     H135129   4.134   6.135   5.181
11629WAT     H235130   4.103   6.106   5.024
11630WAT      O35131   3.481   9.591   9.767
11630WAT     H135132   3.538   9.667   9.737
11630WAT     H235133   3.386   9.622   9.773
11631WAT      O35134   2.131   2.708   0.944
11631WAT     H135135   2.193   2.740   0.873
11631WAT     H235136   2.068   2.782   0.970
11632WAT      O35137   6.716   6.877   2.092
11632WAT     H135138   6.795   6.821   2.116
11632WAT     H235139   6.644   6.820   2.054
11633WAT      O35140   0.012   1.356   0.815
11633WAT     H135141  -0.026   1.441   0.852
11633WAT     H235142   0.013   1.359   0.715
11634WAT      O35143   1.861   0.729   0.128
11634WAT     H135144   1.834   0.669   0.203
11634WAT     H235145   1.924   0.680   0.067
11635WAT      O35146   7.853   9.031   8.540
11635WAT     H135147   7.767   9.066   8.578
11635WAT     H235148   7.930   9.076   8.586
11636WAT      O35149   2.911   4.532   3.579
11636WAT     H135150   2.965   4.454   3.610
11636WAT     H235151   2.905   4.531   3.479
11637WAT      O35152   6.865   6.116   7.217
11637WAT     H135153   6.821   6.114   7.307
11637WAT     H235154   6.815   6.179   7.157
11638WAT      O35155   8.800   0.081   2.888
11638WAT     H135156   8.744   0.154   2.849
11638WAT     H235157   8.864   0.047   2.820
11639WAT      O35158   1.607   4.696   8.036
11639WAT     H135159   1.593   4.675   7.940
11639WAT     H235160   1.691   4.749   8.047
11640WAT      O35161   6.128   7.959   2.748
11640WAT     H135162   6.077   7.977   2.832
11640WAT     H235163   6.191   8.034   2.729
11641WAT      O35164   7.227   1.351   8.638
11641WAT     H135165   7.167   1.347   8.558
11641WAT     H235166   7.216   1.440   8.683
11642WAT      O35167   1.039   1.899   4.871
11642WAT     H135168   1.102   1.902   4.950
11642WAT     H235169   0.996   1.809   4.867
11643WAT      O35170   7.495   4.900   3.130
11643WAT     H135171   7.420   4.939   3.076
11643WAT     H235172   7.500   4.802   3.113
11644WAT      O35173   2.061   9.680   0.958
11644WAT     H135174   2.034   9.689   1.054
11644WAT     H235175   1.983   9.650   0.904
11645WAT      O35176   9.421   6.527   7.191
11645WAT     H135177   9.384   6.505   7.100
11645WAT     H235178   9.513   6.488   7.199
11646WAT      O35179   0.370   2.039   6.718
11646WAT     H135180   0.443   1.992   6.669
11646WAT     H235181   0.403   2.067   6.808
11647WAT      O35182   7.882   1.899   8.424
11647WAT     H135183   7.940   1.857   8.354
11647WAT     H235184   7.840   1.982   8.386
11648WAT      O35185   7.678   5.854   6.436
11648WAT     H135186   7.673   5.950   6.410
11648WAT     H235187   7.770   5.833   6.468
11649WAT      O35188   5.110   7.497   4.174
11649WAT     H135189   5.123   7.595   4.187
11649WAT     H235190   5.058   7.480   4.091
11650WAT      O35191   8.413   2.265   2.254
11650WAT     H135192   8.412   2.176   2.300
11650WAT     H235193   8.460   2.332   2.312
11651WAT      O35194   3.854   6.236   5.196
11651WAT     H135195   3.779   6.302   5.185
11651WAT     H235196   3.829   6.168   5.265
11652WAT      O35197   7.841   2.412   3.266
11652WAT     H135198   7.895   2.400   3.350
11652WAT     H235199   7.871   2.347   3.197
11653WAT      O35200   9.780   5.352   8.970
11653WAT     H135201   9.801   5.450   8.974
11653WAT     H235202   9.723   5.327   9.048
11654WAT      O35203   8.708   3.200   7.911
11654WAT     H135204   8.697   3.284   7.964
11654WAT     H235205   8.661   3.125   7.958
11655WAT      O35206   3.944   7.187   8.707
11655WAT     H135207   3.996   7.159   8.626
11655WAT     H235208   4.000   7.172   8.789
11656WAT      O35209   5.802   5.209   5.704
11656WAT     H135210   5.837   5.296   5.739
11656WAT     H235211   5.731   5.226   5.635
11657WAT      O35212   2.841   5.397   3.890
11657WAT     H135213   2.774   5.329   3.862
11657WAT     H235214   2.916   5.352   3.938
11658WAT      O35215   0.194   2.007   8.963
11658WAT     H135216   0.209   1.939   8.891
11658WAT     H235217   0.096   2.028   8.970
11659WAT      O35218   7.901   2.443   4.896
11659WAT     H135219   7.977   2.409   4.840
11659WAT     H235220   7.938   2.501   4.969
11660WAT      O35221   9.441   2.195   8.556
11660WAT     H135222   9.501   2.181   8.635
11660WAT     H235223   9.496   2.211   8.474
11661WAT      O35224   7.045   2.070   8.580
11661WAT     H135225   7.080   2.160   8.606
11661WAT     H235226   6.955   2.080   8.539
11662WAT      O35227   4.177   9.831   3.807
11662WAT     H135228   4.140   9.739   3.817
11662WAT     H235229   4.275   9.830   3.828
11663WAT      O35230   4.131   8.495   5.663
11663WAT     H135231   4.161   8.432   5.592
11663WAT     H235232   4.209   8.521   5.719
11664WAT      O35233   4.478   0.946   4.650
11664WAT     H135234   4.473   0.918   4.554
11664WAT     H235235   4.535   1.027   4.658
11665WAT      O35236   0.663   7.100   5.248
11665WAT     H135237   0.750   7.122   5.204
11665WAT     H235238   0.666   7.006   5.283
11666WAT      O35239   3.404   1.008   5.552
11666WAT     H135240   3.314   0.980   5.518
11666WAT     H235241   3.424   0.960   5.637
11667WAT      O35242   3.950   2.336   3.164
11667WAT     H135243   4.014   2.285   3.106
11667WAT     H235244   3.975   2.433   3.164
11668WAT      O35245   1.676   5.830   8.553
11668WAT     H135246   1.649   5.832   8.456
11668WAT     H235247   1.757   5.887   8.565
11669WAT      O35248   7.684   5.586   0.613
11669WAT     H135249   7.739   5.651   0.560
11669WAT     H235250   7.646   5.517   0.551
11670WAT      O35251   2.425   3.509   5.837
11670WAT     H135252   2.476   3.562   5.904
11670WAT     H235253   2.328   3.508   5.861
11671WAT      O35254   1.204   7.325   5.620
11671WAT     H135255   1.259   7.307   5.701
11671WAT     H235256   1.116   7.364   5.647
11672WAT      O35257   7.754   6.028   0.691
11672WAT     H135258   7.842   6.075   0.682
11672WAT     H235259   7.682   6.083   0.647
11673WAT      O35260   5.725   8.655   1.523
11673WAT     H135261   5.703   8.557   1.518
11673WAT     H235262   5.675   8.695   1.600
11674WAT      O35263   2.188   0.118   8.041
11674WAT     H135264   2.170   0.144   8.136
11674WAT     H235265   2.239   0.032   8.039
11675WAT      O35266   2.194   3.622   9.579
11675WAT     H135267   2.177   3.708   9.629
11675WAT     H235268   2.284   3.627   9.536
11676WAT      O35269   3.837   5.877   6.594
11676WAT     H135270   3.782   5.837   6.667
11676WAT     H235271   3.933   5.879   6.621
11677WAT      O35272   1.731   4.748   9.572
11677WAT     H135273   1.706   4.727   9.666
11677WAT     H235274   1.828   4.771   9.567
11678WAT      O35275   1.585   9.729   5.783
11678WAT     H135276   1.661   9.794   5.780
11678WAT     H235277   1.502   9.776   5.812
11679WAT      O35278   0.404   3.733   3.958
11679WAT     H135279   0.389   3.713   3.861
11679WAT     H235280   0.364   3.822   3.980
11680WAT      O35281   2.363   7.354   7.270
11680WAT     H135282   2.426   7.350   7.347
11680WAT     H235283   2.414   7.341   7.184
11681WAT      O35284   5.046   9.401   0.759
11681WAT     H135285   5.056   9.373   0.664
11681WAT     H235286   5.039   9.320   0.818
11682WAT      O35287   4.374   7.529   3.475
11682WAT     H135288   4.469   7.505   3.454
11682WAT     H235289   4.326   7.554   3.391
11683WAT      O35290   7.078   5.806   9.232
11683WAT     H135291   7.118   5.890   9.270
11683WAT     H235292   7.098   5.800   9.135
11684WAT      O35293   5.504   2.647   9.531
11684WAT     H135294   5.495   2.724   9.468
11684WAT     H235295   5.438   2.657   9.605
11685WAT      O35296   5.717   0.119   0.581
11685WAT     H135297   5.756   0.035   0.619
11685WAT     H235298   5.745   0.128   0.485
11686WAT      O35299   6.585   5.706   8.598
11686WAT     H135300   6.572   5.795   8.642
11686WAT     H235301   6.679   5.675   8.612
11687WAT      O35302   2.521   2.002   6.280
11687WAT     H135303   2.441   1.965   6.233
11687WAT     H235304   2.503   2.005   6.379
11688WAT      O35305   6.671   4.364   9.319
11688WAT     H135306   6.731   4.358   9.399
11688WAT     H235307   6.639   4.273   9.294
11689WAT      O35308   7.248   4.085   0.238
11689WAT     H135309   7.183   4.080   0.313
11689WAT     H235310   7.327   4.026   0.258
11690WAT      O35311   2.247   3.237   8.034
11690WAT     H135312   2.205   3.297   7.965
11690WAT     H235313   2.282   3.155   7.989
11691WAT      O35314   4.213   6.366   8.081
11691WAT     H135315   4.232   6.452   8.033
11691WAT     H235316   4.237   6.376   8.177
11692WAT      O35317   1.647   9.334   7.866
11692WAT     H135318   1.641   9.262   7.796
11692WAT     H235319   1.681   9.295   7.951
11693WAT      O35320   1.427   7.427   8.244
11693WAT     H135321   1.436   7.371   8.161
11693WAT     H235322   1.421   7.367   8.324
11694WAT      O35323   0.710   0.596   3.757
11694WAT     H135324   0.766   0.640   3.827
11694WAT     H235325   0.710   0.651   3.674
11695WAT      O35326   5.912   8.187   1.502
11695WAT     H135327   5.855   8.116   1.459
11695WAT     H235328   6.008   8.165   1.488
11696WAT      O35329   6.466   2.275   7.862
11696WAT     H135330   6.521   2.204   7.906
11696WAT     H235331   6.437   2.244   7.772
11697WAT      O35332   6.452   4.422   5.133
11697WAT     H135333   6.424   4.517   5.147
11697WAT     H235334   6.394   4.362   5.190
11698WAT      O35335   2.878   7.109   1.799
11698WAT     H135336   2.976   7.103   1.813
11698WAT     H235337   2.858   7.108   1.701
11699WAT      O35338   8.165   2.938   7.388
11699WAT     H135339   8.070   2.933   7.356
11699WAT     H235340   8.172   3.007   7.459
11700WAT      O35341   4.923   9.216   0.174
11700WAT     H135342   4.896   9.288   0.237
11700WAT     H235343   4.973   9.255   0.097
11701WAT      O35344   7.082   0.588   8.068
11701WAT     H135345   7.159   0.572   8.007
11701WAT     H235346   7.116   0.612   8.159
11702WAT      O35347   5.398   4.924   0.415
11702WAT     H135348   5.308   4.967   0.414
11702WAT     H235349   5.447   4.947   0.331
11703WAT      O35350   2.417   9.023   9.165
11703WAT     H135351   2.324   9.001   9.138
11703WAT     H235352   2.480   9.005   9.089
11704WAT      O35353   2.139   9.556   5.724
11704WAT     H135354   2.237   9.575   5.718
11704WAT     H235355   2.089   9.623   5.669
11705WAT      O35356   1.176   5.594   6.943
11705WAT     H135357   1.164   5.590   6.844
11705WAT     H235358   1.263   5.553   6.968
11706WAT      O35359   9.549   5.099   3.540
11706WAT     H135360   9.480   5.153   3.492
11706WAT     H235361   9.523   5.089   3.636
11707WAT      O35362   6.239   6.210   8.699
11707WAT     H135363   6.287   6.155   8.768
11707WAT     H235364   6.254   6.170   8.609
11708WAT      O35365   4.057   5.596   4.685
11708WAT     H135366   4.120   5.519   4.682
11708WAT     H235367   3.986   5.585   4.616
11709WAT      O35368   4.402   1.055   0.253
11709WAT     H135369   4.462   1.022   0.180
11709WAT     H235370   4.424   1.151   0.273
11710WAT      O35371   2.517   5.401   5.444
11710WAT     H135372   2.577   5.383   5.365
11710WAT     H235373   2.439   5.456   5.415
11711WAT      O35374   8.515   7.357   1.466
11711WAT     H135375   8.455   7.302   1.407
11711WAT     H235376   8.466   7.439   1.494
11712WAT      O35377   7.608   4.338   8.490
11712WAT     H135378   7.579   4.243   8.480
11712WAT     H235379   7.694   4.352   8.442
11713WAT      O35380   9.294   4.974   8.722
11713WAT     H135381   9.268   5.014   8.810
11713WAT     H235382   9.237   4.893   8.704
11714WAT      O35383   6.571   4.099   9.323
11714WAT     H135384   6.631   4.066   9.396
11714WAT     H235385   6.587   4.045   9.240
11715WAT      O35386   7.671   8.625   3.491
11715WAT     H135387   7.724   8.551   3.532
11715WAT     H235388   7.727   8.673   3.424
11716WAT      O35389   5.979   3.339   9.198
11716WAT     H135390   6.020   3.356   9.287
11716WAT     H235391   5.911   3.265   9.205
11717WAT      O35392   5.524   4.409   0.102
11717WAT     H135393   5.441   4.442   0.058
11717WAT     H235394   5.580   4.360   0.036
11718WAT      O35395   8.406   5.954   2.207
11718WAT     H135396   8.372   5.945   2.300
11718WAT     H235397   8.381   5.873   2.154
11719WAT      O35398   8.304   6.469   4.660
11719WAT     H135399   8.349   6.555   4.683
11719WAT     H235400   8.210   6.470   4.696
11720WAT      O35401   6.393   0.362   0.371
11720WAT     H135402   6.449   0.384   0.450
11720WAT     H235403   6.389   0.263   0.360
11721WAT      O35404   5.122   1.864   7.715
11721WAT     H135405   5.194   1.864   7.646
11721WAT     H235406   5.033   1.856   7.670
11722WAT      O35407   5.981   9.178   0.582
11722WAT     H135408   5.906   9.221   0.633
11722WAT     H235409   5.977   9.079   0.595
11723WAT      O35410   4.755   2.254   2.491
11723WAT     H135411   4.827   2.322   2.477
11723WAT     H235412   4.680   2.295   2.543
11724WAT      O35413   3.131   9.057   0.234
11724WAT     H135414   3.064   9.039   0.162
11724WAT     H235415   3.083   9.080   0.319
11725WAT      O35416   5.022   7.186   9.224
11725WAT     H135417   5.118   7.183   9.251
11725WAT     H235418   4.965   7.154   9.300
11726WAT      O35419   4.046   8.131   0.852
11726WAT     H135420   3.975   8.201   0.846
11726WAT     H235421   4.006   8.046   0.886
11727WAT      O35422   9.611   4.358   3.851
11727WAT     H135423   9.606   4.412   3.767
11727WAT     H235424   9.574   4.411   3.927
11728WAT      O35425   3.022   7.633   2.972
11728WAT     H135426   2.931   7.632   3.013
11728WAT     H235427   3.045   7.726   2.943
11729WAT      O35428   5.631   7.035   7.570
11729WAT     H135429   5.567   6.984   7.512
11729WAT     H235430   5.581   7.108   7.617
11730WAT      O35431   3.750   8.005   6.216
11730WAT     H135432   3.761   8.065   6.296
11730WAT     H235433   3.823   7.937   6.216
11731WAT      O35434   8.047   7.211   2.683
11731WAT     H135435   8.146   7.224   2.686
11731WAT     H235436   8.021   7.170   2.595
11732WAT      O35437   4.393   7.525   6.724
11732WAT     H135438   4.388   7.445   6.783
11732WAT     H235439   4.410   7.607   6.780
11733WAT      O35440   6.998   0.751   7.858
11733WAT     H135441   7.016   0.689   7.935
11733WAT     H235442   7.054   0.833   7.867
11734WAT      O35443   6.096   6.399   2.182
11734WAT     H135444   6.080   6.494   2.157
11734WAT     H235445   6.143   6.352   2.107
11735WAT      O35446   1.374   1.475   3.382
11735WAT     H135447   1.334   1.421   3.456
11735WAT     H235448   1.309   1.545   3.353
11736WAT      O35449   7.425   9.534   3.642
11736WAT     H135450   7.343   9.486   3.674
11736WAT     H235451   7.503   9.472   3.647
11737WAT      O35452   3.514   9.356   1.188
11737WAT     H135453   3.469   9.369   1.100
11737WAT     H235454   3.517   9.444   1.237
11738WAT      O35455   0.030   3.119   7.064
11738WAT     H135456   0.033   3.202   7.008
11738WAT     H235457   0.051   3.142   7.159
11739WAT      O35458   7.902   1.377   3.709
11739WAT     H135459   7.953   1.355   3.625
11739WAT     H235460   7.886   1.292   3.760
11740WAT      O35461   5.931   6.300   9.516
11740WAT     H135462   5.930   6.330   9.421
11740WAT     H235463   5.890   6.371   9.574
11741WAT      O35464   1.779   1.306   4.615
11741WAT     H135465   1.848   1.368   4.653
11741WAT     H235466   1.714   1.359   4.560
11742WAT      O35467   4.789   2.273   9.060
11742WAT     H135468   4.847   2.245   9.137
11742WAT     H235469   4.723   2.200   9.040
11743WAT      O35470   3.303   8.318   3.815
11743WAT     H135471   3.367   8.303   3.739
11743WAT     H235472   3.303   8.237   3.874
11744WAT      O35473   8.557   7.298   5.772
11744WAT     H135474   8.475   7.356   5.772
11744WAT     H235475   8.537   7.213   5.723
11745WAT      O35476   3.153   3.405   1.621
11745WAT     H135477   3.080   3.414   1.553
11745WAT     H235478   3.147   3.480   1.687
11746WAT      O35479   4.771   9.567   7.584
11746WAT     H135480   4.763   9.634   7.510
11746WAT     H235481   4.718   9.485   7.561
11747WAT      O35482   2.724   0.029   8.118
11747WAT     H135483   2.796  -0.038   8.102
11747WAT     H235484   2.751   0.117   8.080
11748WAT      O35485   4.095   2.298   2.814
11748WAT     H135486   4.032   2.240   2.763
11748WAT     H235487   4.055   2.389   2.827
11749WAT      O35488   8.273   2.735   0.435
11749WAT     H135489   8.230   2.645   0.422
11749WAT     H235490   8.369   2.723   0.460
11750WAT      O35491   1.010   0.585   5.832
11750WAT     H135492   0.950   0.627   5.765
11750WAT     H235493   0.976   0.494   5.856
11751WAT      O35494   7.767   1.126   7.276
11751WAT     H135495   7.728   1.062   7.210
11751WAT     H235496   7.839   1.080   7.328
11752WAT      O35497   0.166   7.055   7.952
11752WAT     H135498   0.133   6.991   8.020
11752WAT     H235499   0.266   7.060   7.957
11753WAT      O35500   6.836   8.972   6.812
11753WAT     H135501   6.800   8.932   6.727
11753WAT     H235502   6.891   8.904   6.859
11754WAT      O35503   6.450   4.263   7.029
11754WAT     H135504   6.357   4.267   6.992
11754WAT     H235505   6.500   4.187   6.986
11755WAT      O35506   4.706   6.060   2.329
11755WAT     H135507   4.727   6.086   2.235
11755WAT     H235508   4.757   6.119   2.392
11756WAT      O35509   7.562   1.913   1.859
11756WAT     H135510   7.493   1.980   1.886
11756WAT     H235511   7.653   1.946   1.882
11757WAT      O35512   5.179   8.197   8.236
11757WAT     H135513   5.175   8.107   8.279
11757WAT     H235514   5.272   8.233   8.243
11758WAT      O35515   8.295   5.892   0.342
11758WAT     H135516   8.254   5.815   0.293
11758WAT     H235517   8.313   5.865   0.437
11759WAT      O35518   7.297   6.972   8.723
11759WAT     H135519   7.317   6.887   8.771
11759WAT     H235520   7.200   6.976   8.700
11760WAT      O35521   3.345   8.946   8.643
11760WAT     H135522   3.423   8.888   8.624
11760WAT     H235523   3.303   8.919   8.730
11761WAT      O35524   3.617   1.547   1.713
11761WAT     H135525   3.647   1.626   1.660
11761WAT     H235526   3.635   1.563   1.810
11762WAT      O35527   8.394   6.674   1.112
11762WAT     H135528   8.297   6.652   1.119
11762WAT     H235529   8.405   6.772   1.101
11763WAT      O35530   1.829   1.965   8.897
11763WAT     H135531   1.778   1.880   8.879
11763WAT     H235532   1.915   1.964   8.847
11764WAT      O35533   5.463   2.570   1.838
11764WAT     H135534   5.540   2.624   1.807
11764WAT     H235535   5.496   2.482   1.873
11765WAT      O35536   2.081   2.950   1.297
11765WAT     H135537   2.002   2.963   1.358
11765WAT     H235538   2.149   2.893   1.343
11766WAT      O35539   2.972   3.915   8.778
11766WAT     H135540   2.968   3.842   8.845
11766WAT     H235541   3.004   3.878   8.690
11767WAT      O35542   1.099   3.586   1.460
11767WAT     H135543   1.026   3.650   1.483
11767WAT     H235544   1.162   3.578   1.537
11768WAT      O35545   2.172   4.932   3.086
11768WAT     H135546   2.152   4.835   3.094
11768WAT     H235547   2.267   4.949   3.112
11769WAT      O35548   8.982   3.715   8.891
11769WAT     H135549   9.000   3.617   8.897
11769WAT     H235550   8.912   3.741   8.958
11770WAT      O35551   9.205   6.170   8.451
11770WAT     H135552   9.251   6.086   8.424
11770WAT     H235553   9.143   6.199   8.378
11771WAT      O35554   5.487   7.492   1.980
11771WAT     H135555   5.426   7.518   1.905
11771WAT     H235556   5.549   7.419   1.949
11772WAT      O35557   7.695   2.234   7.240
11772WAT     H135558   7.611   2.185   7.220
11772WAT     H235559   7.772   2.190   7.194
11773WAT      O35560   7.332   4.809   0.733
11773WAT     H135561   7.351   4.872   0.809
11773WAT     H235562   7.248   4.759   0.752
11774WAT      O35563   8.564   6.987   9.698
11774WAT     H135564   8.490   7.046   9.730
11774WAT     H235565   8.548   6.963   9.602
11775WAT      O35566   4.363   7.299   1.371
11775WAT     H135567   4.388   7.247   1.453
11775WAT     H235568   4.414   7.385   1.368
11776WAT      O35569   2.108   5.062   6.405
11776WAT     H135570   2.032   5.016   6.359
11776WAT     H235571   2.116   5.028   6.499
11777WAT      O35572   1.713   8.528   7.797
11777WAT     H135573   1.723   8.493   7.704
11777WAT     H235574   1.637   8.482   7.842
11778WAT      O35575   0.032   0.655   0.940
11778WAT     H135576   0.113   0.598   0.926
11778WAT     H235577   0.006   0.653   1.036
11779WAT      O35578   4.173   6.343   5.573
11779WAT     H135579   4.164   6.328   5.475
11779WAT     H235580   4.227   6.425   5.590
11780WAT      O35581   2.560   3.753   8.968
11780WAT     H135582   2.517   3.806   8.895
11780WAT     H235583   2.491   3.728   9.036
11781WAT      O35584   2.747   3.911   2.390
11781WAT     H135585   2.710   3.964   2.467
11781WAT     H235586   2.676   3.898   2.321
11782WAT      O35587   7.200   1.242   4.190
11782WAT     H135588   7.280   1.215   4.244
11782WAT     H235589   7.183   1.340   4.202
11783WAT      O35590   0.465   3.356   2.034
11783WAT     H135591   0.422   3.318   1.952
11783WAT     H235592   0.440   3.453   2.043
11784WAT      O35593   1.660   2.705   1.774
11784WAT     H135594   1.679   2.644   1.697
11784WAT     H235595   1.652   2.652   1.858
11785WAT      O35596   2.670   4.373   1.290
11785WAT     H135597   2.665   4.344   1.194
11785WAT     H235598   2.699   4.469   1.294
11786WAT      O35599   1.602   7.541   4.884
11786WAT     H135600   1.666   7.474   4.846
11786WAT     H235601   1.631   7.633   4.860
11787WAT      O35602   4.306   2.116   9.696
11787WAT     H135603   4.403   2.134   9.682
11787WAT     H235604   4.295   2.030   9.746
11788WAT      O35605   9.782   1.865   4.204
11788WAT     H135606   9.688   1.839   4.184
11788WAT     H235607   9.785   1.916   4.291
11789WAT      O35608   1.419   8.043   5.276
11789WAT     H135609   1.335   8.082   5.313
11789WAT     H235610   1.431   8.072   5.181
11790WAT      O35611   5.140   7.183   8.964
11790WAT     H135612   5.104   7.197   9.056
11790WAT     H235613   5.069   7.142   8.906
11791WAT      O35614   5.410   6.824   9.568
11791WAT     H135615   5.341   6.871   9.513
11791WAT     H235616   5.386   6.833   9.665
11792WAT      O35617   8.804   8.380   9.294
11792WAT     H135618   8.768   8.466   9.332
11792WAT     H235619   8.745   8.350   9.218
11793WAT      O35620   4.418   2.957   7.773
11793WAT     H135621   4.431   3.015   7.693
11793WAT     H235622   4.320   2.945   7.790
11794WAT      O35623   3.838   1.801   0.730
11794WAT     H135624   3.819   1.832   0.823
11794WAT     H235625   3.812   1.705   0.721
11795WAT      O35626   1.684   0.327   2.626
11795WAT     H135627   1.686   0.395   2.553
11795WAT     H235628   1.612   0.260   2.607
11796WAT      O35629   1.306   6.830   9.703
11796WAT     H135630   1.269   6.827   9.610
11796WAT     H235631   1.404   6.847   9.699
11797WAT      O35632   3.957   4.829   1.820
11797WAT     H135633   3.963   4.896   1.894
11797WAT     H235634   3.990   4.740   1.854
11798WAT      O35635   4.312   9.667   6.189
11798WAT     H135636   4.244   9.619   6.132
11798WAT     H235637   4.379   9.601   6.222
11799WAT      O35638   6.400   3.343   3.648
11799WAT     H135639   6.374   3.281   3.573
11799WAT     H235640   6.460   3.295   3.712
11800WAT      O35641   4.907   6.267   9.444
11800WAT     H135642   4.899   6.177   9.485
11800WAT     H235643   4.830   6.282   9.381
11801WAT      O35644   3.515   2.026   7.291
11801WAT     H135645   3.476   2.114   7.264
11801WAT     H235646   3.494   2.008   7.387
11802WAT      O35647   3.786   8.543   6.397
11802WAT     H135648   3.754   8.602   6.471
11802WAT     H235649   3.886   8.549   6.390
11803WAT      O35650   3.136   9.824   6.688
11803WAT     H135651   3.134   9.921   6.664
11803WAT     H235652   3.161   9.814   6.785
11804WAT      O35653   3.149   9.206   4.752
11804WAT     H135654   3.209   9.275   4.793
11804WAT     H235655   3.169   9.117   4.792
11805WAT      O35656   8.664   2.682   5.080
11805WAT     H135657   8.678   2.730   5.166
11805WAT     H235658   8.585   2.621   5.088
11806WAT      O35659   7.857   8.249   7.174
11806WAT     H135660   7.759   8.255   7.157
11806WAT     H235661   7.891   8.338   7.206
11807WAT      O35662   9.469   7.518   7.266
11807WAT     H135663   9.426   7.486   7.182
11807WAT     H235664   9.514   7.441   7.312
11808WAT      O35665   6.735   8.885   5.104
11808WAT     H135666   6.718   8.929   5.192
11808WAT     H235667   6.648   8.869   5.057
11809WAT      O35668   4.508   8.629   9.332
11809WAT     H135669   4.509   8.540   9.377
11809WAT     H235670   4.419   8.643   9.288
11810WAT      O35671   2.698   5.815   2.346
11810WAT     H135672   2.763   5.821   2.422
11810WAT     H235673   2.617   5.765   2.375
11811WAT      O35674   4.251   2.967   6.659
11811WAT     H135675   4.333   2.962   6.602
11811WAT     H235676   4.171   2.983   6.601
11812WAT      O35677   3.592   8.441   7.540
11812WAT     H135678   3.623   8.466   7.632
11812WAT     H235679   3.539   8.356   7.544
11813WAT      O35680   0.384   2.482   4.370
11813WAT     H135681   0.329   2.403   4.346
11813WAT     H235682   0.439   2.510   4.292
11814WAT      O35683   5.745   9.290   5.983
11814WAT     H135684   5.802   9.364   6.018
11814WAT     H235685   5.717   9.310   5.889
11815WAT      O35686   4.545   4.132   3.667
11815WAT     H135687   4.533   4.126   3.766
11815WAT     H235688   4.458   4.156   3.624
11816WAT      O35689   8.710   0.998   8.068
11816WAT     H135690   8.680   0.903   8.083
11816WAT     H235691   8.784   0.999   8.001
11817WAT      O35692   5.440   6.149   6.465
11817WAT     H135693   5.432   6.161   6.564
11817WAT     H235694   5.349   6.141   6.425
11818WAT      O35695   6.237   4.924   5.341
11818WAT     H135696   6.232   4.901   5.244
11818WAT     H235697   6.212   4.844   5.395
11819WAT      O35698   4.677   0.411   7.054
11819WAT     H135699   4.683   0.372   7.146
11819WAT     H235700   4.766   0.402   7.008
11820WAT      O35701   1.512   7.254   0.183
11820WAT     H135702   1.442   7.233   0.251
11820WAT     H235703   1.489   7.210   0.096
11821WAT      O35704   4.758   1.164   3.552
11821WAT     H135705   4.844   1.207   3.527
11821WAT     H235706   4.683   1.230   3.544
11822WAT      O35707   2.933   3.049   3.051
11822WAT     H135708   3.026   3.085   3.060
11822WAT     H235709   2.935   2.949   3.049
11823WAT      O35710   5.163   6.877   4.082
11823WAT     H135711   5.256   6.892   4.046
11823WAT     H235712   5.123   6.964   4.110
11824WAT      O35713   2.790   6.588   9.325
11824WAT     H135714   2.874   6.542   9.353
11824WAT     H235715   2.805   6.687   9.326
11825WAT      O35716   0.598   7.007   3.774
11825WAT     H135717   0.582   6.986   3.870
11825WAT     H235718   0.526   6.965   3.718
11826WAT      O35719   0.658   0.296   1.770
11826WAT     H135720   0.572   0.249   1.788
11826WAT     H235721   0.643   0.368   1.702
11827WAT      O35722   7.767   7.432   8.457
11827WAT     H135723   7.752   7.511   8.398
11827WAT     H235724   7.687   7.420   8.517
11828WAT      O35725   1.397   5.241   1.775
11828WAT     H135726   1.490   5.278   1.774
11828WAT     H235727   1.368   5.222   1.681
11829WAT      O35728   5.308   1.983   3.498
11829WAT     H135729   5.324   2.054   3.566
11829WAT     H235730   5.365   1.904   3.518
11830WAT      O35731   8.400   2.214   7.159
11830WAT     H135732   8.379   2.128   7.205
11830WAT     H235733   8.348   2.220   7.073
11831WAT      O35734   1.015   8.172   7.000
11831WAT     H135735   1.037   8.114   6.921
11831WAT     H235736   0.940   8.234   6.975
11832WAT      O35737   0.610   8.669   8.430
11832WAT     H135738   0.602   8.624   8.341
11832WAT     H235739   0.700   8.650   8.469
11833WAT      O35740   4.684   6.427   6.023
11833WAT     H135741   4.671   6.426   5.924
11833WAT     H235742   4.637   6.506   6.062
11834WAT      O35743   0.400   9.613   6.260
11834WAT     H135744   0.482   9.635   6.206
11834WAT     H235745   0.374   9.691   6.316
11835WAT      O35746   2.647   4.984   8.756
11835WAT     H135747   2.733   4.950   8.793
11835WAT     H235748   2.578   4.988   8.828
11836WAT      O35749   2.174   5.924   0.338
11836WAT     H135750   2.219   5.843   0.376
11836WAT     H235751   2.242   5.996   0.324
11837WAT      O35752   7.661   9.008   2.863
11837WAT     H135753   7.733   8.940   2.853
11837WAT     H235754   7.689   9.094   2.820
11838WAT      O35755   4.426   8.356   2.520
11838WAT     H135756   4.494   8.399   2.579
11838WAT     H235757   4.422   8.406   2.433
11839WAT      O35758   1.993   5.789   6.748
11839WAT     H135759   1.957   5.866   6.802
11839WAT     H235760   1.974   5.805   6.651
11840WAT      O35761   5.387   8.245   9.106
11840WAT     H135762   5.330   8.236   9.187
11840WAT     H235763   5.437   8.332   9.110
11841WAT      O35764   4.872   2.448   1.262
11841WAT     H135765   4.834   2.377   1.203
11841WAT     H235766   4.820   2.452   1.347
11842WAT      O35767   4.024   6.390   8.805
11842WAT     H135768   4.001   6.347   8.717
11842WAT     H235769   4.113   6.357   8.836
11843WAT      O35770   6.990   0.425   9.544
11843WAT     H135771   6.967   0.447   9.449
11843WAT     H235772   6.914   0.452   9.603
11844WAT      O35773   0.644   8.366   8.571
11844WAT     H135774   0.570   8.312   8.532
11844WAT     H235775   0.712   8.305   8.611
11845WAT      O35776   9.624   5.633   8.762
11845WAT     H135777   9.669   5.598   8.680
11845WAT     H235778   9.689   5.635   8.838
11846WAT      O35779   9.083   3.470   8.103
11846WAT     H135780   9.147   3.410   8.151
11846WAT     H235781   9.114   3.482   8.008
11847WAT      O35782   0.723   8.525   0.344
11847WAT     H135783   0.804   8.481   0.382
11847WAT     H235784   0.668   8.456   0.295
11848WAT      O35785   3.120   9.262   6.456
11848WAT     H135786   3.172   9.327   6.400
11848WAT     H235787   3.103   9.302   6.546
11849WAT      O35788   4.220   3.529   6.490
11849WAT     H135789   4.274   3.508   6.571
11849WAT     H235790   4.233   3.457   6.422
11850WAT      O35791   2.270   4.651   0.620
11850WAT     H135792   2.303   4.570   0.668
11850WAT     H235793   2.328   4.730   0.643
11851WAT      O35794   5.684   2.072   5.936
11851WAT     H135795   5.618   2.120   5.994
11851WAT     H235796   5.770   2.060   5.986
11852WAT      O35797   5.170   3.295   9.628
11852WAT     H135798   5.224   3.376   9.605
11852WAT     H235799   5.157   3.239   9.546
11853WAT      O35800   4.531   6.976   9.066
11853WAT     H135801   4.441   6.987   9.109
11853WAT     H235802   4.588   6.919   9.125
11854WAT      O35803   2.191   6.053   6.579
11854WAT     H135804   2.142   5.984   6.632
11854WAT     H235805   2.229   6.123   6.640
11855WAT      O35806   2.892   8.757   5.373
11855WAT     H135807   2.957   8.739   5.447
11855WAT     H235808   2.942   8.778   5.289
11856WAT      O35809   0.554   5.917   6.470
11856WAT     H135810   0.524   5.946   6.561
11856WAT     H235811   0.507   5.832   6.445
11857WAT      O35812   7.037   7.192   4.825
11857WAT     H135813   6.971   7.149   4.764
11857WAT     H235814   7.124   7.202   4.778
11858WAT      O35815   8.217   3.680   9.561
11858WAT     H135816   8.246   3.776   9.565
11858WAT     H235817   8.181   3.660   9.469
11859WAT      O35818   0.727   8.561   4.742
11859WAT     H135819   0.727   8.628   4.817
11859WAT     H235820   0.722   8.608   4.654
11860WAT      O35821   7.683   8.575   5.632
11860WAT     H135822   7.636   8.528   5.558
11860WAT     H235823   7.619   8.594   5.706
11861WAT      O35824   6.545   3.344   0.163
11861WAT     H135825   6.587   3.328   0.074
11861WAT     H235826   6.446   3.358   0.151
11862WAT      O35827   4.239   1.563   5.012
11862WAT     H135828   4.141   1.544   5.015
11862WAT     H235829   4.282   1.505   4.943
11863WAT      O35830   9.430   4.729   6.960
11863WAT     H135831   9.415   4.825   6.935
11863WAT     H235832   9.495   4.724   7.036
11864WAT      O35833   2.786   0.873   9.480
11864WAT     H135834   2.833   0.877   9.393
11864WAT     H235835   2.853   0.873   9.555
11865WAT      O35836   0.340   7.901   7.605
11865WAT     H135837   0.358   7.803   7.592
11865WAT     H235838   0.273   7.931   7.537
11866WAT      O35839   4.884   5.483   9.045
11866WAT     H135840   4.917   5.547   9.115
11866WAT     H235841   4.853   5.399   9.090
11867WAT      O35842   4.654   8.921   8.144
11867WAT     H135843   4.585   8.869   8.093
11867WAT     H235844   4.617   8.948   8.232
11868WAT      O35845   5.925   6.867   8.736
11868WAT     H135846   5.923   6.932   8.661
11868WAT     H235847   5.916   6.916   8.823
11869WAT      O35848   9.298   2.799   3.442
11869WAT     H135849   9.365   2.728   3.424
11869WAT     H235850   9.320   2.845   3.527
11870WAT      O35851   1.836   4.002   7.531
11870WAT     H135852   1.756   4.022   7.588
11870WAT     H235853   1.917   4.043   7.572
11871WAT      O35854   4.451   3.199   0.383
11871WAT     H135855   4.355   3.222   0.370
11871WAT     H235856   4.459   3.128   0.452
11872WAT      O35857   2.260   6.300   5.571
11872WAT     H135858   2.296   6.224   5.624
11872WAT     H235859   2.210   6.265   5.492
11873WAT      O35860   7.737   1.961   9.004
11873WAT     H135861   7.796   2.025   8.955
11873WAT     H235862   7.753   1.969   9.103
11874WAT      O35863   7.313   1.764   3.175
11874WAT     H135864   7.319   1.668   3.149
11874WAT     H235865   7.269   1.772   3.264
11875WAT      O35866   1.479   9.548   8.833
11875WAT     H135867   1.401   9.572   8.776
11875WAT     H235868   1.563   9.552   8.778
11876WAT      O35869   7.075   5.452   1.918
11876WAT     H135870   7.005   5.381   1.913
11876WAT     H235871   7.095   5.486   1.826
11877WAT      O35872   3.768   4.311   3.192
11877WAT     H135873   3.850   4.326   3.137
11877WAT     H235874   3.715   4.396   3.198
11878WAT      O35875   1.351   7.911   1.754
11878WAT     H135876   1.425   7.976   1.739
11878WAT     H235877   1.383   7.837   1.814
11879WAT      O35878   4.263   9.163   5.493
11879WAT     H135879   4.231   9.079   5.537
11879WAT     H235880   4.208   9.240   5.525
11880WAT      O35881   6.983   6.393   4.707
11880WAT     H135882   7.075   6.418   4.677
11880WAT     H235883   6.916   6.445   4.653
11881WAT      O35884   6.973   7.751   5.574
11881WAT     H135885   6.959   7.664   5.621
11881WAT     H235886   6.948   7.741   5.478
11882WAT      O35887   3.447   7.091   2.724
11882WAT     H135888   3.388   7.171   2.733
11882WAT     H235889   3.520   7.095   2.792
11883WAT      O35890   2.540   2.254   4.181
11883WAT     H135891   2.459   2.274   4.126
11883WAT     H235892   2.529   2.292   4.272
11884WAT      O35893   5.093   8.144   8.520
11884WAT     H135894   5.159   8.113   8.588
11884WAT     H235895   5.074   8.069   8.456
11885WAT      O35896   3.135   1.247   5.662
11885WAT     H135897   3.212   1.254   5.725
11885WAT     H235898   3.056   1.296   5.699
11886WAT      O35899   8.955   9.560   9.472
11886WAT     H135900   8.951   9.629   9.399
11886WAT     H235901   9.039   9.507   9.463
11887WAT      O35902   5.768   8.376   3.927
11887WAT     H135903   5.826   8.378   3.847
11887WAT     H235904   5.819   8.341   4.005
11888WAT      O35905   8.879   8.534   9.767
11888WAT     H135906   8.859   8.626   9.734
11888WAT     H235907   8.941   8.539   9.845
11889WAT      O35908   7.761   7.266   8.144
11889WAT     H135909   7.693   7.265   8.217
11889WAT     H235910   7.847   7.303   8.179
11890WAT      O35911   6.408   0.547   7.514
11890WAT     H135912   6.336   0.521   7.450
11890WAT     H235913   6.390   0.639   7.550
11891WAT      O35914   1.339   0.086   5.368
11891WAT     H135915   1.243   0.071   5.391
11891WAT     H235916   1.368   0.175   5.403
11892WAT      O35917   0.405   0.841   1.633
11892WAT     H135918   0.358   0.869   1.549
11892WAT     H235919   0.468   0.913   1.660
11893WAT      O35920   5.797   5.992   7.874
11893WAT     H135921   5.879   6.025   7.827
11893WAT     H235922   5.820   5.968   7.969
11894WAT      O35923   2.617   7.822   2.259
11894WAT     H135924   2.716   7.809   2.255
11894WAT     H235925   2.596   7.912   2.297
11895WAT      O35926   1.641   8.457   2.806
11895WAT     H135927   1.649   8.359   2.823
11895WAT     H235928   1.681   8.507   2.883
11896WAT      O35929   9.067   9.491   4.591
11896WAT     H135930   9.022   9.484   4.502
11896WAT     H235931   9.094   9.399   4.621
11897WAT      O35932   4.325   8.773   5.908
11897WAT     H135933   4.334   8.677   5.882
11897WAT     H235934   4.406   8.802   5.959
11898WAT      O35935   7.131   7.014   6.305
11898WAT     H135936   7.214   6.961   6.324
11898WAT     H235937   7.053   6.951   6.297
11899WAT      O35938   9.344   8.017   8.211
11899WAT     H135939   9.339   8.117   8.201
11899WAT     H235940   9.329   7.992   8.306
11900WAT      O35941   7.988   5.718   6.210
11900WAT     H135942   8.035   5.805   6.222
11900WAT     H235943   8.055   5.646   6.194
11901WAT      O35944   1.945   1.782   7.072
11901WAT     H135945   1.926   1.879   7.054
11901WAT     H235946   2.044   1.769   7.079
11902WAT      O35947   6.573   2.961   8.818
11902WAT     H135948   6.553   3.042   8.762
11902WAT     H235949   6.671   2.957   8.837
11903WAT      O35950   2.291   4.750   8.389
11903WAT     H135951   2.297   4.754   8.489
11903WAT     H235952   2.381   4.729   8.351
11904WAT      O35953   4.076   0.453   1.842
11904WAT     H135954   4.167   0.464   1.881
11904WAT     H235955   4.063   0.518   1.767
11905WAT      O35956   6.597   6.479   8.464
11905WAT     H135957   6.500   6.500   8.481
11905WAT     H235958   6.654   6.547   8.510
11906WAT      O35959   6.928   4.555   0.256
11906WAT     H135960   6.885   4.470   0.287
11906WAT     H235961   6.857   4.623   0.237
11907WAT      O35962   4.861   1.022   4.180
11907WAT     H135963   4.852   1.120   4.161
11907WAT     H235964   4.873   1.007   4.278
11908WAT      O35965   2.034   1.329   6.645
11908WAT     H135966   2.014   1.405   6.583
11908WAT     H235967   1.969   1.329   6.721
11909WAT      O35968   9.837   3.634   0.786
11909WAT     H135969   9.808   3.539   0.800
11909WAT     H235970   9.772   3.680   0.725
11910WAT      O35971   0.320   3.272   1.493
11910WAT     H135972   0.384   3.340   1.456
11910WAT     H235973   0.254   3.247   1.423
11911WAT      O35974   3.698   6.611   8.913
11911WAT     H135975   3.718   6.555   8.993
11911WAT     H235976   3.711   6.707   8.935
11912WAT      O35977   3.157   8.326   9.114
11912WAT     H135978   3.157   8.400   9.046
11912WAT     H235979   3.240   8.271   9.103
11913WAT      O35980   7.864   3.876   1.517
11913WAT     H135981   7.921   3.878   1.436
11913WAT     H235982   7.918   3.900   1.597
11914WAT      O35983   4.468   1.834   9.014
11914WAT     H135984   4.455   1.833   9.113
11914WAT     H235985   4.491   1.742   8.982
11915WAT      O35986   8.728   2.854   0.318
11915WAT     H135987   8.697   2.901   0.236
11915WAT     H235988   8.826   2.871   0.331
11916WAT      O35989   8.147   4.187   6.430
11916WAT     H135990   8.065   4.151   6.386
11916WAT     H235991   8.129   4.201   6.527
11917WAT      O35992   9.445   0.624   3.784
11917WAT     H135993   9.379   0.574   3.728
11917WAT     H235994   9.474   0.706   3.734
11918WAT      O35995   2.846   9.690   0.702
11918WAT     H135996   2.869   9.712   0.608
11918WAT     H235997   2.870   9.768   0.761
11919WAT      O35998   2.632   1.952   0.485
11919WAT     H135999   2.614   1.915   0.576
11919WAT     H236000   2.593   1.891   0.415
11920WAT      O36001   0.690   2.575   7.969
11920WAT     H136002   0.752   2.526   8.031
11920WAT     H236003   0.739   2.598   7.885
11921WAT      O36004   2.685   7.262   2.383
11921WAT     H136005   2.621   7.253   2.459
11921WAT     H236006   2.732   7.350   2.390
11922WAT      O36007   4.068   6.815   8.106
11922WAT     H136008   4.012   6.753   8.160
11922WAT     H236009   4.083   6.900   8.156
11923WAT      O36010   8.204   8.065   0.725
11923WAT     H136011   8.195   8.020   0.636
11923WAT     H236012   8.274   8.136   0.720
11924WAT      O36013   9.084   7.686   7.403
11924WAT     H136014   9.120   7.683   7.310
11924WAT     H236015   9.151   7.731   7.463
11925WAT      O36016   9.011   1.031   1.874
11925WAT     H136017   9.087   1.083   1.836
11925WAT     H236018   8.934   1.033   1.810
11926WAT      O36019   1.256   0.647   5.542
11926WAT     H136020   1.198   0.727   5.530
11926WAT     H236021   1.281   0.638   5.638
11927WAT      O36022   0.009   9.828   4.243
11927WAT     H136023  -0.036   9.902   4.293
11927WAT     H236024   0.013   9.851   4.146
11928WAT      O36025   1.446   2.343   2.200
11928WAT     H136026   1.434   2.247   2.226
11928WAT     H236027   1.482   2.348   2.107
11929WAT      O36028   3.307   6.266   8.771
11929WAT     H136029   3.331   6.245   8.676
11929WAT     H236030   3.225   6.323   8.772
11930WAT      O36031   6.422   1.717   5.255
11930WAT     H136032   6.384   1.624   5.255
11930WAT     H236033   6.518   1.714   5.228
11931WAT      O36034   0.804   9.700   7.119
11931WAT     H136035   0.873   9.648   7.070
11931WAT     H236036   0.720   9.646   7.126
11932WAT      O36037   9.431   8.952   7.615
11932WAT     H136038   9.421   9.028   7.551
11932WAT     H236039   9.494   8.884   7.577
11933WAT      O36040   0.818   6.447   6.701
11933WAT     H136041   0.743   6.455   6.767
11933WAT     H236042   0.905   6.441   6.750
11934WAT      O36043   2.001   9.141   1.157
11934WAT     H136044   2.012   9.224   1.102
11934WAT     H236045   1.972   9.165   1.249
11935WAT      O36046   0.040   8.621   4.507
11935WAT     H136047   0.005   8.714   4.504
11935WAT     H236048   0.095   8.603   4.425
11936WAT      O36049   4.857   3.041   5.009
11936WAT     H136050   4.839   3.004   4.918
11936WAT     H236051   4.770   3.058   5.055
11937WAT      O36052   5.281   2.176   8.881
11937WAT     H136053   5.276   2.084   8.841
11937WAT     H236054   5.370   2.217   8.860
11938WAT      O36055   8.763   7.432   7.752
11938WAT     H136056   8.664   7.420   7.762
11938WAT     H236057   8.781   7.514   7.698
11939WAT      O36058   9.038   3.421   8.962
11939WAT     H136059   8.953   3.383   8.924
11939WAT     H236060   9.112   3.409   8.897
11940WAT      O36061   5.028   4.366   7.146
11940WAT     H136062   5.029   4.302   7.069
11940WAT     H236063   5.015   4.459   7.111
11941WAT      O36064   1.406   0.327   0.038
11941WAT     H136065   1.355   0.411   0.052
11941WAT     H236066   1.405   0.272   0.121
11942WAT      O36067   6.197   5.393   0.241
11942WAT     H136068   6.261   5.468   0.224
11942WAT     H236069   6.108   5.414   0.202
11943WAT      O36070   9.468   5.302   3.197
11943WAT     H136071   9.430   5.231   3.256
11943WAT     H236072   9.568   5.294   3.194
11944WAT      O36073   5.007   7.717   4.468
11944WAT     H136074   4.931   7.683   4.412
11944WAT     H236075   5.007   7.817   4.468
11945WAT      O36076   9.244   3.597   8.514
11945WAT     H136077   9.294   3.515   8.543
11945WAT     H236078   9.286   3.678   8.556
11946WAT      O36079   0.016   7.163   0.934
11946WAT     H136080   0.105   7.195   0.901
11946WAT     H236081  -0.057   7.220   0.895
11947WAT      O36082   9.693   5.300   7.276
11947WAT     H136083   9.658   5.247   7.199
11947WAT     H236084   9.670   5.397   7.263
11948WAT      O36085   6.690   1.650   3.930
11948WAT     H136086   6.735   1.564   3.952
11948WAT     H236087   6.686   1.707   4.012
11949WAT      O36088   0.166   0.748   7.108
11949WAT     H136089   0.196   0.682   7.177
11949WAT     H236090   0.221   0.832   7.116
11950WAT      O36091   6.400   4.716   8.069
11950WAT     H136092   6.312   4.763   8.066
11950WAT     H236093   6.384   4.617   8.064
11951WAT      O36094   5.267   2.285   2.153
11951WAT     H136095   5.198   2.215   2.133
11951WAT     H236096   5.235   2.373   2.119
11952WAT      O36097   0.971   8.782   1.507
11952WAT     H136098   0.910   8.786   1.586
11952WAT     H236099   1.035   8.706   1.517
11953WAT      O36100   8.751   5.261   1.900
11953WAT     H136101   8.770   5.336   1.964
11953WAT     H236102   8.766   5.174   1.946
11954WAT      O36103   0.435   7.546   1.419
11954WAT     H136104   0.350   7.510   1.455
11954WAT     H236105   0.511   7.489   1.448
11955WAT      O36106   2.245   7.943   3.718
11955WAT     H136107   2.238   7.897   3.807
11955WAT     H236108   2.340   7.941   3.687
11956WAT      O36109   9.394   6.945   2.117
11956WAT     H136110   9.459   6.871   2.103
11956WAT     H236111   9.304   6.917   2.083
11957WAT      O36112   3.458   9.148   0.679
11957WAT     H136113   3.400   9.067   0.683
11957WAT     H236114   3.430   9.204   0.601
11958WAT      O36115   0.583   6.392   0.445
11958WAT     H136116   0.584   6.293   0.450
11958WAT     H236117   0.650   6.423   0.377
11959WAT      O36118   1.315   1.425   0.870
11959WAT     H136119   1.223   1.465   0.871
11959WAT     H236120   1.309   1.328   0.849
11960WAT      O36121   2.162   4.036   1.455
11960WAT     H136122   2.258   4.024   1.481
11960WAT     H236123   2.124   3.948   1.426
11961WAT      O36124   1.340   1.449   6.453
11961WAT     H136125   1.252   1.465   6.407
11961WAT     H236126   1.414   1.470   6.389
11962WAT      O36127   6.705   9.748   1.657
11962WAT     H136128   6.657   9.821   1.707
11962WAT     H236129   6.664   9.737   1.567
11963WAT      O36130   6.316   4.774   0.609
11963WAT     H136131   6.298   4.708   0.681
11963WAT     H236132   6.414   4.776   0.589
11964WAT      O36133   0.443   9.806   7.024
11964WAT     H136134   0.397   9.803   6.935
11964WAT     H236135   0.396   9.870   7.084
11965WAT      O36136   3.648   0.012   8.793
11965WAT     H136137   3.624   0.103   8.759
11965WAT     H236138   3.576  -0.021   8.854
11966WAT      O36139   1.799   0.780   8.249
11966WAT     H136140   1.887   0.827   8.247
11966WAT     H236141   1.760   0.776   8.157
11967WAT      O36142   1.480   6.957   0.373
11967WAT     H136143   1.414   7.031   0.388
11967WAT     H236144   1.436   6.884   0.320
11968WAT      O36145   5.472   1.595   4.694
11968WAT     H136146   5.382   1.577   4.733
11968WAT     H236147   5.507   1.682   4.728
11969WAT      O36148   4.719   2.897   7.095
11969WAT     H136149   4.771   2.850   7.167
11969WAT     H236150   4.744   2.993   7.094
11970WAT      O36151   0.698   2.806   9.556
11970WAT     H136152   0.786   2.837   9.520
11970WAT     H236153   0.706   2.711   9.586
11971WAT      O36154   1.604   3.839   8.654
11971WAT     H136155   1.602   3.791   8.742
11971WAT     H236156   1.511   3.862   8.627
11972WAT      O36157   5.073   5.060   2.999
11972WAT     H136158   5.128   4.998   2.943
11972WAT     H236159   5.016   5.006   3.062
11973WAT      O36160   1.661   1.217   4.844
11973WAT     H136161   1.635   1.121   4.831
11973WAT     H236162   1.711   1.250   4.765
11974WAT      O36163   8.305   8.034   5.564
11974WAT     H136164   8.225   8.069   5.614
11974WAT     H236165   8.349   7.962   5.617
11975WAT      O36166   8.665   0.076   0.558
11975WAT     H136167   8.684   0.164   0.514
11975WAT     H236168   8.711   0.074   0.647
11976WAT      O36169   7.023   8.070   0.421
11976WAT     H136170   6.956   8.142   0.405
11976WAT     H236171   6.977   7.982   0.424
11977WAT      O36172   5.613   3.399   2.606
11977WAT     H136173   5.526   3.349   2.611
11977WAT     H236174   5.598   3.495   2.630
11978WAT      O36175   6.829   4.798   0.147
11978WAT     H136176   6.832   4.888   0.190
11978WAT     H236177   6.738   4.781   0.111
11979WAT      O36178   3.241   4.371   1.772
11979WAT     H136179   3.335   4.339   1.766
11979WAT     H236180   3.180   4.304   1.729
11980WAT      O36181   8.992   2.889   9.295
11980WAT     H136182   8.915   2.952   9.282
11980WAT     H236183   9.018   2.887   9.391
11981WAT      O36184   3.856   3.736   7.892
11981WAT     H136185   3.845   3.769   7.799
11981WAT     H236186   3.795   3.658   7.908
11982WAT      O36187   6.597   7.843   3.432
11982WAT     H136188   6.573   7.913   3.499
11982WAT     H236189   6.626   7.760   3.480
11983WAT      O36190   8.321   7.511   5.524
11983WAT     H136191   8.267   7.506   5.608
11983WAT     H236192   8.418   7.508   5.546
11984WAT      O36193   9.881   8.304   3.295
11984WAT     H136194   9.933   8.218   3.288
11984WAT     H236195   9.936   8.379   3.259
11985WAT      O36196   3.417   5.238   2.343
11985WAT     H136197   3.410   5.337   2.350
11985WAT     H236198   3.514   5.211   2.350
11986WAT      O36199   4.355   5.867   8.616
11986WAT     H136200   4.310   5.828   8.697
11986WAT     H236201   4.361   5.798   8.544
11987WAT      O36202   4.373   0.998   6.219
11987WAT     H136203   4.451   1.057   6.242
11987WAT     H236204   4.369   0.987   6.120
11988WAT      O36205   5.970   8.019   4.348
11988WAT     H136206   6.023   7.943   4.385
11988WAT     H236207   6.028   8.071   4.284
11989WAT      O36208   6.541   7.730   6.403
11989WAT     H136209   6.478   7.676   6.459
11989WAT     H236210   6.565   7.678   6.321
11990WAT      O36211   1.498   1.143   9.499
11990WAT     H136212   1.409   1.098   9.511
11990WAT     H236213   1.493   1.237   9.532
11991WAT      O36214   1.128   9.147   7.360
11991WAT     H136215   1.158   9.065   7.409
11991WAT     H236216   1.068   9.201   7.419
11992WAT      O36217   9.084   6.992   0.324
11992WAT     H136218   9.074   6.984   0.423
11992WAT     H236219   9.044   6.912   0.280
11993WAT      O36220   0.079   4.910   2.378
11993WAT     H136221  -0.018   4.933   2.390
11993WAT     H236222   0.130   4.991   2.348
11994WAT      O36223   5.272   2.643   3.065
11994WAT     H136224   5.207   2.704   3.019
11994WAT     H236225   5.237   2.550   3.066
11995WAT      O36226   7.429   5.090   3.635
11995WAT     H136227   7.482   5.076   3.719
11995WAT     H236228   7.413   5.001   3.591
11996WAT      O36229   2.840   4.622   3.302
11996WAT     H136230   2.863   4.710   3.343
11996WAT     H236231   2.900   4.604   3.224
11997WAT      O36232   6.528   2.706   5.434
11997WAT     H136233   6.438   2.739   5.463
11997WAT     H236234   6.541   2.611   5.463
11998WAT      O36235   6.715   6.742   2.479
11998WAT     H136236   6.748   6.664   2.426
11998WAT     H236237   6.628   6.774   2.442
11999WAT      O36238   2.479   4.490   3.968
11999WAT     H136239   2.448   4.542   4.048
11999WAT     H236240   2.540   4.417   3.996
12000WAT      O36241   7.304   0.270   9.337
12000WAT     H136242   7.386   0.230   9.378
12000WAT     H236243   7.232   0.201   9.332
12001WAT      O36244   1.307   5.388   4.704
12001WAT     H136245   1.291   5.326   4.781
12001WAT     H236246   1.236   5.459   4.704
12002WAT      O36247   0.737   7.672   3.598
12002WAT     H136248   0.815   7.718   3.641
12002WAT     H236249   0.742   7.683   3.499
12003WAT      O36250   0.865   9.608   9.845
12003WAT     H136251   0.806   9.689   9.853
12003WAT     H236252   0.850   9.565   9.756
12004WAT      O36253   9.013   4.298   6.811
12004WAT     H136254   9.067   4.213   6.814
12004WAT     H236255   9.020   4.346   6.898
12005WAT      O36256   3.997   8.049   5.161
12005WAT     H136257   3.899   8.066   5.160
12005WAT     H236258   4.045   8.134   5.181
12006WAT      O36259   5.899   3.180   6.894
12006WAT     H136260   5.970   3.187   6.965
12006WAT     H236261   5.911   3.254   6.828
12007WAT      O36262   7.380   6.799   1.718
12007WAT     H136263   7.470   6.838   1.698
12007WAT     H236264   7.316   6.873   1.735
12008WAT      O36265   3.734   0.426   0.782
12008WAT     H136266   3.728   0.378   0.870
12008WAT     H236267   3.829   0.424   0.750
12009WAT      O36268   1.694   7.314   0.379
12009WAT     H136269   1.619   7.291   0.317
12009WAT     H236270   1.782   7.296   0.334
12010WAT      O36271   2.466   4.702   2.487
12010WAT     H136272   2.437   4.627   2.428
12010WAT     H236273   2.565   4.701   2.497
12011WAT      O36274   1.647   1.197   8.227
12011WAT     H136275   1.675   1.134   8.300
12011WAT     H236276   1.547   1.200   8.222
12012WAT      O36277   2.270   4.625   4.881
12012WAT     H136278   2.246   4.703   4.939
12012WAT     H236279   2.348   4.577   4.920
12013WAT      O36280   7.336   0.140   9.763
12013WAT     H136281   7.275   0.210   9.801
12013WAT     H236282   7.312   0.051   9.802
12014WAT      O36283   3.432   2.758   1.770
12014WAT     H136284   3.468   2.697   1.699
12014WAT     H236285   3.416   2.706   1.853
12015WAT      O36286   5.903   3.350   6.027
12015WAT     H136287   5.837   3.321   5.958
12015WAT     H236288   5.875   3.440   6.063
12016WAT      O36289   2.101   7.213   7.399
12016WAT     H136290   2.182   7.236   7.453
12016WAT     H236291   2.065   7.296   7.357
12017WAT      O36292   6.448   4.103   5.463
12017WAT     H136293   6.456   4.190   5.512
12017WAT     H236294   6.529   4.047   5.480
12018WAT      O36295   6.436   3.885   8.744
12018WAT     H136296   6.476   3.962   8.793
12018WAT     H236297   6.364   3.844   8.800
12019WAT      O36298   3.169   3.434   3.329
12019WAT     H136299   3.201   3.340   3.316
12019WAT     H236300   3.246   3.497   3.321
12020WAT      O36301   7.111   1.921   7.139
12020WAT     H136302   7.211   1.917   7.146
12020WAT     H236303   7.071   1.844   7.188
12021WAT      O36304   3.388   6.575   3.497
12021WAT     H136305   3.312   6.636   3.476
12021WAT     H236306   3.428   6.542   3.411
12022WAT      O36307   1.230   1.878   5.055
12022WAT     H136308   1.252   1.860   5.151
12022WAT     H236309   1.311   1.859   4.999
12023WAT      O36310   6.409   9.285   4.949
12023WAT     H136311   6.336   9.222   4.925
12023WAT     H236312   6.398   9.315   5.044
12024WAT      O36313   6.795   7.902   9.339
12024WAT     H136314   6.831   7.953   9.418
12024WAT     H236315   6.732   7.832   9.371
12025WAT      O36316   2.646   3.440   1.933
12025WAT     H136317   2.598   3.500   1.870
12025WAT     H236318   2.726   3.487   1.970
12026WAT      O36319   0.202   6.689   8.585
12026WAT     H136320   0.288   6.659   8.626
12026WAT     H236321   0.218   6.772   8.531
12027WAT      O36322   1.116   1.738   4.196
12027WAT     H136323   1.174   1.816   4.216
12027WAT     H236324   1.024   1.755   4.232
12028WAT      O36325   7.396   2.484   7.883
12028WAT     H136326   7.353   2.542   7.815
12028WAT     H236327   7.339   2.404   7.900
12029WAT      O36328   8.340   3.856   4.466
12029WAT     H136329   8.335   3.945   4.510
12029WAT     H236330   8.283   3.857   4.383
12030WAT      O36331   6.859   5.825   0.831
12030WAT     H136332   6.910   5.852   0.913
12030WAT     H236333   6.886   5.882   0.754
12031WAT      O36334   6.040   6.898   4.460
12031WAT     H136335   5.943   6.892   4.438
12031WAT     H236336   6.062   6.993   4.484
12032WAT      O36337   9.569   1.556   7.952
12032WAT     H136338   9.579   1.457   7.963
12032WAT     H236339   9.563   1.599   8.041
12033WAT      O36340   4.750   8.229   7.462
12033WAT     H136341   4.814   8.158   7.433
12033WAT     H236342   4.659   8.209   7.426
12034WAT      O36343   1.504   6.224   7.800
12034WAT     H136344   1.424   6.190   7.750
12034WAT     H236345   1.504   6.187   7.893
12035WAT      O36346   3.236   6.835   5.933
12035WAT     H136347   3.207   6.759   5.991
12035WAT     H236348   3.208   6.817   5.839
12036WAT      O36349   6.143   4.543   4.129
12036WAT     H136350   6.113   4.633   4.098
12036WAT     H236351   6.198   4.553   4.213
12037WAT      O36352   2.658   6.595   3.900
12037WAT     H136353   2.736   6.538   3.874
12037WAT     H236354   2.689   6.690   3.910
12038WAT      O36355   8.029   8.541   1.076
12038WAT     H136356   8.061   8.447   1.084
12038WAT     H236357   7.999   8.558   0.982
12039WAT      O36358   8.916   6.721   6.099
12039WAT     H136359   8.852   6.740   6.173
12039WAT     H236360   9.003   6.690   6.138
12040WAT      O36361   5.767   3.732   2.078
12040WAT     H136362   5.807   3.659   2.023
12040WAT     H236363   5.711   3.692   2.151
12041WAT      O36364   3.204   4.593   1.599
12041WAT     H136365   3.234   4.653   1.673
12041WAT     H236366   3.211   4.498   1.628
12042WAT      O36367   7.675   4.659   9.167
12042WAT     H136368   7.589   4.608   9.175
12042WAT     H236369   7.684   4.694   9.074
12043WAT      O36370   6.277   7.420   2.522
12043WAT     H136371   6.223   7.377   2.595
12043WAT     H236372   6.215   7.455   2.452
12044WAT      O36373   8.826   5.118   7.614
12044WAT     H136374   8.860   5.150   7.526
12044WAT     H236375   8.753   5.052   7.600
12045WAT      O36376   4.616   2.722   5.456
12045WAT     H136377   4.619   2.771   5.544
12045WAT     H236378   4.548   2.649   5.462
12046WAT      O36379   9.441   0.184   6.986
12046WAT     H136380   9.366   0.237   6.948
12046WAT     H236381   9.426   0.169   7.084
12047WAT      O36382   0.696   5.419   0.179
12047WAT     H136383   0.782   5.448   0.138
12047WAT     H236384   0.685   5.320   0.171
12048WAT      O36385   5.028   3.041   6.355
12048WAT     H136386   4.982   3.075   6.438
12048WAT     H236387   5.037   3.115   6.289
12049WAT      O36388   0.349   8.323   4.413
12049WAT     H136389   0.436   8.276   4.396
12049WAT     H236390   0.289   8.264   4.466
12050WAT      O36391   6.511   1.355   1.335
12050WAT     H136392   6.555   1.394   1.254
12050WAT     H236393   6.413   1.343   1.317
12051WAT      O36394   0.827   8.887   0.982
12051WAT     H136395   0.755   8.910   1.048
12051WAT     H236396   0.865   8.797   1.004
12052WAT      O36397   6.352   9.425   9.482
12052WAT     H136398   6.302   9.452   9.564
12052WAT     H236399   6.312   9.342   9.444
12053WAT      O36400   4.305   8.224   9.256
12053WAT     H136401   4.237   8.156   9.228
12053WAT     H236402   4.389   8.177   9.283
12054WAT      O36403   3.461   5.590   0.485
12054WAT     H136404   3.479   5.679   0.526
12054WAT     H236405   3.532   5.525   0.515
12055WAT      O36406   0.183   6.723   6.639
12055WAT     H136407   0.196   6.803   6.580
12055WAT     H236408   0.264   6.710   6.695
12056WAT      O36409   5.142   0.495   3.594
12056WAT     H136410   5.226   0.447   3.618
12056WAT     H236411   5.111   0.466   3.504
12057WAT      O36412   3.029   1.900   8.751
12057WAT     H136413   2.938   1.938   8.767
12057WAT     H236414   3.052   1.910   8.654
12058WAT      O36415   8.854   3.237   1.212
12058WAT     H136416   8.822   3.331   1.221
12058WAT     H236417   8.842   3.207   1.117
12059WAT      O36418   0.184   9.830   9.090
12059WAT     H136419   0.139   9.894   9.153
12059WAT     H236420   0.257   9.878   9.041
12060WAT      O36421   3.952   1.025   4.694
12060WAT     H136422   3.935   0.928   4.679
12060WAT     H236423   3.885   1.062   4.758
12061WAT      O36424   9.849   7.425   4.247
12061WAT     H136425   9.796   7.454   4.167
12061WAT     H236426   9.938   7.470   4.246
12062WAT      O36427   9.467   8.385   9.232
12062WAT     H136428   9.461   8.472   9.183
12062WAT     H236429   9.478   8.310   9.166
12063WAT      O36430   5.815   3.886   1.375
12063WAT     H136431   5.760   3.884   1.291
12063WAT     H236432   5.911   3.901   1.352
12064WAT      O36433   7.302   8.095   0.452
12064WAT     H136434   7.203   8.105   0.454
12064WAT     H236435   7.342   8.167   0.395
12065WAT      O36436   0.887   0.841   5.359
12065WAT     H136437   0.804   0.885   5.394
12065WAT     H236438   0.956   0.836   5.431
12066WAT      O36439   6.786   4.790   7.085
12066WAT     H136440   6.711   4.838   7.129
12066WAT     H236441   6.804   4.831   6.995
12067WAT      O36442   8.766   1.735   4.343
12067WAT     H136443   8.700   1.718   4.416
12067WAT     H236444   8.854   1.758   4.383
12068WAT      O36445   5.709   0.527   3.702
12068WAT     H136446   5.656   0.485   3.629
12068WAT     H236447   5.793   0.567   3.663
12069WAT      O36448   5.028   0.904   3.544
12069WAT     H136449   4.995   0.842   3.616
12069WAT     H236450   5.074   0.982   3.587
12070WAT      O36451   4.802   0.660   6.145
12070WAT     H136452   4.895   0.631   6.123
12070WAT     H236453   4.743   0.580   6.157
12071WAT      O36454   9.408   4.420   4.591
12071WAT     H136455   9.343   4.494   4.607
12071WAT     H236456   9.357   4.337   4.565
12072WAT      O36457   3.359   7.309   8.171
12072WAT     H136458   3.413   7.343   8.248
12072WAT     H236459   3.417   7.302   8.090
12073WAT      O36460   8.482   4.458   0.590
12073WAT     H136461   8.450   4.423   0.502
12073WAT     H236462   8.467   4.556   0.595
12074WAT      O36463   2.923   2.277   8.795
12074WAT     H136464   2.952   2.281   8.699
12074WAT     H236465   2.865   2.196   8.808
12075WAT      O36466   0.092   0.101   1.769
12075WAT     H136467   0.138   0.184   1.738
12075WAT     H236468   0.145   0.021   1.739
12076WAT      O36469   5.078   2.825   5.520
12076WAT     H136470   5.027   2.876   5.451
12076WAT     H236471   5.018   2.805   5.597
12077WAT      O36472   8.068   4.963   4.808
12077WAT     H136473   8.083   5.007   4.897
12077WAT     H236474   8.005   5.017   4.754
12078WAT      O36475   9.858   0.947   3.511
12078WAT     H136476   9.832   0.851   3.514
12078WAT     H236477   9.857   0.980   3.417
12079WAT      O36478   8.537   8.509   3.428
12079WAT     H136479   8.467   8.496   3.358
12079WAT     H236480   8.553   8.422   3.475
12080WAT      O36481   1.904   4.791   1.567
12080WAT     H136482   1.940   4.723   1.504
12080WAT     H236483   1.839   4.850   1.519
12081WAT      O36484   0.127   2.091   9.708
12081WAT     H136485   0.179   2.052   9.784
12081WAT     H236486   0.100   2.018   9.645
12082WAT      O36487   8.488   1.557   2.173
12082WAT     H136488   8.405   1.520   2.216
12082WAT     H236489   8.467   1.590   2.082
12083WAT      O36490   9.020   6.215   6.448
12083WAT     H136491   8.946   6.148   6.457
12083WAT     H236492   9.104   6.177   6.488
12084WAT      O36493   0.462   8.778   6.794
12084WAT     H136494   0.439   8.706   6.729
12084WAT     H236495   0.542   8.751   6.848
12085WAT      O36496   4.729   7.599   3.700
12085WAT     H136497   4.650   7.632   3.752
12085WAT     H236498   4.726   7.636   3.608
12086WAT      O36499   6.034   0.713   7.439
12086WAT     H136500   6.062   0.808   7.432
12086WAT     H236501   5.934   0.707   7.438
12087WAT      O36502   6.157   9.649   6.689
12087WAT     H136503   6.185   9.613   6.778
12087WAT     H236504   6.074   9.602   6.659
12088WAT      O36505   5.706   2.197   9.430
12088WAT     H136506   5.779   2.239   9.483
12088WAT     H236507   5.653   2.267   9.383
12089WAT      O36508   9.106   9.662   1.898
12089WAT     H136509   9.099   9.567   1.869
12089WAT     H236510   9.187   9.704   1.857
12090WAT      O36511   6.475   3.815   5.938
12090WAT     H136512   6.476   3.803   6.037
12090WAT     H236513   6.439   3.906   5.916
12091WAT      O36514   9.567   8.598   2.859
12091WAT     H136515   9.471   8.610   2.886
12091WAT     H236516   9.577   8.616   2.761
12092WAT      O36517   7.368   9.680   1.445
12092WAT     H136518   7.432   9.749   1.479
12092WAT     H236519   7.408   9.589   1.460
12093WAT      O36520   3.528   9.183   1.386
12093WAT     H136521   3.515   9.235   1.301
12093WAT     H236522   3.486   9.093   1.377
12094WAT      O36523   1.313   9.105   1.139
12094WAT     H136524   1.224   9.079   1.100
12094WAT     H236525   1.384   9.046   1.102
12095WAT      O36526   3.002   4.733   7.600
12095WAT     H136527   2.988   4.706   7.696
12095WAT     H236528   3.082   4.794   7.595
12096WAT      O36529   9.522   0.350   8.628
12096WAT     H136530   9.538   0.386   8.536
12096WAT     H236531   9.468   0.266   8.622
12097WAT      O36532   5.001   8.134   5.489
12097WAT     H136533   5.056   8.218   5.486
12097WAT     H236534   5.047   8.064   5.434
12098WAT      O36535   3.965   8.405   5.856
12098WAT     H136536   4.019   8.430   5.776
12098WAT     H236537   3.999   8.319   5.893
12099WAT      O36538   4.616   8.128   7.015
12099WAT     H136539   4.615   8.035   6.980
12099WAT     H236540   4.568   8.131   7.103
12100WAT      O36541   2.086   2.854   9.148
12100WAT     H136542   2.081   2.889   9.054
12100WAT     H236543   2.181   2.843   9.175
12101WAT      O36544   9.315   0.658   0.454
12101WAT     H136545   9.310   0.698   0.545
12101WAT     H236546   9.231   0.608   0.435
12102WAT      O36547   5.056   3.505   5.091
12102WAT     H136548   5.110   3.519   5.174
12102WAT     H236549   4.964   3.475   5.116
12103WAT      O36550   8.119   7.152   0.518
12103WAT     H136551   8.103   7.214   0.442
12103WAT     H236552   8.190   7.087   0.492
12104WAT      O36553   6.956   2.957   7.932
12104WAT     H136554   6.876   2.988   7.982
12104WAT     H236555   7.005   3.037   7.896
12105WAT      O36556   7.655   7.501   6.647
12105WAT     H136557   7.585   7.492   6.717
12105WAT     H236558   7.711   7.582   6.665
12106WAT      O36559   0.606   5.754   6.188
12106WAT     H136560   0.690   5.749   6.242
12106WAT     H236561   0.529   5.723   6.244
12107WAT      O36562   5.512   3.599   6.179
12107WAT     H136563   5.568   3.682   6.182
12107WAT     H236564   5.513   3.555   6.269
12108WAT      O36565   0.016   8.689   1.200
12108WAT     H136566  -0.014   8.747   1.124
12108WAT     H236567   0.077   8.741   1.259
12109WAT      O36568   1.237   4.686   7.195
12109WAT     H136569   1.187   4.739   7.126
12109WAT     H236570   1.323   4.655   7.156
12110WAT      O36571   8.212   5.559   3.051
12110WAT     H136572   8.149   5.578   2.976
12110WAT     H236573   8.218   5.639   3.111
12111WAT      O36574   6.645   8.140   5.927
12111WAT     H136575   6.559   8.116   5.883
12111WAT     H236576   6.689   8.058   5.963
12112WAT      O36577   2.203   4.256   8.948
12112WAT     H136578   2.130   4.240   8.881
12112WAT     H236579   2.183   4.339   9.000
12113WAT      O36580   7.198   5.860   0.521
12113WAT     H136581   7.121   5.882   0.583
12113WAT     H236582   7.260   5.796   0.567
12114WAT      O36583   3.498   4.113   3.141
12114WAT     H136584   3.536   4.043   3.201
12114WAT     H236585   3.535   4.202   3.165
12115WAT      O36586   2.990   5.980   3.117
12115WAT     H136587   2.948   6.032   3.044
12115WAT     H236588   3.086   6.007   3.127
12116WAT      O36589   0.480   9.240   9.794
12116WAT     H136590   0.439   9.152   9.767
12116WAT     H236591   0.506   9.291   9.712
12117WAT      O36592   7.152   1.484   1.918
12117WAT     H136593   7.072   1.535   1.886
12117WAT     H236594   7.145   1.471   2.017
12118WAT      O36595   5.022   1.105   8.389
12118WAT     H136596   5.039   1.183   8.330
12118WAT     H236597   5.107   1.055   8.405
12119WAT      O36598   9.788   2.562   1.488
12119WAT     H136599   9.843   2.501   1.545
12119WAT     H236600   9.823   2.560   1.394
12120WAT      O36601   1.990   4.956   3.918
12120WAT     H136602   2.063   4.974   3.984
12120WAT     H236603   2.010   4.872   3.868
12121WAT      O36604   2.974   0.048   2.403
12121WAT     H136605   3.051  -0.010   2.376
12121WAT     H236606   3.001   0.105   2.481
12122WAT      O36607   8.286   9.615   0.612
12122WAT     H136608   8.380   9.605   0.643
12122WAT     H236609   8.282   9.617   0.512
12123WAT      O36610   8.557   6.727   2.375
12123WAT     H136611   8.576   6.784   2.455
12123WAT     H236612   8.528   6.636   2.405
12124WAT      O36613   1.439   0.588   9.115
12124WAT     H136614   1.485   0.641   9.044
12124WAT     H236615   1.405   0.502   9.076
12125WAT      O36616   8.045   9.640   1.776
12125WAT     H136617   8.118   9.573   1.789
12125WAT     H236618   7.972   9.599   1.722
12126WAT      O36619   0.389   4.151   8.173
12126WAT     H136620   0.357   4.059   8.149
12126WAT     H236621   0.363   4.215   8.101
12127WAT      O36622   5.496   1.087   8.024
12127WAT     H136623   5.497   1.175   8.071
12127WAT     H236624   5.474   1.015   8.089
12128WAT      O36625   6.141   0.627   8.076
12128WAT     H136626   6.231   0.615   8.118
12128WAT     H236627   6.146   0.600   7.980
12129WAT      O36628   7.307   8.522   8.236
12129WAT     H136629   7.238   8.562   8.175
12129WAT     H236630   7.266   8.505   8.326
12130WAT      O36631   6.701   5.199   3.972
12130WAT     H136632   6.754   5.224   4.054
12130WAT     H236633   6.710   5.271   3.904
12131WAT      O36634   5.123   4.597   3.662
12131WAT     H136635   5.157   4.549   3.581
12131WAT     H236636   5.033   4.635   3.643
12132WAT      O36637   7.066   7.958   9.843
12132WAT     H136638   6.983   7.914   9.876
12132WAT     H236639   7.141   7.939   9.906
12133WAT      O36640   3.867   5.205   2.571
12133WAT     H136641   3.921   5.231   2.651
12133WAT     H236642   3.891   5.112   2.543
12134WAT      O36643   3.461   2.275   8.443
12134WAT     H136644   3.404   2.204   8.484
12134WAT     H236645   3.551   2.237   8.420
12135WAT      O36646   5.739   7.233   3.879
12135WAT     H136647   5.799   7.171   3.827
12135WAT     H236648   5.755   7.220   3.977
12136WAT      O36649   0.278   8.926   5.164
12136WAT     H136650   0.348   8.919   5.094
12136WAT     H236651   0.285   9.014   5.210
12137WAT      O36652   5.708   6.367   4.252
12137WAT     H136653   5.708   6.426   4.171
12137WAT     H236654   5.732   6.274   4.226
12138WAT      O36655   3.264   7.680   9.835
12138WAT     H136656   3.220   7.592   9.853
12138WAT     H236657   3.197   7.754   9.846
12139WAT      O36658   5.321   9.708   4.890
12139WAT     H136659   5.248   9.650   4.854
12139WAT     H236660   5.373   9.657   4.958
12140WAT      O36661   7.723   5.299   3.981
12140WAT     H136662   7.651   5.323   3.916
12140WAT     H236663   7.777   5.381   4.002
12141WAT      O36664   5.811   4.389   6.616
12141WAT     H136665   5.824   4.382   6.715
12141WAT     H236666   5.855   4.472   6.582
12142WAT      O36667   8.059   2.480   8.756
12142WAT     H136668   8.104   2.396   8.784
12142WAT     H236669   7.962   2.477   8.781
12143WAT      O36670   0.939   1.011   8.532
12143WAT     H136671   0.846   1.045   8.541
12143WAT     H236672   0.948   0.926   8.585
12144WAT      O36673   9.267   4.510   5.096
12144WAT     H136674   9.272   4.516   5.195
12144WAT     H236675   9.264   4.414   5.068
12145WAT      O36676   3.045   7.260   6.670
12145WAT     H136677   3.077   7.214   6.587
12145WAT     H236678   3.123   7.278   6.730
12146WAT      O36679   5.356   8.676   9.186
12146WAT     H136680   5.291   8.746   9.157
12146WAT     H236681   5.387   8.624   9.106
12147WAT      O36682   7.654   8.318   3.324
12147WAT     H136683   7.669   8.335   3.226
12147WAT     H236684   7.591   8.387   3.360
12148WAT      O36685   5.283   2.019   5.995
12148WAT     H136686   5.319   1.938   6.041
12148WAT     H236687   5.188   2.003   5.969
12149WAT      O36688   7.749   3.907   5.282
12149WAT     H136689   7.843   3.896   5.251
12149WAT     H236690   7.697   3.825   5.258
12150WAT      O36691   8.944   8.194   4.922
12150WAT     H136692   8.954   8.097   4.898
12150WAT     H236693   8.865   8.205   4.982
12151WAT      O36694   1.292   3.545   5.013
12151WAT     H136695   1.332   3.454   5.023
12151WAT     H236696   1.295   3.593   5.101
12152WAT      O36697   4.796   9.315   3.576
12152WAT     H136698   4.754   9.239   3.527
12152WAT     H236699   4.887   9.333   3.539
12153WAT      O36700   9.187   0.403   6.079
12153WAT     H136701   9.163   0.484   6.132
12153WAT     H236702   9.268   0.422   6.024
12154WAT      O36703   1.936   5.397   8.740
12154WAT     H136704   1.935   5.323   8.672
12154WAT     H236705   1.875   5.470   8.709
12155WAT      O36706   6.966   9.234   6.803
12155WAT     H136707   6.912   9.151   6.803
12155WAT     H236708   7.028   9.234   6.881
12156WAT      O36709   1.217   5.977   1.087
12156WAT     H136710   1.118   5.965   1.079
12156WAT     H236711   1.238   6.073   1.100
12157WAT      O36712   4.469   5.303   1.857
12157WAT     H136713   4.546   5.360   1.883
12157WAT     H236714   4.457   5.307   1.757
12158WAT      O36715   7.354   8.418   1.008
12158WAT     H136716   7.296   8.439   0.929
12158WAT     H236717   7.321   8.469   1.087
12159WAT      O36718   0.722   0.875   6.990
12159WAT     H136719   0.756   0.905   6.901
12159WAT     H236720   0.800   0.862   7.052
12160WAT      O36721   3.434   3.911   8.794
12160WAT     H136722   3.370   3.858   8.737
12160WAT     H236723   3.525   3.870   8.788
12161WAT      O36724   5.330   9.503   5.921
12161WAT     H136725   5.368   9.592   5.946
12161WAT     H236726   5.338   9.490   5.822
12162WAT      O36727   8.352   6.138   3.243
12162WAT     H136728   8.322   6.045   3.223
12162WAT     H236729   8.452   6.143   3.240
12163WAT      O36730   9.022   7.384   2.689
12163WAT     H136731   8.961   7.346   2.759
12163WAT     H236732   8.996   7.348   2.599
12164WAT      O36733   2.097   1.134   6.077
12164WAT     H136734   2.108   1.086   5.990
12164WAT     H236735   2.160   1.212   6.080
12165WAT      O36736   6.416   6.338   7.189
12165WAT     H136737   6.419   6.276   7.111
12165WAT     H236738   6.477   6.415   7.174
12166WAT      O36739   2.452   7.082   7.277
12166WAT     H136740   2.442   6.990   7.239
12166WAT     H236741   2.380   7.141   7.240
12167WAT      O36742   0.019   4.484   7.765
12167WAT     H136743  -0.047   4.436   7.822
12167WAT     H236744   0.084   4.532   7.824
12168WAT      O36745   2.497   9.006   0.535
12168WAT     H136746   2.484   8.952   0.618
12168WAT     H236747   2.541   8.949   0.465
12169WAT      O36748   5.709   3.766   0.304
12169WAT     H136749   5.769   3.803   0.375
12169WAT     H236750   5.747   3.787   0.214
12170WAT      O36751   4.092   5.394   9.584
12170WAT     H136752   4.005   5.397   9.632
12170WAT     H236753   4.077   5.374   9.487
12171WAT      O36754   6.078   1.646   3.009
12171WAT     H136755   5.985   1.683   2.997
12171WAT     H236756   6.079   1.588   3.090
12172WAT      O36757   7.982   0.739   7.356
12172WAT     H136758   8.031   0.720   7.442
12172WAT     H236759   7.887   0.710   7.366
12173WAT      O36760   1.979   5.922   2.705
12173WAT     H136761   1.929   5.835   2.713
12173WAT     H236762   1.922   5.996   2.739
12174WAT      O36763   6.653   5.338   1.156
12174WAT     H136764   6.746   5.302   1.155
12174WAT     H236765   6.651   5.426   1.109
12175WAT      O36766   2.364   5.336   6.496
12175WAT     H136767   2.384   5.246   6.457
12175WAT     H236768   2.330   5.396   6.424
12176WAT      O36769   2.009   0.677   1.282
12176WAT     H136770   2.073   0.752   1.266
12176WAT     H236771   2.052   0.608   1.340
12177WAT      O36772   1.399   2.222   1.274
12177WAT     H136773   1.374   2.240   1.179
12177WAT     H236774   1.411   2.308   1.323
12178WAT      O36775   4.249   2.588   5.763
12178WAT     H136776   4.344   2.562   5.743
12178WAT     H236777   4.244   2.623   5.857
12179WAT      O36778   7.411   5.240   1.372
12179WAT     H136779   7.493   5.211   1.322
12179WAT     H236780   7.380   5.328   1.337
12180WAT      O36781   7.440   2.232   6.929
12180WAT     H136782   7.493   2.169   6.986
12180WAT     H236783   7.497   2.309   6.903
12181WAT      O36784   2.951   6.162   6.407
12181WAT     H136785   2.879   6.171   6.476
12181WAT     H236786   2.996   6.250   6.393
12182WAT      O36787   9.161   2.786   7.785
12182WAT     H136788   9.122   2.878   7.779
12182WAT     H236789   9.091   2.723   7.821
12183WAT      O36790   2.495   0.221   4.843
12183WAT     H136791   2.567   0.290   4.838
12183WAT     H236792   2.437   0.226   4.762
12184WAT      O36793   6.989   9.083   1.986
12184WAT     H136794   7.056   9.071   2.060
12184WAT     H236795   6.910   9.132   2.021
12185WAT      O36796   7.161   1.320   1.582
12185WAT     H136797   7.225   1.270   1.524
12185WAT     H236798   7.084   1.352   1.526
12186WAT      O36799   6.684   2.437   9.880
12186WAT     H136800   6.650   2.344   9.867
12186WAT     H236801   6.610   2.502   9.865
12187WAT      O36802   6.827   1.246   8.884
12187WAT     H136803   6.802   1.295   8.800
12187WAT     H236804   6.834   1.148   8.864
12188WAT      O36805   8.642   6.989   6.348
12188WAT     H136806   8.697   6.906   6.334
12188WAT     H236807   8.626   7.003   6.446
12189WAT      O36808   0.345   4.361   2.956
12189WAT     H136809   0.372   4.372   3.052
12189WAT     H236810   0.427   4.353   2.899
12190WAT      O36811   7.663   9.394   0.851
12190WAT     H136812   7.711   9.352   0.774
12190WAT     H236813   7.569   9.415   0.824
12191WAT      O36814   3.901   1.621   7.527
12191WAT     H136815   3.982   1.563   7.518
12191WAT     H236816   3.851   1.596   7.609
12192WAT      O36817   8.515   4.471   1.038
12192WAT     H136818   8.606   4.513   1.038
12192WAT     H236819   8.523   4.376   1.009
12193WAT      O36820   4.499   3.687   8.643
12193WAT     H136821   4.402   3.699   8.665
12193WAT     H236822   4.544   3.636   8.716
12194WAT      O36823   2.964   9.640   2.675
12194WAT     H136824   2.967   9.728   2.628
12194WAT     H236825   2.983   9.654   2.772
12195WAT      O36826   1.583   8.262   6.292
12195WAT     H136827   1.610   8.186   6.234
12195WAT     H236828   1.655   8.280   6.359
12196WAT      O36829   5.558   2.876   9.132
12196WAT     H136830   5.641   2.900   9.181
12196WAT     H236831   5.508   2.805   9.182
12197WAT      O36832   3.710   5.666   5.308
12197WAT     H136833   3.742   5.577   5.276
12197WAT     H236834   3.674   5.657   5.401
12198WAT      O36835   9.433   7.205   3.358
12198WAT     H136836   9.378   7.123   3.376
12198WAT     H236837   9.443   7.217   3.259
12199WAT      O36838   8.559   4.905   8.878
12199WAT     H136839   8.576   4.830   8.943
12199WAT     H236840   8.594   4.991   8.917
12200WAT      O36841   5.508   4.341   1.061
12200WAT     H136842   5.524   4.264   1.123
12200WAT     H236843   5.438   4.316   0.995
12201WAT      O36844   9.618   1.922   7.333
12201WAT     H136845   9.518   1.933   7.338
12201WAT     H236846   9.657   1.998   7.281
12202WAT      O36847   8.181   0.920   4.179
12202WAT     H136848   8.143   0.828   4.180
12202WAT     H236849   8.171   0.961   4.089
12203WAT      O36850   8.687   6.911   3.460
12203WAT     H136851   8.638   6.998   3.467
12203WAT     H236852   8.624   6.836   3.480
12204WAT      O36853   9.452   3.242   1.980
12204WAT     H136854   9.454   3.197   1.890
12204WAT     H236855   9.378   3.309   1.983
12205WAT      O36856   9.130   4.122   5.290
12205WAT     H136857   9.061   4.067   5.336
12205WAT     H236858   9.096   4.149   5.200
12206WAT      O36859   0.273   5.588   0.169
12206WAT     H136860   0.218   5.568   0.088
12206WAT     H236861   0.221   5.645   0.232
12207WAT      O36862   5.430   7.202   9.541
12207WAT     H136863   5.392   7.188   9.632
12207WAT     H236864   5.530   7.201   9.545
12208WAT      O36865   6.945   9.425   5.284
12208WAT     H136866   7.038   9.457   5.263
12208WAT     H236867   6.884   9.451   5.209
12209WAT      O36868   1.574   3.628   3.209
12209WAT     H136869   1.514   3.653   3.285
12209WAT     H236870   1.660   3.679   3.216
12210WAT      O36871   5.645   4.448   9.332
12210WAT     H136872   5.591   4.446   9.416
12210WAT     H236873   5.621   4.530   9.279
12211WAT      O36874   2.757   5.968   5.595
12211WAT     H136875   2.772   6.029   5.518
12211WAT     H236876   2.660   5.970   5.620
12212WAT      O36877   2.082   8.340   1.174
12212WAT     H136878   2.168   8.334   1.226
12212WAT     H236879   2.100   8.382   1.085
12213WAT      O36880   5.031   8.825   6.128
12213WAT     H136881   4.981   8.740   6.110
12213WAT     H236882   5.012   8.891   6.055
12214WAT      O36883   8.459   7.154   5.144
12214WAT     H136884   8.393   7.227   5.165
12214WAT     H236885   8.543   7.195   5.108
12215WAT      O36886   9.144   9.442   6.630
12215WAT     H136887   9.231   9.415   6.590
12215WAT     H236888   9.118   9.377   6.702
12216WAT      O36889   0.971   2.327   7.490
12216WAT     H136890   1.034   2.284   7.555
12216WAT     H236891   1.017   2.403   7.444
12217WAT      O36892   0.346   5.324   6.262
12217WAT     H136893   0.257   5.366   6.240
12217WAT     H236894   0.352   5.234   6.218
12218WAT      O36895   5.909   8.531   8.688
12218WAT     H136896   5.975   8.508   8.617
12218WAT     H236897   5.898   8.453   8.750
12219WAT      O36898   2.639   8.117   1.849
12219WAT     H136899   2.626   8.053   1.773
12219WAT     H236900   2.560   8.111   1.911
12220WAT      O36901   6.104   3.613   7.312
12220WAT     H136902   6.086   3.583   7.219
12220WAT     H236903   6.202   3.630   7.324
12221WAT      O36904   1.662   9.543   4.519
12221WAT     H136905   1.600   9.578   4.590
12221WAT     H236906   1.655   9.444   4.515
12222WAT      O36907   6.262   0.414   3.098
12222WAT     H136908   6.258   0.440   3.195
12222WAT     H236909   6.332   0.344   3.086
12223WAT      O36910   7.169   6.601   8.284
12223WAT     H136911   7.208   6.646   8.203
12223WAT     H236912   7.132   6.512   8.257
12224WAT      O36913   4.396   9.613   8.403
12224WAT     H136914   4.304   9.624   8.365
12224WAT     H236915   4.463   9.654   8.340
12225WAT      O36916   8.286   8.487   3.633
12225WAT     H136917   8.377   8.506   3.596
12225WAT     H236918   8.257   8.395   3.606
12226WAT      O36919   7.238   4.623   6.450
12226WAT     H136920   7.244   4.686   6.527
12226WAT     H236921   7.327   4.579   6.436
12227WAT      O36922   4.671   0.097   3.541
12227WAT     H136923   4.642   0.002   3.549
12227WAT     H236924   4.757   0.110   3.590
12228WAT      O36925   9.563   1.238   0.857
12228WAT     H136926   9.605   1.284   0.779
12228WAT     H236927   9.589   1.141   0.856
12229WAT      O36928   8.620   9.467   6.526
12229WAT     H136929   8.661   9.557   6.540
12229WAT     H236930   8.690   9.397   6.531
12230WAT      O36931   0.917   1.858   6.273
12230WAT     H136932   0.941   1.948   6.309
12230WAT     H236933   1.000   1.809   6.246
12231WAT      O36934   3.771   1.287   2.324
12231WAT     H136935   3.720   1.201   2.334
12231WAT     H236936   3.854   1.282   2.379
12232WAT      O36937   3.566   9.455   0.269
12232WAT     H136938   3.650   9.422   0.312
12232WAT     H236939   3.545   9.546   0.302
12233WAT      O36940   2.378   0.019   7.343
12233WAT     H136941   2.423   0.077   7.411
12233WAT     H236942   2.439  -0.055   7.317
12234WAT      O36943   2.855   6.660   7.345
12234WAT     H136944   2.887   6.744   7.389
12234WAT     H236945   2.756   6.651   7.358
12235WAT      O36946   9.151   7.043   9.439
12235WAT     H136947   9.237   7.021   9.486
12235WAT     H236948   9.171   7.086   9.351
12236WAT      O36949   6.363   8.348   2.481
12236WAT     H136950   6.440   8.387   2.532
12236WAT     H236951   6.383   8.253   2.457
12237WAT      O36952   5.604   2.184   1.547
12237WAT     H136953   5.537   2.161   1.619
12237WAT     H236954   5.643   2.274   1.565
12238WAT      O36955   8.030   8.683   5.179
12238WAT     H136956   8.058   8.701   5.274
12238WAT     H236957   8.010   8.769   5.133
12239WAT      O36958   4.566   9.055   5.173
12239WAT     H136959   4.535   9.093   5.260
12239WAT     H236960   4.488   9.020   5.122
12240WAT      O36961   4.218   5.170   6.758
12240WAT     H136962   4.220   5.258   6.805
12240WAT     H236963   4.218   5.185   6.659
12241WAT      O36964   5.376   2.012   2.777
12241WAT     H136965   5.418   1.943   2.717
12241WAT     H236966   5.435   2.093   2.781
12242WAT      O36967   9.830   5.900   0.094
12242WAT     H136968   9.813   5.881   0.191
12242WAT     H236969   9.871   5.990   0.085
12243WAT      O36970   6.515   4.317   0.559
12243WAT     H136971   6.602   4.315   0.509
12243WAT     H236972   6.440   4.293   0.497
12244WAT      O36973   3.429   5.196   6.725
12244WAT     H136974   3.434   5.143   6.810
12244WAT     H236975   3.403   5.290   6.746
12245WAT      O36976   5.523   6.796   2.716
12245WAT     H136977   5.469   6.776   2.798
12245WAT     H236978   5.486   6.744   2.638
12246WAT      O36979   3.948   1.320   1.868
12246WAT     H136980   3.929   1.222   1.862
12246WAT     H236981   3.916   1.365   1.785
12247WAT      O36982   5.280   7.746   5.681
12247WAT     H136983   5.274   7.759   5.780
12247WAT     H236984   5.317   7.656   5.661
12248WAT      O36985   8.358   2.175   0.550
12248WAT     H136986   8.321   2.123   0.626
12248WAT     H236987   8.284   2.217   0.498
12249WAT      O36988   3.377   0.154   7.185
12249WAT     H136989   3.379   0.239   7.237
12249WAT     H236990   3.340   0.081   7.242
12250WAT      O36991   1.252   8.584   2.250
12250WAT     H136992   1.317   8.535   2.307
12250WAT     H236993   1.230   8.672   2.292
12251WAT      O36994   6.052   1.213   4.614
12251WAT     H136995   6.104   1.162   4.682
12251WAT     H236996   5.959   1.174   4.607
12252WAT      O36997   7.200   0.571   9.630
12252WAT     H136998   7.188   0.670   9.619
12252WAT     H236999   7.135   0.523   9.570
12253WAT      O37000   8.564   9.653   0.698
12253WAT     H137001   8.570   9.592   0.619
12253WAT     H237002   8.652   9.656   0.745
12254WAT      O37003   4.395   2.789   0.674
12254WAT     H137004   4.383   2.831   0.764
12254WAT     H237005   4.403   2.860   0.605
12255WAT      O37006   0.905   3.744   1.519
12255WAT     H137007   0.894   3.809   1.445
12255WAT     H237008   0.840   3.766   1.592
12256WAT      O37009   7.501   3.234   9.478
12256WAT     H137010   7.412   3.262   9.441
12256WAT     H237011   7.504   3.255   9.576
12257WAT      O37012   1.383   6.671   9.244
12257WAT     H137013   1.464   6.620   9.219
12257WAT     H237014   1.318   6.611   9.290
12258WAT      O37015   2.967   1.321   2.081
12258WAT     H137016   2.995   1.301   2.175
12258WAT     H237017   3.039   1.292   2.018
12259WAT      O37018   8.829   4.647   0.730
12259WAT     H137019   8.871   4.628   0.642
12259WAT     H237020   8.896   4.689   0.791
12260WAT      O37021   8.439   6.412   6.905
12260WAT     H137022   8.339   6.419   6.896
12260WAT     H237023   8.461   6.360   6.987
12261WAT      O37024   7.095   5.636   9.871
12261WAT     H137025   7.079   5.732   9.894
12261WAT     H237026   7.120   5.628   9.775
12262WAT      O37027   1.826   5.208   2.208
12262WAT     H137028   1.816   5.127   2.265
12262WAT     H237029   1.875   5.279   2.259
12263WAT      O37030   1.173   5.494   3.664
12263WAT     H137031   1.271   5.489   3.641
12263WAT     H237032   1.121   5.516   3.582
12264WAT      O37033   4.930   1.036   1.087
12264WAT     H137034   4.987   1.021   1.168
12264WAT     H237035   4.960   1.117   1.039
12265WAT      O37036   6.136   9.631   1.220
12265WAT     H137037   6.180   9.543   1.204
12265WAT     H237038   6.206   9.700   1.237
12266WAT      O37039   7.160   4.415   5.699
12266WAT     H137040   7.119   4.323   5.699
12266WAT     H237041   7.183   4.441   5.606
12267WAT      O37042   0.763   0.986   9.183
12267WAT     H137043   0.761   0.957   9.278
12267WAT     H237044   0.678   1.035   9.161
12268WAT      O37045   9.426   0.682   9.823
12268WAT     H137046   9.363   0.677   9.746
12268WAT     H237047   9.501   0.617   9.809
12269WAT      O37048   6.207   1.814   9.364
12269WAT     H137049   6.110   1.787   9.363
12269WAT     H237050   6.216   1.902   9.317
12270WAT      O37051   9.466   8.220   8.997
12270WAT     H137052   9.385   8.267   8.960
12270WAT     H237053   9.451   8.121   8.993
12271WAT      O37054   4.902   3.303   5.636
12271WAT     H137055   4.913   3.269   5.542
12271WAT     H237056   4.866   3.230   5.693
12272WAT      O37057   1.137   8.466   4.409
12272WAT     H137058   1.090   8.476   4.496
12272WAT     H237059   1.091   8.397   4.353
12273WAT      O37060   2.007   3.858   6.060
12273WAT     H137061   2.074   3.836   6.130
12273WAT     H237062   1.918   3.874   6.102
12274WAT      O37063   9.866   0.010   8.575
12274WAT     H137064   9.961  -0.008   8.552
12274WAT     H237065   9.853   0.003   8.674
12275WAT      O37066   7.578   5.629   5.791
12275WAT     H137067   7.672   5.650   5.819
12275WAT     H237068   7.572   5.532   5.768
12276WAT      O37069   1.089   4.086   6.493
12276WAT     H137070   1.012   4.049   6.441
12276WAT     H237071   1.167   4.102   6.431
12277WAT      O37072   8.479   9.705   0.161
12277WAT     H137073   8.532   9.704   0.246
12277WAT     H237074   8.542   9.705   0.083
12278WAT      O37075   6.021   5.844   7.058
12278WAT     H137076   6.079   5.909   7.107
12278WAT     H237077   5.928   5.850   7.094
12279WAT      O37078   6.096   7.452   1.632
12279WAT     H137079   6.182   7.501   1.617
12279WAT     H237080   6.028   7.483   1.566
12280WAT      O37081   8.808   2.311   8.091
12280WAT     H137082   8.834   2.273   8.179
12280WAT     H237083   8.836   2.249   8.018
12281WAT      O37084   0.658   1.797   5.464
12281WAT     H137085   0.695   1.713   5.426
12281WAT     H237086   0.582   1.775   5.525
12282WAT      O37087   3.454   8.149   1.186
12282WAT     H137088   3.535   8.128   1.131
12282WAT     H237089   3.467   8.117   1.280
12283WAT      O37090   3.122   7.072   6.065
12283WAT     H137091   3.163   6.993   6.020
12283WAT     H237092   3.027   7.051   6.090
12284WAT      O37093   5.973   9.087   5.308
12284WAT     H137094   5.982   9.031   5.225
12284WAT     H237095   5.988   9.183   5.285
12285WAT      O37096   1.007   4.786   7.069
12285WAT     H137097   0.932   4.827   7.121
12285WAT     H237098   1.075   4.855   7.048
12286WAT      O37099   1.611   8.489   2.046
12286WAT     H137100   1.639   8.406   2.093
12286WAT     H237101   1.517   8.480   2.014
12287WAT      O37102   1.812   6.759   1.552
12287WAT     H137103   1.866   6.817   1.491
12287WAT     H237104   1.795   6.671   1.507
12288WAT      O37105   5.525   0.203   4.698
12288WAT     H137106   5.530   0.285   4.641
12288WAT     H237107   5.617   0.172   4.720
12289WAT      O37108   4.390   1.789   9.657
12289WAT     H137109   4.487   1.777   9.637
12289WAT     H237110   4.336   1.774   9.574
12290WAT      O37111   4.850   0.126   0.834
12290WAT     H137112   4.944   0.099   0.854
12290WAT     H237113   4.793   0.044   0.825
12291WAT      O37114   6.726   8.325   9.308
12291WAT     H137115   6.703   8.421   9.295
12291WAT     H237116   6.823   8.317   9.334
12292WAT      O37117   3.834   6.499   1.536
12292WAT     H137118   3.737   6.513   1.513
12292WAT     H237119   3.857   6.551   1.618
12293WAT      O37120   2.700   7.765   6.907
12293WAT     H137121   2.604   7.787   6.919
12293WAT     H237122   2.712   7.711   6.824
12294WAT      O37123   8.759   0.928   5.991
12294WAT     H137124   8.764   1.023   6.022
12294WAT     H237125   8.808   0.918   5.905
12295WAT      O37126   2.994   6.552   0.009
12295WAT     H137127   3.066   6.606   0.054
12295WAT     H237128   2.920   6.613  -0.019
12296WAT      O37129   4.929   7.459   4.385
12296WAT     H137130   4.863   7.525   4.349
12296WAT     H237131   5.018   7.473   4.342
12297WAT      O37132   3.480   8.901   9.108
12297WAT     H137133   3.463   8.828   9.175
12297WAT     H237134   3.492   8.988   9.157
12298WAT      O37135   2.098   8.858   0.810
12298WAT     H137136   2.178   8.828   0.862
12298WAT     H237137   2.128   8.899   0.723
12299WAT      O37138   8.302   1.545   4.817
12299WAT     H137139   8.243   1.473   4.781
12299WAT     H237140   8.298   1.546   4.917
12300WAT      O37141   8.877   3.262   3.096
12300WAT     H137142   8.846   3.259   3.001
12300WAT     H237143   8.976   3.275   3.098
12301WAT      O37144   3.089   1.102   9.401
12301WAT     H137145   3.091   1.085   9.303
12301WAT     H237146   3.015   1.166   9.422
12302WAT      O37147   2.550   4.039   4.964
12302WAT     H137148   2.459   4.016   4.999
12302WAT     H237149   2.608   3.957   4.964
12303WAT      O37150   7.285   1.013   2.159
12303WAT     H137151   7.381   1.039   2.167
12303WAT     H237152   7.227   1.088   2.191
12304WAT      O37153   1.404   4.617   0.673
12304WAT     H137154   1.455   4.699   0.648
12304WAT     H237155   1.418   4.597   0.770
12305WAT      O37156   2.526   1.553   6.156
12305WAT     H137157   2.528   1.611   6.237
12305WAT     H237158   2.600   1.486   6.160
12306WAT      O37159   1.009   7.542   2.804
12306WAT     H137160   1.058   7.565   2.888
12306WAT     H237161   0.958   7.457   2.817
12307WAT      O37162   6.712   9.034   0.663
12307WAT     H137163   6.679   9.129   0.669
12307WAT     H237164   6.811   9.034   0.658
12308WAT      O37165   3.357   6.019   7.367
12308WAT     H137166   3.358   6.103   7.314
12308WAT     H237167   3.432   5.959   7.336
12309WAT      O37168   7.615   3.041   5.772
12309WAT     H137169   7.575   2.949   5.774
12309WAT     H237170   7.571   3.098   5.841
12310WAT      O37171   4.027   2.228   7.192
12310WAT     H137172   4.116   2.265   7.217
12310WAT     H237173   4.016   2.232   7.092
12311WAT      O37174   7.834   7.789   1.314
12311WAT     H137175   7.916   7.846   1.321
12311WAT     H237176   7.824   7.734   1.397
12312WAT      O37177   7.000   6.967   5.041
12312WAT     H137178   6.961   6.921   4.961
12312WAT     H237179   7.024   7.061   5.017
12313WAT      O37180   3.162   3.542   3.062
12313WAT     H137181   3.125   3.493   3.142
12313WAT     H237182   3.091   3.551   2.993
12314WAT      O37183   6.910   2.854   3.606
12314WAT     H137184   6.843   2.817   3.542
12314WAT     H237185   6.911   2.799   3.690
12315WAT      O37186   3.466   4.876   8.486
12315WAT     H137187   3.465   4.924   8.399
12315WAT     H237188   3.469   4.777   8.470
12316WAT      O37189   6.759   3.630   5.065
12316WAT     H137190   6.797   3.549   5.021
12316WAT     H237191   6.770   3.709   5.004
12317WAT      O37192   8.843   0.885   5.476
12317WAT     H137193   8.783   0.805   5.474
12317WAT     H237194   8.928   0.862   5.524
12318WAT      O37195   6.649   3.116   8.463
12318WAT     H137196   6.663   3.048   8.391
12318WAT     H237197   6.728   3.117   8.525
12319WAT      O37198   1.944   5.086   7.505
12319WAT     H137199   1.996   5.171   7.514
12319WAT     H237200   1.876   5.096   7.432
12320WAT      O37201   9.707   3.849   0.284
12320WAT     H137202   9.731   3.939   0.322
12320WAT     H237203   9.781   3.785   0.302
12321WAT      O37204   0.971   5.888   7.390
12321WAT     H137205   0.999   5.952   7.318
12321WAT     H237206   0.901   5.826   7.354
12322WAT      O37207   0.091   4.354   1.582
12322WAT     H137208   0.112   4.451   1.569
12322WAT     H237209   0.048   4.318   1.499
12323WAT      O37210   4.918   8.339   3.682
12323WAT     H137211   4.994   8.403   3.667
12323WAT     H237212   4.951   8.245   3.677
12324WAT      O37213   7.741   0.014   6.544
12324WAT     H137214   7.746  -0.062   6.609
12324WAT     H237215   7.817   0.007   6.479
12325WAT      O37216   2.699   7.340   3.875
12325WAT     H137217   2.645   7.278   3.818
12325WAT     H237218   2.757   7.286   3.937
12326WAT      O37219   2.857   1.804   9.792
12326WAT     H137220   2.894   1.892   9.764
12326WAT     H237221   2.813   1.760   9.714
12327WAT      O37222   3.006   8.720   4.889
12327WAT     H137223   2.985   8.730   4.792
12327WAT     H237224   3.058   8.637   4.905
12328WAT      O37225   7.368   0.754   2.148
12328WAT     H137226   7.447   0.759   2.086
12328WAT     H237227   7.334   0.847   2.165
12329WAT      O37228   5.995   5.376   2.185
12329WAT     H137229   5.979   5.466   2.145
12329WAT     H237230   6.069   5.330   2.136
12330WAT      O37231   0.405   9.126   6.454
12330WAT     H137232   0.438   9.090   6.367
12330WAT     H237233   0.463   9.091   6.528
12331WAT      O37234   5.136   2.852   6.026
12331WAT     H137235   5.204   2.908   6.073
12331WAT     H237236   5.152   2.756   6.044
12332WAT      O37237   2.606   1.186   6.937
12332WAT     H137238   2.704   1.202   6.941
12332WAT     H237239   2.566   1.201   7.027
12333WAT      O37240   3.723   5.620   7.622
12333WAT     H137241   3.772   5.697   7.582
12333WAT     H237242   3.757   5.603   7.715
12334WAT      O37243   4.620   1.545   4.140
12334WAT     H137244   4.562   1.626   4.128
12334WAT     H237245   4.588   1.493   4.220
12335WAT      O37246   8.914   0.506   4.318
12335WAT     H137247   8.919   0.562   4.235
12335WAT     H237248   8.827   0.522   4.364
12336WAT      O37249   2.532   8.594   4.972
12336WAT     H137250   2.601   8.654   5.012
12336WAT     H237251   2.505   8.629   4.882
12337WAT      O37252   3.378   6.143   0.981
12337WAT     H137253   3.420   6.194   1.056
12337WAT     H237254   3.324   6.205   0.925
12338WAT      O37255   1.667   3.186   9.260
12338WAT     H137256   1.650   3.094   9.294
12338WAT     H237257   1.728   3.181   9.180
12339WAT      O37258   6.965   7.107   3.790
12339WAT     H137259   6.949   7.189   3.735
12339WAT     H237260   6.924   7.119   3.880
12340WAT      O37261   0.281   1.912   5.514
12340WAT     H137262   0.185   1.900   5.491
12340WAT     H237263   0.305   1.854   5.592
12341WAT      O37264   2.467   7.492   8.861
12341WAT     H137265   2.530   7.529   8.929
12341WAT     H237266   2.502   7.512   8.769
12342WAT      O37267   5.297   9.369   1.694
12342WAT     H137268   5.229   9.321   1.638
12342WAT     H237269   5.251   9.439   1.749
12343WAT      O37270   7.297   8.699   0.411
12343WAT     H137271   7.264   8.610   0.441
12343WAT     H237272   7.291   8.705   0.311
12344WAT      O37273   8.307   9.528   6.836
12344WAT     H137274   8.385   9.580   6.800
12344WAT     H237275   8.263   9.478   6.761
12345WAT      O37276   4.959   1.659   3.326
12345WAT     H137277   4.895   1.623   3.395
12345WAT     H237278   4.994   1.748   3.357
12346WAT      O37279   4.774   5.663   3.326
12346WAT     H137280   4.838   5.700   3.393
12346WAT     H237281   4.821   5.598   3.267
12347WAT      O37282   5.808   6.957   1.131
12347WAT     H137283   5.745   6.965   1.208
12347WAT     H237284   5.892   6.913   1.162
12348WAT      O37285   4.245   4.460   2.886
12348WAT     H137286   4.160   4.511   2.902
12348WAT     H237287   4.275   4.475   2.792
12349WAT      O37288   4.552   3.927   7.420
12349WAT     H137289   4.597   3.953   7.335
12349WAT     H237290   4.475   3.989   7.438
12350WAT      O37291   2.756   4.272   3.398
12350WAT     H137292   2.704   4.254   3.315
12350WAT     H237293   2.697   4.259   3.478
12351WAT      O37294   6.735   3.982   0.304
12351WAT     H137295   6.645   3.979   0.259
12351WAT     H237296   6.787   4.059   0.267
12352WAT      O37297   7.587   3.387   2.722
12352WAT     H137298   7.681   3.419   2.735
12352WAT     H237299   7.576   3.298   2.767
12353WAT      O37300   0.007   6.882   1.215
12353WAT     H137301  -0.048   6.958   1.181
12353WAT     H237302   0.102   6.912   1.228
12354WAT      O37303   0.847   4.128   3.153
12354WAT     H137304   0.836   4.029   3.142
12354WAT     H237305   0.944   4.151   3.155
12355WAT      O37306   8.454   6.832   4.015
12355WAT     H137307   8.428   6.740   4.045
12355WAT     H237308   8.550   6.831   3.986
12356WAT      O37309   2.125   4.364   8.096
12356WAT     H137310   2.080   4.275   8.093
12356WAT     H237311   2.089   4.417   8.172
12357WAT      O37312   0.302   8.394   9.469
12357WAT     H137313   0.244   8.315   9.489
12357WAT     H237314   0.293   8.461   9.543
12358WAT      O37315   5.301   2.863   9.694
12358WAT     H137316   5.250   2.825   9.771
12358WAT     H237317   5.252   2.844   9.609
12359WAT      O37318   5.063   1.399   8.553
12359WAT     H137319   5.102   1.317   8.596
12359WAT     H237320   5.135   1.467   8.540
12360WAT      O37321   9.755   7.684   7.211
12360WAT     H137322   9.668   7.637   7.225
12360WAT     H237323   9.763   7.759   7.277
12361WAT      O37324   0.289   2.074   2.678
12361WAT     H137325   0.242   2.143   2.732
12361WAT     H237326   0.241   1.986   2.687
12362WAT      O37327   7.743   4.923   3.376
12362WAT     H137328   7.702   4.990   3.315
12362WAT     H237329   7.765   4.966   3.464
12363WAT      O37330   4.069   1.577   5.343
12363WAT     H137331   4.100   1.482   5.343
12363WAT     H237332   4.141   1.636   5.378
12364WAT      O37333   0.191   2.566   7.815
12364WAT     H137334   0.290   2.572   7.803
12364WAT     H237335   0.159   2.476   7.786
12365WAT      O37336   2.308   1.923   6.154
12365WAT     H137337   2.247   1.909   6.232
12365WAT     H237338   2.273   1.998   6.098
12366WAT      O37339   6.266   7.353   6.951
12366WAT     H137340   6.283   7.256   6.970
12366WAT     H237341   6.180   7.362   6.901
12367WAT      O37342   6.699   9.283   7.999
12367WAT     H137343   6.660   9.205   7.950
12367WAT     H237344   6.754   9.338   7.936
12368WAT      O37345   4.310   8.851   3.701
12368WAT     H137346   4.251   8.821   3.775
12368WAT     H237347   4.346   8.771   3.652
12369WAT      O37348   3.295   1.459   4.308
12369WAT     H137349   3.334   1.510   4.231
12369WAT     H237350   3.292   1.518   4.388
12370WAT      O37351   5.209   5.619   0.473
12370WAT     H137352   5.165   5.648   0.388
12370WAT     H237353   5.149   5.557   0.522
12371WAT      O37354   8.542   5.777   0.224
12371WAT     H137355   8.563   5.680   0.218
12371WAT     H237356   8.473   5.792   0.296
12372WAT      O37357   8.343   9.835   1.907
12372WAT     H137358   8.251   9.809   1.935
12372WAT     H237359   8.337   9.908   1.839
12373WAT      O37360   0.769   1.009   6.032
12373WAT     H137361   0.729   0.944   6.095
12373WAT     H237362   0.701   1.077   6.005
12374WAT      O37363   2.847   8.546   2.572
12374WAT     H137364   2.938   8.506   2.580
12374WAT     H237365   2.847   8.613   2.497
12375WAT      O37366   9.378   2.857   6.519
12375WAT     H137367   9.293   2.894   6.482
12375WAT     H237368   9.451   2.925   6.511
12376WAT      O37369   9.165   4.018   0.790
12376WAT     H137370   9.093   3.999   0.857
12376WAT     H237371   9.149   4.107   0.749
12377WAT      O37372   7.402   5.972   3.395
12377WAT     H137373   7.459   6.038   3.444
12377WAT     H237374   7.460   5.914   3.338
12378WAT      O37375   3.138   3.215   7.529
12378WAT     H137376   3.071   3.177   7.465
12378WAT     H237377   3.189   3.140   7.572
12379WAT      O37378   4.575   3.006   2.773
12379WAT     H137379   4.635   3.055   2.838
12379WAT     H237380   4.586   2.907   2.786
12380WAT      O37381   5.737   8.681   9.265
12380WAT     H137382   5.816   8.739   9.247
12380WAT     H237383   5.670   8.731   9.320
12381WAT      O37384   7.293   8.719   6.355
12381WAT     H137385   7.194   8.730   6.359
12381WAT     H237386   7.318   8.671   6.271
12382WAT      O37387   7.563   6.623   7.092
12382WAT     H137388   7.482   6.597   7.039
12382WAT     H237389   7.563   6.721   7.106
12383WAT      O37390   2.907   6.722   1.736
12383WAT     H137391   2.958   6.788   1.792
12383WAT     H237392   2.813   6.754   1.724
12384WAT      O37393   2.253   6.660   1.048
12384WAT     H137394   2.237   6.614   0.960
12384WAT     H237395   2.228   6.598   1.122
12385WAT      O37396   0.997   8.788   5.930
12385WAT     H137397   1.069   8.799   5.998
12385WAT     H237398   0.925   8.728   5.966
12386WAT      O37399   8.903   2.289   3.844
12386WAT     H137400   8.947   2.259   3.929
12386WAT     H237401   8.805   2.272   3.849
12387WAT      O37402   2.955   3.472   7.404
12387WAT     H137403   3.040   3.484   7.353
12387WAT     H237404   2.881   3.448   7.342
12388WAT      O37405   5.369   8.129   5.642
12388WAT     H137406   5.447   8.152   5.701
12388WAT     H237407   5.387   8.042   5.596
12389WAT      O37408   3.881   1.084   6.340
12389WAT     H137409   3.804   1.022   6.323
12389WAT     H237410   3.967   1.035   6.328
12390WAT      O37411   8.190   2.304   9.699
12390WAT     H137412   8.214   2.327   9.793
12390WAT     H237413   8.106   2.353   9.673
12391WAT      O37414   9.375   5.832   9.400
12391WAT     H137415   9.348   5.840   9.496
12391WAT     H237416   9.385   5.923   9.360
12392WAT      O37417   8.787   3.245   2.827
12392WAT     H137418   8.864   3.262   2.766
12392WAT     H237419   8.789   3.149   2.857
12393WAT      O37420   8.553   6.652   4.914
12393WAT     H137421   8.501   6.666   4.830
12393WAT     H237422   8.649   6.671   4.897
12394WAT      O37423   9.413   1.867   7.036
12394WAT     H137424   9.411   1.955   7.084
12394WAT     H237425   9.467   1.802   7.088
12395WAT      O37426   3.222   4.198   5.149
12395WAT     H137427   3.225   4.117   5.208
12395WAT     H237428   3.288   4.187   5.075
12396WAT      O37429   1.147   4.454   8.313
12396WAT     H137430   1.203   4.421   8.237
12396WAT     H237431   1.067   4.394   8.325
12397WAT      O37432   9.847   1.959   6.301
12397WAT     H137433   9.939   1.934   6.331
12397WAT     H237434   9.782   1.888   6.330
12398WAT      O37435   7.374   8.131   1.027
12398WAT     H137436   7.384   8.225   1.060
12398WAT     H237437   7.301   8.128   0.958
12399WAT      O37438   6.715   7.143   5.772
12399WAT     H137439   6.695   7.241   5.771
12399WAT     H237440   6.667   7.100   5.848
12400WAT      O37441   9.308   4.467   8.696
12400WAT     H137442   9.224   4.420   8.668
12400WAT     H237443   9.300   4.494   8.792
12401WAT      O37444   9.368   1.258   2.590
12401WAT     H137445   9.372   1.245   2.689
12401WAT     H237446   9.450   1.306   2.559
12402WAT      O37447   7.750   1.002   8.162
12402WAT     H137448   7.764   0.903   8.165
12402WAT     H237449   7.739   1.038   8.255
12403WAT      O37450   5.174   6.727   7.813
12403WAT     H137451   5.269   6.759   7.812
12403WAT     H237452   5.167   6.643   7.760
12404WAT      O37453   4.997   3.832   9.468
12404WAT     H137454   4.940   3.817   9.386
12404WAT     H237455   4.974   3.764   9.537
12405WAT      O37456   7.384   7.414   8.465
12405WAT     H137457   7.382   7.437   8.562
12405WAT     H237458   7.429   7.488   8.414
12406WAT      O37459   1.446   0.141   7.422
12406WAT     H137460   1.377   0.069   7.416
12406WAT     H237461   1.534   0.101   7.445
12407WAT      O37462   6.104   5.806   3.345
12407WAT     H137463   6.109   5.791   3.444
12407WAT     H237464   6.163   5.883   3.320
12408WAT      O37465   2.315   2.695   0.255
12408WAT     H137466   2.341   2.791   0.241
12408WAT     H237467   2.367   2.637   0.193
12409WAT      O37468   5.989   6.499   5.373
12409WAT     H137469   5.974   6.444   5.291
12409WAT     H237470   5.967   6.444   5.454
12410WAT      O37471   5.768   2.214   2.721
12410WAT     H137472   5.734   2.159   2.644
12410WAT     H237473   5.795   2.153   2.795
12411WAT      O37474   3.024   3.432   4.605
12411WAT     H137475   3.075   3.502   4.555
12411WAT     H237476   2.962   3.385   4.543
12412WAT      O37477   9.073   2.134   5.190
12412WAT     H137478   9.162   2.102   5.225
12412WAT     H237479   9.088   2.208   5.125
12413WAT      O37480   9.073   4.414   9.363
12413WAT     H137481   9.081   4.375   9.271
12413WAT     H237482   9.034   4.345   9.424
12414WAT      O37483   6.404   8.965   4.127
12414WAT     H137484   6.318   8.987   4.080
12414WAT     H237485   6.400   8.998   4.221
12415WAT      O37486   8.069   2.014   2.012
12415WAT     H137487   8.048   1.948   2.084
12415WAT     H237488   8.169   2.024   2.004
12416WAT      O37489   3.354   1.894   6.848
12416WAT     H137490   3.298   1.887   6.931
12416WAT     H237491   3.305   1.857   6.770
12417WAT      O37492   0.474   8.861   3.877
12417WAT     H137493   0.476   8.862   3.977
12417WAT     H237494   0.379   8.860   3.845
12418WAT      O37495   5.003   4.312   8.869
12418WAT     H137496   4.922   4.365   8.891
12418WAT     H237497   5.020   4.316   8.770
12419WAT      O37498   5.532   1.197   7.052
12419WAT     H137499   5.471   1.214   7.130
12419WAT     H237500   5.594   1.275   7.040
12420WAT      O37501   7.885   4.710   2.349
12420WAT     H137502   7.930   4.673   2.267
12420WAT     H237503   7.799   4.753   2.324
12421WAT      O37504   5.483   8.775   2.185
12421WAT     H137505   5.523   8.684   2.179
12421WAT     H237506   5.539   8.839   2.132
12422WAT      O37507   4.548   5.958   2.744
12422WAT     H137508   4.627   6.019   2.746
12422WAT     H237509   4.573   5.870   2.785
12423WAT      O37510   1.207   4.504   9.700
12423WAT     H137511   1.170   4.501   9.607
12423WAT     H237512   1.200   4.414   9.742
12424WAT      O37513   8.459   3.420   1.580
12424WAT     H137514   8.436   3.432   1.484
12424WAT     H237515   8.524   3.491   1.609
12425WAT      O37516   0.179   9.683   7.103
12425WAT     H137517   0.097   9.699   7.047
12425WAT     H237518   0.249   9.638   7.048
12426WAT      O37519   3.186   2.633   3.757
12426WAT     H137520   3.144   2.723   3.750
12426WAT     H237521   3.133   2.568   3.702
12427WAT      O37522   9.289   7.810   9.552
12427WAT     H137523   9.362   7.790   9.617
12427WAT     H237524   9.218   7.739   9.559
12428WAT      O37525   0.452   9.336   1.153
12428WAT     H137526   0.411   9.298   1.236
12428WAT     H237527   0.552   9.335   1.162
12429WAT      O37528   9.622   8.525   3.340
12429WAT     H137529   9.652   8.498   3.431
12429WAT     H237530   9.673   8.473   3.271
12430WAT      O37531   3.951   8.067   2.680
12430WAT     H137532   3.949   8.021   2.769
12430WAT     H237533   3.980   8.162   2.692
12431WAT      O37534   3.136   9.429   0.329
12431WAT     H137535   3.131   9.346   0.385
12431WAT     H237536   3.218   9.426   0.271
12432WAT      O37537   5.693   4.089   9.008
12432WAT     H137538   5.748   4.082   8.925
12432WAT     H237539   5.604   4.129   8.987
12433WAT      O37540   7.990   9.480   6.928
12433WAT     H137541   8.035   9.532   6.855
12433WAT     H237542   8.011   9.522   7.016
12434WAT      O37543   6.035   3.568   1.623
12434WAT     H137544   5.937   3.566   1.646
12434WAT     H237545   6.072   3.476   1.628
12435WAT      O37546   5.687   4.846   7.581
12435WAT     H137547   5.751   4.921   7.598
12435WAT     H237548   5.669   4.839   7.483
12436WAT      O37549   8.561   4.095   8.563
12436WAT     H137550   8.546   4.072   8.467
12436WAT     H237551   8.507   4.175   8.588
12437WAT      O37552   0.863   0.345   2.663
12437WAT     H137553   0.899   0.438   2.673
12437WAT     H237554   0.813   0.339   2.577
12438WAT      O37555   3.026   5.363   1.876
12438WAT     H137556   3.039   5.355   1.777
12438WAT     H237557   3.113   5.345   1.922
12439WAT      O37558   7.389   8.948   1.992
12439WAT     H137559   7.423   9.013   2.059
12439WAT     H237560   7.356   8.865   2.038
12440WAT      O37561   6.525   0.620   6.124
12440WAT     H137562   6.476   0.683   6.184
12440WAT     H237563   6.620   0.651   6.115
12441WAT      O37564   0.728   2.688   2.702
12441WAT     H137565   0.808   2.690   2.641
12441WAT     H237566   0.759   2.696   2.797
12442WAT      O37567   2.725   0.225   0.528
12442WAT     H137568   2.668   0.161   0.579
12442WAT     H237569   2.670   0.272   0.459
12443WAT      O37570   3.961   8.442   3.886
12443WAT     H137571   3.954   8.503   3.807
12443WAT     H237572   3.892   8.371   3.880
12444WAT      O37573   5.962   2.625   0.283
12444WAT     H137574   6.060   2.607   0.288
12444WAT     H237575   5.911   2.542   0.306
12445WAT      O37576   4.860   4.234   2.420
12445WAT     H137577   4.806   4.221   2.503
12445WAT     H237578   4.840   4.324   2.381
12446WAT      O37579   9.510   5.524   3.974
12446WAT     H137580   9.498   5.505   3.877
12446WAT     H237581   9.594   5.482   4.007
12447WAT      O37582   2.448   5.730   5.009
12447WAT     H137583   2.501   5.797   4.956
12447WAT     H237584   2.464   5.744   5.107
12448WAT      O37585   6.770   8.380   5.968
12448WAT     H137586   6.808   8.394   5.876
12448WAT     H237587   6.723   8.292   5.971
12449WAT      O37588   2.361   3.157   9.095
12449WAT     H137589   2.458   3.179   9.107
12449WAT     H237590   2.318   3.143   9.185
12450WAT      O37591   7.020   7.681   2.370
12450WAT     H137592   7.050   7.660   2.463
12450WAT     H237593   7.034   7.601   2.312
12451WAT      O37594   4.535   7.154   7.456
12451WAT     H137595   4.515   7.250   7.438
12451WAT     H237596   4.500   7.098   7.382
12452WAT      O37597   9.590   8.028   7.517
12452WAT     H137598   9.564   8.102   7.578
12452WAT     H237599   9.563   8.050   7.423
12453WAT      O37600   9.310   9.764   3.976
12453WAT     H137601   9.264   9.784   3.890
12453WAT     H237602   9.347   9.671   3.973
12454WAT      O37603   2.253   5.138   8.675
12454WAT     H137604   2.293   5.075   8.742
12454WAT     H237605   2.154   5.137   8.684
12455WAT      O37606   0.414   6.137   2.238
12455WAT     H137607   0.351   6.086   2.179
12455WAT     H237608   0.497   6.083   2.253
12456WAT      O37609   0.238   8.259   2.263
12456WAT     H137610   0.186   8.327   2.213
12456WAT     H237611   0.330   8.251   2.224
12457WAT      O37612   9.813   1.792   6.681
12457WAT     H137613   9.909   1.815   6.667
12457WAT     H237614   9.755   1.865   6.644
12458WAT      O37615   2.786   9.086   5.694
12458WAT     H137616   2.719   9.046   5.631
12458WAT     H237617   2.783   9.185   5.687
12459WAT      O37618   6.411   8.396   8.520
12459WAT     H137619   6.451   8.446   8.443
12459WAT     H237620   6.363   8.460   8.581
12460WAT      O37621   4.229   1.816   4.671
12460WAT     H137622   4.325   1.826   4.647
12460WAT     H237623   4.219   1.824   4.770
12461WAT      O37624   5.826   3.890   3.583
12461WAT     H137625   5.920   3.878   3.616
12461WAT     H237626   5.764   3.890   3.661
12462WAT      O37627   7.706   3.296   4.248
12462WAT     H137628   7.628   3.309   4.308
12462WAT     H237629   7.681   3.236   4.172
12463WAT      O37630   7.598   0.782   1.973
12463WAT     H137631   7.620   0.873   1.938
12463WAT     H237632   7.628   0.713   1.907
12464WAT      O37633   1.533   4.207   9.254
12464WAT     H137634   1.622   4.206   9.301
12464WAT     H237635   1.460   4.190   9.320
12465WAT      O37636   6.907   0.115   5.443
12465WAT     H137637   6.910   0.211   5.415
12465WAT     H237638   6.999   0.082   5.462
12466WAT      O37639   7.677   5.091   2.045
12466WAT     H137640   7.705   5.157   1.975
12466WAT     H237641   7.663   5.139   2.132
12467WAT      O37642   2.825   9.336   8.297
12467WAT     H137643   2.895   9.275   8.334
12467WAT     H237644   2.870   9.408   8.243
12468WAT      O37645   5.441   2.114   4.471
12468WAT     H137646   5.448   2.075   4.379
12468WAT     H237647   5.443   2.040   4.538
12469WAT      O37648   4.362   4.269   4.340
12469WAT     H137649   4.363   4.230   4.248
12469WAT     H237650   4.417   4.352   4.342
12470WAT      O37651   4.107   5.468   1.240
12470WAT     H137652   4.087   5.565   1.257
12470WAT     H237653   4.127   5.454   1.143
12471WAT      O37654   4.325   4.425   2.287
12471WAT     H137655   4.345   4.452   2.192
12471WAT     H237656   4.296   4.330   2.288
12472WAT      O37657   5.299   1.163   2.058
12472WAT     H137658   5.361   1.095   2.020
12472WAT     H237659   5.352   1.239   2.095
12473WAT      O37660   9.334   2.481   8.469
12473WAT     H137661   9.374   2.427   8.543
12473WAT     H237662   9.353   2.436   8.381
12474WAT      O37663   1.270   5.120   9.738
12474WAT     H137664   1.334   5.099   9.664
12474WAT     H237665   1.187   5.162   9.700
12475WAT      O37666   8.793   6.849   8.932
12475WAT     H137667   8.728   6.834   9.006
12475WAT     H237668   8.834   6.940   8.942
12476WAT      O37669   6.375   2.487   4.090
12476WAT     H137670   6.409   2.492   4.184
12476WAT     H237671   6.427   2.417   4.040
12477WAT      O37672   0.563   3.023   5.573
12477WAT     H137673   0.530   3.018   5.667
12477WAT     H237674   0.645   2.967   5.563
12478WAT      O37675   6.323   8.886   9.793
12478WAT     H137676   6.374   8.939   9.726
12478WAT     H237677   6.355   8.910   9.885
12479WAT      O37678   6.145   3.185   6.096
12479WAT     H137679   6.220   3.245   6.067
12479WAT     H237680   6.058   3.231   6.081
12480WAT      O37681   1.447   5.473   3.623
12480WAT     H137682   1.523   5.454   3.686
12480WAT     H237683   1.462   5.561   3.579
12481WAT      O37684   9.711   0.897   7.347
12481WAT     H137685   9.701   0.995   7.360
12481WAT     H237686   9.623   0.852   7.359
12482WAT      O37687   6.585   7.534   6.200
12482WAT     H137688   6.529   7.472   6.144
12482WAT     H237689   6.674   7.493   6.216
12483WAT      O37690   1.691   6.746   7.557
12483WAT     H137691   1.788   6.721   7.557
12483WAT     H237692   1.682   6.844   7.542
12484WAT      O37693   9.265   6.743  -0.003
12484WAT     H137694   9.168   6.756   0.015
12484WAT     H237695   9.311   6.712   0.080
12485WAT      O37696   8.146   5.291   8.102
12485WAT     H137697   8.153   5.260   8.008
12485WAT     H237698   8.235   5.326   8.132
12486WAT      O37699   6.108   4.023   2.178
12486WAT     H137700   6.148   3.965   2.249
12486WAT     H237701   6.166   4.103   2.163
12487WAT      O37702   7.131   8.802   3.400
12487WAT     H137703   7.101   8.789   3.495
12487WAT     H237704   7.059   8.847   3.348
12488WAT      O37705   2.505   6.506   3.709
12488WAT     H137706   2.488   6.553   3.623
12488WAT     H237707   2.565   6.562   3.767
12489WAT      O37708   5.701   4.768   3.525
12489WAT     H137709   5.657   4.826   3.456
12489WAT     H237710   5.657   4.781   3.613
12490WAT      O37711   2.141   3.167   5.234
12490WAT     H137712   2.146   3.125   5.144
12490WAT     H237713   2.222   3.224   5.249
12491WAT      O37714   1.621   3.816   4.007
12491WAT     H137715   1.527   3.814   3.975
12491WAT     H237716   1.681   3.848   3.934
12492WAT      O37717   0.731   7.803   0.894
12492WAT     H137718   0.732   7.703   0.906
12492WAT     H237719   0.639   7.837   0.911
12493WAT      O37720   7.435   4.761   0.399
12493WAT     H137721   7.426   4.757   0.300
12493WAT     H237722   7.360   4.814   0.438
12494WAT      O37723   2.484   0.800   0.501
12494WAT     H137724   2.539   0.852   0.436
12494WAT     H237725   2.514   0.820   0.594
12495WAT      O37726   4.263   7.562   0.112
12495WAT     H137727   4.255   7.486   0.177
12495WAT     H237728   4.325   7.535   0.038
12496WAT      O37729   8.967   2.597   6.475
12496WAT     H137730   8.998   2.510   6.437
12496WAT     H237731   9.004   2.673   6.421
12497WAT      O37732   6.036   1.579   3.289
12497WAT     H137733   6.028   1.481   3.271
12497WAT     H237734   5.945   1.620   3.292
12498WAT      O37735   5.559   1.678   0.574
12498WAT     H137736   5.646   1.638   0.603
12498WAT     H237737   5.561   1.696   0.476
12499WAT      O37738   4.861   5.144   1.409
12499WAT     H137739   4.787   5.210   1.422
12499WAT     H237740   4.825   5.063   1.363
12500WAT      O37741   1.107   4.845   3.019
12500WAT     H137742   1.193   4.866   2.972
12500WAT     H237743   1.090   4.916   3.088
12501WAT      O37744   5.130   3.988   3.363
12501WAT     H137745   5.195   4.019   3.293
12501WAT     H237746   5.100   3.894   3.342
12502WAT      O37747   6.925   3.987   4.535
12502WAT     H137748   6.894   3.898   4.568
12502WAT     H237749   7.017   3.978   4.496
12503WAT      O37750   2.896   9.508   9.634
12503WAT     H137751   2.957   9.569   9.585
12503WAT     H237752   2.802   9.525   9.605
12504WAT      O37753   2.816   8.882   9.818
12504WAT     H137754   2.876   8.805   9.793
12504WAT     H237755   2.832   8.957   9.754
12505WAT      O37756   9.599   0.975   1.497
12505WAT     H137757   9.560   0.898   1.446
12505WAT     H237758   9.553   1.059   1.470
12506WAT      O37759   5.571   9.190   5.210
12506WAT     H137760   5.475   9.188   5.182
12506WAT     H237761   5.614   9.274   5.178
12507WAT      O37762   6.776   5.032   0.327
12507WAT     H137763   6.801   4.984   0.411
12507WAT     H237764   6.830   5.116   0.319
12508WAT      O37765   5.782   9.131   2.101
12508WAT     H137766   5.870   9.156   2.063
12508WAT     H237767   5.746   9.050   2.055
12509WAT      O37768   6.631   3.043   6.812
12509WAT     H137769   6.668   2.952   6.792
12509WAT     H237770   6.652   3.104   6.736
12510WAT      O37771   4.218   9.044   5.841
12510WAT     H137772   4.233   9.103   5.920
12510WAT     H237773   4.258   8.954   5.858
12511WAT      O37774   0.797   4.121   3.597
12511WAT     H137775   0.865   4.131   3.524
12511WAT     H237776   0.725   4.059   3.567
12512WAT      O37777   9.623   8.840   2.663
12512WAT     H137778   9.637   8.921   2.606
12512WAT     H237779   9.695   8.773   2.644
12513WAT      O37780   6.465   4.395   1.006
12513WAT     H137781   6.493   4.414   0.912
12513WAT     H237782   6.546   4.373   1.061
12514WAT      O37783   9.765   7.757   3.993
12514WAT     H137784   9.832   7.817   3.950
12514WAT     H237785   9.690   7.813   4.029
12515WAT      O37786   4.529   4.662   0.257
12515WAT     H137787   4.466   4.590   0.285
12515WAT     H237788   4.477   4.743   0.231
12516WAT      O37789   3.578   1.595   0.492
12516WAT     H137790   3.532   1.552   0.570
12516WAT     H237791   3.582   1.530   0.416
12517WAT      O37792   6.227   7.208   1.574
12517WAT     H137793   6.174   7.123   1.567
12517WAT     H237794   6.165   7.286   1.577
12518WAT      O37795   0.625   8.184   5.231
12518WAT     H137796   0.604   8.202   5.135
12518WAT     H237797   0.554   8.225   5.288
12519WAT      O37798   7.144   2.502   1.273
12519WAT     H137799   7.088   2.437   1.221
12519WAT     H237800   7.180   2.571   1.211
12520WAT      O37801   5.072   0.230   9.610
12520WAT     H137802   5.155   0.285   9.593
12520WAT     H237803   4.993   0.278   9.573
12521WAT      O37804   7.445   6.110   2.511
12521WAT     H137805   7.371   6.049   2.539
12521WAT     H237806   7.422   6.152   2.423
12522WAT      O37807   2.123   9.336   7.832
12522WAT     H137808   2.179   9.303   7.756
12522WAT     H237809   2.049   9.393   7.796
12523WAT      O37810   7.935   4.665   2.059
12523WAT     H137811   8.030   4.653   2.033
12523WAT     H237812   7.894   4.738   2.004
12524WAT      O37813   3.631   8.234   5.404
12524WAT     H137814   3.601   8.150   5.448
12524WAT     H237815   3.583   8.312   5.445
12525WAT      O37816   3.619   7.312   5.663
12525WAT     H137817   3.568   7.340   5.582
12525WAT     H237818   3.652   7.219   5.651
12526WAT      O37819   0.756   3.218   0.984
12526WAT     H137820   0.746   3.139   0.924
12526WAT     H237821   0.685   3.215   1.055
12527WAT      O37822   1.417   3.058   0.931
12527WAT     H137823   1.461   3.109   0.857
12527WAT     H237824   1.321   3.043   0.909
12528WAT      O37825   3.364   3.939   0.416
12528WAT     H137826   3.332   3.929   0.510
12528WAT     H237827   3.326   3.867   0.359
12529WAT      O37828   3.112   4.717   4.274
12529WAT     H137829   3.184   4.706   4.342
12529WAT     H237830   3.023   4.698   4.315
12530WAT      O37831   7.117   0.708   7.059
12530WAT     H137832   7.070   0.639   7.003
12530WAT     H237833   7.079   0.708   7.151
12531WAT      O37834   0.599   8.011   7.191
12531WAT     H137835   0.597   8.063   7.277
12531WAT     H237836   0.637   8.069   7.119
12532WAT      O37837   6.718   3.438   7.872
12532WAT     H137838   6.745   3.383   7.793
12532WAT     H237839   6.763   3.403   7.954
12533WAT      O37840   2.244   0.619   2.296
12533WAT     H137841   2.326   0.574   2.334
12533WAT     H237842   2.177   0.632   2.369
12534WAT      O37843   4.105   5.645   8.126
12534WAT     H137844   4.046   5.705   8.072
12534WAT     H237845   4.156   5.700   8.193
12535WAT      O37846   9.070   3.710   3.006
12535WAT     H137847   8.972   3.693   3.014
12535WAT     H237848   9.101   3.769   3.081
12536WAT      O37849   1.737   6.751   6.679
12536WAT     H137850   1.821   6.698   6.664
12536WAT     H237851   1.675   6.700   6.738
12537WAT      O37852   2.459   3.892   9.788
12537WAT     H137853   2.476   3.956   9.863
12537WAT     H237854   2.363   3.896   9.761
12538WAT      O37855   7.295   8.492   4.086
12538WAT     H137856   7.341   8.413   4.126
12538WAT     H237857   7.363   8.548   4.037
12539WAT      O37858   9.210   8.870   3.031
12539WAT     H137859   9.271   8.937   2.990
12539WAT     H237860   9.181   8.902   3.121
12540WAT      O37861   6.059   9.707   6.345
12540WAT     H137862   5.997   9.760   6.288
12540WAT     H237863   6.151   9.745   6.339
12541WAT      O37864   8.632   3.819   7.784
12541WAT     H137865   8.544   3.859   7.757
12541WAT     H237866   8.663   3.755   7.714
12542WAT      O37867   5.438   4.428   0.728
12542WAT     H137868   5.374   4.488   0.776
12542WAT     H237869   5.412   4.332   0.743
12543WAT      O37870   7.128   2.906   4.040
12543WAT     H137871   7.133   2.874   4.134
12543WAT     H237872   7.083   2.995   4.037
12544WAT      O37873   2.831   9.534   4.762
12544WAT     H137874   2.867   9.562   4.851
12544WAT     H237875   2.747   9.483   4.775
12545WAT      O37876   5.896   0.672   3.580
12545WAT     H137877   5.906   0.701   3.485
12545WAT     H237878   5.896   0.751   3.640
12546WAT      O37879   8.579   8.270   3.539
12546WAT     H137880   8.618   8.205   3.474
12546WAT     H237881   8.554   8.221   3.623
12547WAT      O37882   9.513   9.090   1.597
12547WAT     H137883   9.519   9.000   1.554
12547WAT     H237884   9.600   9.138   1.585
12548WAT      O37885   4.636   5.731   7.458
12548WAT     H137886   4.645   5.819   7.504
12548WAT     H237887   4.580   5.669   7.513
12549WAT      O37888   0.159   9.085   5.389
12549WAT     H137889   0.121   9.166   5.343
12549WAT     H237890   0.125   9.081   5.483
12550WAT      O37891   5.214   2.034   1.677
12550WAT     H137892   5.162   1.958   1.638
12550WAT     H237893   5.176   2.121   1.644
12551WAT      O37894   7.225   0.198   3.183
12551WAT     H137895   7.207   0.117   3.240
12551WAT     H237896   7.268   0.269   3.239
12552WAT      O37897   1.638   2.968   3.477
12552WAT     H137898   1.542   2.996   3.482
12552WAT     H237899   1.655   2.896   3.544
12553WAT      O37900   1.823   7.406   4.777
12553WAT     H137901   1.813   7.342   4.701
12553WAT     H237902   1.817   7.357   4.864
12554WAT      O37903   1.810   3.256   6.472
12554WAT     H137904   1.862   3.190   6.526
12554WAT     H237905   1.857   3.274   6.386
12555WAT      O37906   1.341   7.049   6.146
12555WAT     H137907   1.368   6.981   6.214
12555WAT     H237908   1.255   7.092   6.174
12556WAT      O37909   5.759   4.123   9.255
12556WAT     H137910   5.742   4.111   9.157
12556WAT     H237911   5.801   4.213   9.271
12557WAT      O37912   3.358   4.935   3.357
12557WAT     H137913   3.418   4.863   3.391
12557WAT     H237914   3.275   4.894   3.318
12558WAT      O37915   6.571   2.206   4.204
12558WAT     H137916   6.548   2.238   4.112
12558WAT     H237917   6.490   2.166   4.247
12559WAT      O37918   5.872   7.298   3.573
12559WAT     H137919   5.962   7.280   3.534
12559WAT     H237920   5.824   7.212   3.588
12560WAT      O37921   3.902   6.811   2.127
12560WAT     H137922   3.854   6.729   2.097
12560WAT     H237923   3.985   6.785   2.177
12561WAT      O37924   2.609   4.185   8.485
12561WAT     H137925   2.540   4.220   8.422
12561WAT     H237926   2.576   4.100   8.527
12562WAT      O37927   9.120   0.235   1.984
12562WAT     H137928   9.183   0.168   1.944
12562WAT     H237929   9.034   0.190   2.009
12563WAT      O37930   0.342   0.710   6.134
12563WAT     H137931   0.342   0.644   6.210
12563WAT     H237932   0.264   0.692   6.075
12564WAT      O37933   0.905   4.435   9.522
12564WAT     H137934   0.840   4.360   9.511
12564WAT     H237935   0.999   4.400   9.518
12565WAT      O37936   1.029   3.035   1.232
12565WAT     H137937   1.129   3.026   1.225
12565WAT     H237938   1.006   3.080   1.318
12566WAT      O37939   7.714   2.275   2.045
12566WAT     H137940   7.735   2.371   2.065
12566WAT     H237941   7.720   2.221   2.129
12567WAT      O37942   9.125   3.076   6.539
12567WAT     H137943   9.105   3.041   6.447
12567WAT     H237944   9.042   3.072   6.595
12568WAT      O37945   3.143   9.133   2.761
12568WAT     H137946   3.067   9.112   2.700
12568WAT     H237947   3.123   9.217   2.811
12569WAT      O37948   0.198   3.437   4.394
12569WAT     H137949   0.205   3.354   4.339
12569WAT     H237950   0.245   3.512   4.348
12570WAT      O37951   6.517   4.122   7.241
12570WAT     H137952   6.546   4.179   7.318
12570WAT     H237953   6.471   4.179   7.173
12571WAT      O37954   0.775   9.133   7.497
12571WAT     H137955   0.839   9.205   7.521
12571WAT     H237956   0.817   9.044   7.513
12572WAT      O37957   1.359   7.589   4.577
12572WAT     H137958   1.288   7.601   4.507
12572WAT     H237959   1.435   7.536   4.539
12573WAT      O37960   3.626   5.419   8.045
12573WAT     H137961   3.549   5.406   7.983
12573WAT     H237962   3.593   5.448   8.134
12574WAT      O37963   5.958   9.366   3.376
12574WAT     H137964   5.885   9.307   3.410
12574WAT     H237965   6.018   9.391   3.451
12575WAT      O37966   6.709   8.194   2.518
12575WAT     H137967   6.673   8.102   2.502
12575WAT     H237968   6.661   8.236   2.595
12576WAT      O37969   7.837   3.852   3.311
12576WAT     H137970   7.823   3.870   3.408
12576WAT     H237971   7.789   3.768   3.286
12577WAT      O37972   6.919   4.557   7.124
12577WAT     H137973   6.900   4.506   7.208
12577WAT     H237974   6.854   4.632   7.115
12578WAT      O37975   5.777   6.435   3.255
12578WAT     H137976   5.871   6.447   3.224
12578WAT     H237977   5.753   6.508   3.319
12579WAT      O37978   9.437   3.363   5.655
12579WAT     H137979   9.363   3.343   5.591
12579WAT     H237980   9.513   3.300   5.639
12580WAT      O37981   4.923   2.822   9.644
12580WAT     H137982   4.945   2.871   9.729
12580WAT     H237983   4.879   2.885   9.580
12581WAT      O37984   7.283   9.174   6.005
12581WAT     H137985   7.195   9.212   6.035
12581WAT     H237986   7.318   9.111   6.075
12582WAT      O37987   6.583   4.497   3.365
12582WAT     H137988   6.624   4.449   3.443
12582WAT     H237989   6.484   4.502   3.378
12583WAT      O37990   8.910   4.470   8.543
12583WAT     H137991   8.818   4.441   8.517
12583WAT     H237992   8.905   4.538   8.616
12584WAT      O37993   8.323   0.075   9.395
12584WAT     H137994   8.298   0.022   9.476
12584WAT     H237995   8.357   0.165   9.423
12585WAT      O37996   7.390   3.746   9.251
12585WAT     H137997   7.327   3.723   9.176
12585WAT     H237998   7.455   3.671   9.263
12586WAT      O37999   2.242   8.034   4.960
12586WAT     H138000   2.292   8.120   4.952
12586WAT     H238001   2.307   7.958   4.963
12587WAT      O38002   8.029   3.644   4.144
12587WAT     H138003   8.076   3.563   4.108
12587WAT     H238004   7.950   3.616   4.198
12588WAT      O38005   8.720   8.919   1.850
12588WAT     H138006   8.650   8.950   1.785
12588WAT     H238007   8.809   8.952   1.821
12589WAT      O38008   0.843   5.786   0.722
12589WAT     H138009   0.886   5.714   0.668
12589WAT     H238010   0.909   5.861   0.736
12590WAT      O38011   4.912   2.448   7.539
12590WAT     H138012   4.925   2.546   7.557
12590WAT     H238013   4.815   2.429   7.527
12591WAT      O38014   1.858   5.485   6.106
12591WAT     H138015   1.895   5.542   6.032
12591WAT     H238016   1.852   5.540   6.189
12592WAT      O38017   7.418   7.376   1.397
12592WAT     H138018   7.384   7.325   1.476
12592WAT     H238019   7.364   7.458   1.383
12593WAT      O38020   7.353   2.648   9.784
12593WAT     H138021   7.392   2.655   9.692
12593WAT     H238022   7.306   2.733   9.807
12594WAT      O38023   4.324   2.350   2.100
12594WAT     H138024   4.381   2.275   2.135
12594WAT     H238025   4.289   2.326   2.009
12595WAT      O38026   6.754   5.936   4.833
12595WAT     H138027   6.810   6.018   4.820
12595WAT     H238028   6.763   5.903   4.927
12596WAT      O38029   4.499   5.496   7.133
12596WAT     H138030   4.493   5.589   7.096
12596WAT     H238031   4.448   5.490   7.218
12597WAT      O38032   2.148   3.957   2.714
12597WAT     H138033   2.156   3.860   2.736
12597WAT     H238034   2.126   4.009   2.796
12598WAT      O38035   1.988   8.113   6.010
12598WAT     H138036   1.904   8.162   5.989
12598WAT     H238037   1.988   8.025   5.962
12599WAT      O38038   9.720   6.707   2.906
12599WAT     H138039   9.735   6.792   2.856
12599WAT     H238040   9.783   6.637   2.873
12600WAT      O38041   4.410   2.364   2.503
12600WAT     H138042   4.400   2.378   2.601
12600WAT     H238043   4.321   2.344   2.462
12601WAT      O38044   3.042   2.653   2.126
12601WAT     H138045   3.019   2.625   2.032
12601WAT     H238046   2.999   2.742   2.145
12602WAT      O38047   1.391   8.404   8.779
12602WAT     H138048   1.313   8.396   8.840
12602WAT     H238049   1.465   8.344   8.811
12603WAT      O38050   3.323   5.543   4.524
12603WAT     H138051   3.285   5.606   4.592
12603WAT     H238052   3.267   5.545   4.442
12604WAT      O38053   3.398   8.696   7.795
12604WAT     H138054   3.374   8.750   7.875
12604WAT     H238055   3.316   8.677   7.742
12605WAT      O38056   3.692   4.854   6.577
12605WAT     H138057   3.787   4.842   6.546
12605WAT     H238058   3.681   4.811   6.667
12606WAT      O38059   7.495   7.579   5.232
12606WAT     H138060   7.566   7.645   5.209
12606WAT     H238061   7.537   7.493   5.263
12607WAT      O38062   3.527   2.637   5.617
12607WAT     H138063   3.488   2.729   5.627
12607WAT     H238064   3.563   2.606   5.705
12608WAT      O38065   1.276   1.258   2.557
12608WAT     H138066   1.182   1.255   2.522
12608WAT     H238067   1.304   1.353   2.570
12609WAT      O38068   2.403   5.622   5.728
12609WAT     H138069   2.426   5.682   5.804
12609WAT     H238070   2.451   5.534   5.740
12610WAT      O38071   2.404   9.689   9.879
12610WAT     H138072   2.317   9.737   9.886
12610WAT     H238073   2.450   9.692   9.967
12611WAT      O38074   5.015   2.089   0.621
12611WAT     H138075   4.950   2.076   0.546
12611WAT     H238076   5.106   2.057   0.591
12612WAT      O38077   9.460   3.828   9.747
12612WAT     H138078   9.361   3.814   9.748
12612WAT     H238079   9.502   3.774   9.820
12613WAT      O38080   5.123   5.663   2.717
12613WAT     H138081   5.151   5.699   2.628
12613WAT     H238082   5.052   5.722   2.756
12614WAT      O38083   8.884   5.850   9.026
12614WAT     H138084   8.877   5.787   8.948
12614WAT     H238085   8.853   5.941   8.998
12615WAT      O38086   9.709   9.449   2.051
12615WAT     H138087   9.779   9.518   2.032
12615WAT     H238088   9.624   9.473   2.003
12616WAT      O38089   4.865   2.798   2.528
12616WAT     H138090   4.786   2.742   2.503
12616WAT     H238091   4.904   2.764   2.614
12617WAT      O38092   3.387   5.459   5.678
12617WAT     H138093   3.348   5.397   5.747
12617WAT     H238094   3.341   5.548   5.684
12618WAT      O38095   6.116   1.962   7.109
12618WAT     H138096   6.070   2.041   7.151
12618WAT     H238097   6.199   1.941   7.161
12619WAT      O38098   5.534   1.953   8.032
12619WAT     H138099   5.440   1.981   8.049
12619WAT     H238100   5.597   2.018   8.074
12620WAT      O38101   3.465   6.982   9.798
12620WAT     H138102   3.550   6.970   9.849
12620WAT     H238103   3.485   7.000   9.702
12621WAT      O38104   3.216   4.067   1.474
12621WAT     H138105   3.281   4.058   1.550
12621WAT     H238106   3.207   4.164   1.449
12622WAT      O38107   4.569   7.844   8.422
12622WAT     H138108   4.630   7.814   8.348
12622WAT     H238109   4.476   7.857   8.386
12623WAT      O38110   5.305   9.170   6.561
12623WAT     H138111   5.255   9.186   6.476
12623WAT     H238112   5.343   9.078   6.561
12624WAT      O38113   5.477   7.741   3.732
12624WAT     H138114   5.476   7.834   3.696
12624WAT     H238115   5.421   7.737   3.815
12625WAT      O38116   4.636   0.817   3.131
12625WAT     H138117   4.556   0.773   3.090
12625WAT     H238118   4.715   0.757   3.123
12626WAT      O38119   6.321   7.582   1.549
12626WAT     H138120   6.419   7.570   1.565
12626WAT     H238121   6.297   7.678   1.560
12627WAT      O38122   3.199   1.868   7.071
12627WAT     H138123   3.153   1.925   7.139
12627WAT     H238124   3.141   1.790   7.048
12628WAT      O38125   4.637   4.705   9.763
12628WAT     H138126   4.602   4.613   9.783
12628WAT     H238127   4.699   4.701   9.685
12629WAT      O38128   2.018   1.906   0.505
12629WAT     H138129   1.957   1.870   0.576
12629WAT     H238130   1.979   1.886   0.415
12630WAT      O38131   6.673   5.651   2.633
12630WAT     H138132   6.701   5.733   2.682
12630WAT     H238133   6.575   5.636   2.646
12631WAT      O38134   1.699   6.541   4.828
12631WAT     H138135   1.691   6.445   4.803
12631WAT     H238136   1.776   6.583   4.779
12632WAT      O38137   6.217   1.470   9.606
12632WAT     H138138   6.267   1.454   9.520
12632WAT     H238139   6.269   1.534   9.663
12633WAT      O38140   8.539   4.514   8.261
12633WAT     H138141   8.609   4.491   8.193
12633WAT     H238142   8.449   4.503   8.221
12634WAT      O38143   0.466   1.552   6.108
12634WAT     H138144   0.462   1.636   6.163
12634WAT     H238145   0.516   1.570   6.024
12635WAT      O38146   2.425   4.451   5.555
12635WAT     H138147   2.468   4.518   5.615
12635WAT     H238148   2.435   4.480   5.460
12636WAT      O38149   5.238   1.363   5.207
12636WAT     H138150   5.329   1.320   5.204
12636WAT     H238151   5.191   1.335   5.291
12637WAT      O38152   9.103   9.381   0.915
12637WAT     H138153   9.101   9.479   0.893
12637WAT     H238154   9.015   9.353   0.952
12638WAT      O38155   0.360   5.970   4.453
12638WAT     H138156   0.365   5.993   4.355
12638WAT     H238157   0.335   6.052   4.504
12639WAT      O38158   2.197   0.884   5.257
12639WAT     H138159   2.239   0.878   5.167
12639WAT     H238160   2.202   0.796   5.303
12640WAT      O38161   1.951   6.010   1.612
12640WAT     H138162   1.854   6.005   1.637
12640WAT     H238163   1.959   6.032   1.515
12641WAT      O38164   4.460   6.584   3.645
12641WAT     H138165   4.513   6.652   3.696
12641WAT     H238166   4.366   6.584   3.677
12642WAT      O38167   1.364   6.622   7.249
12642WAT     H138168   1.344   6.719   7.261
12642WAT     H238169   1.463   6.608   7.246
12643WAT      O38170   1.948   0.516   1.058
12643WAT     H138171   2.008   0.556   1.127
12643WAT     H238172   2.003   0.467   0.990
12644WAT      O38173   2.246   2.215   5.005
12644WAT     H138174   2.260   2.116   5.010
12644WAT     H238175   2.262   2.246   4.911
12645WAT      O38176   0.443   7.361   6.904
12645WAT     H138177   0.407   7.326   6.991
12645WAT     H238178   0.405   7.451   6.886
12646WAT      O38179   2.142   1.652   4.844
12646WAT     H138180   2.095   1.612   4.923
12646WAT     H238181   2.167   1.579   4.780
12647WAT      O38182   2.971   2.084   0.930
12647WAT     H138183   2.986   2.179   0.955
12647WAT     H238184   2.885   2.076   0.880
12648WAT      O38185   7.544   2.640   3.179
12648WAT     H138186   7.542   2.581   3.260
12648WAT     H238187   7.639   2.657   3.153
12649WAT      O38188   4.477   4.605   2.666
12649WAT     H138189   4.569   4.610   2.627
12649WAT     H238190   4.458   4.689   2.718
12650WAT      O38191   6.786   0.080   6.979
12650WAT     H138192   6.815  -0.001   6.927
12650WAT     H238193   6.741   0.050   7.063
12651WAT      O38194   7.004   5.182   6.412
12651WAT     H138195   7.050   5.263   6.449
12651WAT     H238196   7.056   5.148   6.333
12652WAT      O38197   5.115   9.173   1.562
12652WAT     H138198   5.087   9.119   1.642
12652WAT     H238199   5.035   9.220   1.525
12653WAT      O38200   8.660   7.701   1.779
12653WAT     H138201   8.663   7.726   1.682
12653WAT     H238202   8.580   7.643   1.796
12654WAT      O38203   5.208   9.403   9.415
12654WAT     H138204   5.193   9.482   9.355
12654WAT     H238205   5.205   9.432   9.510
12655WAT      O38206   2.777   9.529   7.516
12655WAT     H138207   2.681   9.508   7.538
12655WAT     H238208   2.817   9.453   7.466
12656WAT      O38209   2.766   5.208   4.997
12656WAT     H138210   2.701   5.140   4.966
12656WAT     H238211   2.848   5.163   5.033
12657WAT      O38212   6.929   6.101   0.273
12657WAT     H138213   6.893   6.170   0.210
12657WAT     H238214   7.028   6.092   0.260
12658WAT      O38215   4.087   5.218   8.534
12658WAT     H138216   4.090   5.317   8.521
12658WAT     H238217   4.028   5.176   8.465
12659WAT      O38218   9.746   9.625   3.694
12659WAT     H138219   9.812   9.551   3.707
12659WAT     H238220   9.683   9.601   3.620
12660WAT      O38221   9.264   5.419   7.395
12660WAT     H138222   9.169   5.414   7.423
12660WAT     H238223   9.323   5.384   7.468
12661WAT      O38224   7.338   6.346   3.303
12661WAT     H138225   7.318   6.439   3.271
12661WAT     H238226   7.327   6.343   3.403
12662WAT      O38227   9.606   8.007   0.735
12662WAT     H138228   9.611   7.913   0.768
12662WAT     H238229   9.511   8.029   0.712
12663WAT      O38230   4.141   1.850   3.493
12663WAT     H138231   4.069   1.784   3.516
12663WAT     H238232   4.115   1.899   3.410
12664WAT      O38233   2.974   0.897   4.644
12664WAT     H138234   2.980   0.931   4.550
12664WAT     H238235   2.967   0.797   4.642
12665WAT      O38236   3.893   6.132   4.246
12665WAT     H138237   3.957   6.203   4.216
12665WAT     H238238   3.902   6.052   4.187
12666WAT      O38239   4.831   9.352   1.961
12666WAT     H138240   4.747   9.406   1.963
12666WAT     H238241   4.889   9.384   1.886
12667WAT      O38242   3.210   0.350   8.400
12667WAT     H138243   3.239   0.264   8.358
12667WAT     H238244   3.196   0.336   8.499
12668WAT      O38245   3.166   1.379   9.134
12668WAT     H138246   3.237   1.437   9.175
12668WAT     H238247   3.158   1.295   9.186
12669WAT      O38248   6.782   1.330   7.056
12669WAT     H138249   6.754   1.366   6.966
12669WAT     H238250   6.701   1.318   7.113
12670WAT      O38251   6.848   7.518   2.057
12670WAT     H138252   6.805   7.537   2.145
12670WAT     H238253   6.940   7.558   2.055
12671WAT      O38254   6.425   3.301   3.238
12671WAT     H138255   6.378   3.337   3.158
12671WAT     H238256   6.359   3.282   3.311
12672WAT      O38257   0.097   6.405   6.269
12672WAT     H138258   0.171   6.352   6.227
12672WAT     H238259   0.135   6.469   6.336
12673WAT      O38260   8.684   7.258   6.677
12673WAT     H138261   8.690   7.280   6.580
12673WAT     H238262   8.709   7.338   6.731
12674WAT      O38263   2.397   9.783   9.242
12674WAT     H138264   2.352   9.699   9.211
12674WAT     H238265   2.478   9.800   9.187
12675WAT      O38266   0.148   3.676   6.287
12675WAT     H138267   0.094   3.759   6.278
12675WAT     H238268   0.087   3.597   6.292
12676WAT      O38269   4.890   1.267   5.522
12676WAT     H138270   4.835   1.194   5.480
12676WAT     H238271   4.854   1.286   5.613
12677WAT      O38272   9.330   7.807   6.461
12677WAT     H138273   9.379   7.721   6.477
12677WAT     H238274   9.396   7.878   6.435
12678WAT      O38275   0.040   0.396   1.121
12678WAT     H138276   0.067   0.304   1.150
12678WAT     H238277  -0.052   0.416   1.154
12679WAT      O38278   2.895   9.333   7.367
12679WAT     H138279   2.890   9.262   7.437
12679WAT     H238280   2.989   9.342   7.335
12680WAT      O38281   4.229   6.895   7.670
12680WAT     H138282   4.161   6.846   7.725
12680WAT     H238283   4.227   6.861   7.576
12681WAT      O38284   1.581   8.785   1.594
12681WAT     H138285   1.623   8.698   1.566
12681WAT     H238286   1.493   8.795   1.546
12682WAT      O38287   4.766   7.797   5.084
12682WAT     H138288   4.667   7.812   5.078
12682WAT     H238289   4.786   7.737   5.162
12683WAT      O38290   4.886   9.841   7.696
12683WAT     H138291   4.881   9.743   7.676
12683WAT     H238292   4.978   9.875   7.677
12684WAT      O38293   2.963   2.245   9.414
12684WAT     H138294   3.016   2.171   9.372
12684WAT     H238295   3.003   2.270   9.502
12685WAT      O38296   6.464   5.943   4.955
12685WAT     H138297   6.466   5.892   5.041
12685WAT     H238298   6.494   6.037   4.972
12686WAT      O38299   0.815   8.964   3.029
12686WAT     H138300   0.858   8.903   3.096
12686WAT     H238301   0.879   9.037   3.005
12687WAT      O38302   4.193   7.868   4.482
12687WAT     H138303   4.192   7.804   4.405
12687WAT     H238304   4.101   7.907   4.494
12688WAT      O38305   6.091   1.208   0.510
12688WAT     H138306   6.125   1.145   0.579
12688WAT     H238307   6.113   1.173   0.418
12689WAT      O38308   2.169   4.590   1.819
12689WAT     H138309   2.257   4.545   1.804
12689WAT     H238310   2.184   4.689   1.825
12690WAT      O38311   4.119   6.020   8.645
12690WAT     H138312   4.059   5.963   8.702
12690WAT     H238313   4.211   5.981   8.643
12691WAT      O38314   4.997   3.712   6.309
12691WAT     H138315   5.014   3.811   6.304
12691WAT     H238316   4.904   3.693   6.276
12692WAT      O38317   1.582   2.487   0.641
12692WAT     H138318   1.642   2.563   0.614
12692WAT     H238319   1.498   2.491   0.588
12693WAT      O38320   1.215   9.835   3.292
12693WAT     H138321   1.264   9.748   3.299
12693WAT     H238322   1.222   9.884   3.380
12694WAT      O38323   1.728   2.128   1.459
12694WAT     H138324   1.701   2.035   1.437
12694WAT     H238325   1.775   2.169   1.381
12695WAT      O38326   5.083   0.147   1.173
12695WAT     H138327   5.004   0.125   1.229
12695WAT     H238328   5.125   0.232   1.205
12696WAT      O38329   9.115   1.502   9.487
12696WAT     H138330   9.146   1.566   9.558
12696WAT     H238331   9.015   1.499   9.486
12697WAT      O38332   9.452   2.469   6.913
12697WAT     H138333   9.375   2.430   6.862
12697WAT     H238334   9.482   2.554   6.869
12698WAT      O38335   1.814   6.347   8.679
12698WAT     H138336   1.784   6.396   8.597
12698WAT     H238337   1.736   6.332   8.739
12699WAT      O38338   3.325   7.383   1.438
12699WAT     H138339   3.297   7.478   1.433
12699WAT     H238340   3.334   7.345   1.346
12700WAT      O38341   1.217   3.430   2.216
12700WAT     H138342   1.276   3.353   2.193
12700WAT     H238343   1.260   3.515   2.185
12701WAT      O38344   9.567   9.541   3.489
12701WAT     H138345   9.499   9.551   3.562
12701WAT     H238346   9.599   9.446   3.486
12702WAT      O38347   9.702   4.822   0.244
12702WAT     H138348   9.764   4.878   0.300
12702WAT     H238349   9.610   4.827   0.281
12703WAT      O38350   0.279   0.239   4.672
12703WAT     H138351   0.217   0.269   4.744
12703WAT     H238352   0.247   0.152   4.634
12704WAT      O38353   0.906   9.668   5.308
12704WAT     H138354   0.903   9.620   5.396
12704WAT     H238355   0.964   9.749   5.316
12705WAT      O38356   5.591   8.079   9.084
12705WAT     H138357   5.509   8.134   9.098
12705WAT     H238358   5.657   8.099   9.156
12706WAT      O38359   0.036   5.510   8.284
12706WAT     H138360   0.027   5.440   8.213
12706WAT     H238361   0.075   5.469   8.366
12707WAT      O38362   6.268   3.688   5.420
12707WAT     H138363   6.271   3.771   5.364
12707WAT     H238364   6.357   3.671   5.460
12708WAT      O38365   3.652   9.253   4.142
12708WAT     H138366   3.562   9.235   4.182
12708WAT     H238367   3.698   9.325   4.193
12709WAT      O38368   1.385   9.397   1.351
12709WAT     H138369   1.291   9.416   1.378
12709WAT     H238370   1.391   9.387   1.252
12710WAT      O38371   4.296   0.175   2.390
12710WAT     H138372   4.279   0.112   2.314
12710WAT     H238373   4.393   0.170   2.415
12711WAT      O38374   4.347   7.174   2.150
12711WAT     H138375   4.306   7.124   2.226
12711WAT     H238376   4.307   7.266   2.145
12712WAT      O38377   4.506   7.827   5.023
12712WAT     H138378   4.417   7.860   4.993
12712WAT     H238379   4.550   7.777   4.948
12713WAT      O38380   3.672   6.747   2.702
12713WAT     H138381   3.573   6.741   2.689
12713WAT     H238382   3.711   6.807   2.633
12714WAT      O38383   3.586   7.474   6.137
12714WAT     H138384   3.607   7.564   6.174
12714WAT     H238385   3.535   7.421   6.205
12715WAT      O38386   7.521   5.203   8.103
12715WAT     H138387   7.591   5.267   8.073
12715WAT     H238388   7.539   5.112   8.064
12716WAT      O38389   2.941   3.999   5.239
12716WAT     H138390   3.037   3.972   5.248
12716WAT     H238391   2.905   4.025   5.329
12717WAT      O38392   8.350   8.851   9.125
12717WAT     H138393   8.383   8.939   9.092
12717WAT     H238394   8.268   8.825   9.075
12718WAT      O38395   8.531   1.554   7.620
12718WAT     H138396   8.579   1.526   7.537
12718WAT     H238397   8.449   1.498   7.631
12719WAT      O38398   1.159   3.274   6.775
12719WAT     H138399   1.140   3.252   6.871
12719WAT     H238400   1.091   3.338   6.741
12720WAT      O38401   7.315   4.896   9.834
12720WAT     H138402   7.330   4.982   9.882
12720WAT     H238403   7.351   4.820   9.889
12721WAT      O38404   5.229   5.100   9.019
12721WAT     H138405   5.152   5.116   9.081
12721WAT     H238406   5.213   5.147   8.933
12722WAT      O38407   4.383   8.844   2.034
12722WAT     H138408   4.344   8.917   2.091
12722WAT     H238409   4.311   8.783   2.003
12723WAT      O38410   1.495   7.870   9.238
12723WAT     H138411   1.564   7.822   9.184
12723WAT     H238412   1.531   7.890   9.329
12724WAT      O38413   3.654   3.541   7.889
12724WAT     H138414   3.652   3.502   7.797
12724WAT     H238415   3.568   3.589   7.907
12725WAT      O38416   1.781   1.213   5.829
12725WAT     H138417   1.754   1.243   5.921
12725WAT     H238418   1.847   1.278   5.792
12726WAT      O38419   1.290   4.624   7.534
12726WAT     H138420   1.288   4.690   7.459
12726WAT     H238421   1.301   4.532   7.497
12727WAT      O38422   1.747   0.214   4.570
12727WAT     H138423   1.790   0.273   4.639
12727WAT     H238424   1.690   0.270   4.510
12728WAT      O38425   1.026   2.346   6.154
12728WAT     H138426   1.073   2.258   6.161
12728WAT     H238427   1.048   2.388   6.066
12729WAT      O38428   0.850   0.271   3.470
12729WAT     H138429   0.764   0.314   3.439
12729WAT     H238430   0.927   0.313   3.422
12730WAT      O38431   0.103   2.864   6.668
12730WAT     H138432   0.138   2.953   6.639
12730WAT     H238433   0.146   2.792   6.612
12731WAT      O38434   6.245   7.909   7.947
12731WAT     H138435   6.258   8.005   7.969
12731WAT     H238436   6.225   7.899   7.849
12732WAT      O38437   5.672   1.599   8.696
12732WAT     H138438   5.594   1.545   8.728
12732WAT     H238439   5.641   1.689   8.668
12733WAT      O38440   1.595   5.335   2.245
12733WAT     H138441   1.617   5.426   2.211
12733WAT     H238442   1.666   5.271   2.215
12734WAT      O38443   2.582   8.050   2.421
12734WAT     H138444   2.666   8.091   2.458
12734WAT     H238445   2.521   8.123   2.390
12735WAT      O38446   6.895   6.090   1.923
12735WAT     H138447   6.852   6.176   1.895
12735WAT     H238448   6.922   6.096   2.019
12736WAT      O38449   9.879   0.249   5.984
12736WAT     H138450   9.965   0.294   5.961
12736WAT     H238451   9.840   0.293   6.065
12737WAT      O38452   5.051   2.246   1.609
12737WAT     H138453   4.969   2.198   1.577
12737WAT     H238454   5.060   2.333   1.560
12738WAT      O38455   5.707   0.523   7.175
12738WAT     H138456   5.648   0.519   7.094
12738WAT     H238457   5.700   0.437   7.225
12739WAT      O38458   7.959   1.482   6.123
12739WAT     H138459   8.032   1.512   6.061
12739WAT     H238460   7.978   1.514   6.215
12740WAT      O38461   8.400   9.508   7.364
12740WAT     H138462   8.374   9.526   7.269
12740WAT     H238463   8.427   9.594   7.408
12741WAT      O38464   4.984   0.671   1.562
12741WAT     H138465   5.019   0.593   1.615
12741WAT     H238466   4.993   0.754   1.616
12742WAT      O38467   2.589   7.602   5.962
12742WAT     H138468   2.652   7.525   5.959
12742WAT     H238469   2.626   7.678   5.909
12743WAT      O38470   8.148   8.940   4.777
12743WAT     H138471   8.192   8.945   4.867
12743WAT     H238472   8.061   8.989   4.780
12744WAT      O38473   6.771   4.134   4.333
12744WAT     H138474   6.825   4.068   4.385
12744WAT     H238475   6.832   4.194   4.281
12745WAT      O38476   3.512   1.172   8.946
12745WAT     H138477   3.546   1.225   9.024
12745WAT     H238478   3.418   1.201   8.925
12746WAT      O38479   5.217   9.621   5.227
12746WAT     H138480   5.305   9.627   5.181
12746WAT     H238481   5.193   9.710   5.265
12747WAT      O38482   9.618   0.188   2.282
12747WAT     H138483   9.693   0.205   2.346
12747WAT     H238484   9.562   0.270   2.274
12748WAT      O38485   0.941   3.236   3.263
12748WAT     H138486   0.904   3.217   3.354
12748WAT     H238487   1.034   3.272   3.271
12749WAT      O38488   4.650   6.159   9.627
12749WAT     H138489   4.724   6.093   9.619
12749WAT     H238490   4.688   6.252   9.626
12750WAT      O38491   9.560   5.863   8.474
12750WAT     H138492   9.577   5.770   8.440
12750WAT     H238493   9.556   5.862   8.574
12751WAT      O38494   0.529   9.300   7.862
12751WAT     H138495   0.468   9.327   7.936
12751WAT     H238496   0.488   9.225   7.810
12752WAT      O38497   3.306   0.219   1.578
12752WAT     H138498   3.366   0.250   1.653
12752WAT     H238499   3.361   0.207   1.495
12753WAT      O38500   8.209   6.785   3.720
12753WAT     H138501   8.235   6.881   3.735
12753WAT     H238502   8.207   6.767   3.622
12754WAT      O38503   0.833   0.224   5.055
12754WAT     H138504   0.922   0.192   5.086
12754WAT     H238505   0.833   0.324   5.051
12755WAT      O38506   0.227   2.941   5.705
12755WAT     H138507   0.174   2.858   5.687
12755WAT     H238508   0.306   2.918   5.761
12756WAT      O38509   1.633   3.182   6.911
12756WAT     H138510   1.615   3.243   6.834
12756WAT     H238511   1.581   3.097   6.898
12757WAT      O38512   9.342   2.693   5.570
12757WAT     H138513   9.378   2.633   5.499
12757WAT     H238514   9.284   2.763   5.529
12758WAT      O38515   1.402   5.972   3.420
12758WAT     H138516   1.479   5.939   3.365
12758WAT     H238517   1.326   5.996   3.359
12759WAT      O38518   2.596   4.440   3.030
12759WAT     H138519   2.554   4.519   3.074
12759WAT     H238520   2.614   4.370   3.099
12760WAT      O38521   7.500   5.411   2.040
12760WAT     H138522   7.530   5.351   2.114
12760WAT     H238523   7.548   5.386   1.955
12761WAT      O38524   5.865   5.997   8.151
12761WAT     H138525   5.813   5.932   8.207
12761WAT     H238526   5.808   6.078   8.132
12762WAT      O38527   5.961   9.838   8.012
12762WAT     H138528   5.870   9.805   7.984
12762WAT     H238529   6.016   9.761   8.045
12763WAT      O38530   9.889   9.464   5.522
12763WAT     H138531   9.822   9.529   5.486
12763WAT     H238532   9.844   9.404   5.588
12764WAT      O38533   5.064   4.014   9.138
12764WAT     H138534   5.029   3.992   9.047
12764WAT     H238535   4.996   4.068   9.188
12765WAT      O38536   2.108   9.082   8.046
12765WAT     H138537   2.177   9.009   8.050
12765WAT     H238538   2.049   9.067   7.966
12766WAT      O38539   5.868   6.616   3.509
12766WAT     H138540   5.891   6.673   3.430
12766WAT     H238541   5.862   6.674   3.591
12767WAT      O38542   2.210   5.933   1.193
12767WAT     H138543   2.298   5.980   1.187
12767WAT     H238544   2.226   5.835   1.207
12768WAT      O38545   5.706   2.440   3.800
12768WAT     H138546   5.708   2.537   3.825
12768WAT     H238547   5.796   2.413   3.765
12769WAT      O38548   1.558   3.587   9.793
12769WAT     H138549   1.590   3.558   9.703
12769WAT     H238550   1.507   3.513   9.836
12770WAT      O38551   6.366   3.712   7.417
12770WAT     H138552   6.406   3.768   7.345
12770WAT     H238553   6.434   3.646   7.450
12771WAT      O38554   5.472   5.698   7.611
12771WAT     H138555   5.376   5.709   7.585
12771WAT     H238556   5.499   5.602   7.599
12772WAT      O38557   2.081   0.536   8.157
12772WAT     H138558   2.118   0.579   8.075
12772WAT     H238559   2.151   0.478   8.198
12773WAT      O38560   2.849   4.197   5.475
12773WAT     H138561   2.886   4.113   5.515
12773WAT     H238562   2.867   4.274   5.538
12774WAT      O38563   2.966   3.689   8.937
12774WAT     H138564   2.929   3.606   8.979
12774WAT     H238565   2.984   3.757   9.009
12775WAT      O38566   1.215   1.390   8.646
12775WAT     H138567   1.143   1.353   8.588
12775WAT     H238568   1.269   1.315   8.683
12776WAT      O38569   9.551   0.142   5.886
12776WAT     H138570   9.492   0.071   5.848
12776WAT     H238571   9.638   0.102   5.914
12777WAT      O38572   2.774   7.133   8.502
12777WAT     H138573   2.818   7.096   8.584
12777WAT     H238574   2.845   7.165   8.439
12778WAT      O38575   3.842   1.694   8.366
12778WAT     H138576   3.936   1.676   8.338
12778WAT     H238577   3.798   1.608   8.390
12779WAT      O38578   5.538   0.550   9.797
12779WAT     H138579   5.566   0.566   9.892
12779WAT     H238580   5.565   0.457   9.770
12780WAT      O38581   7.233   5.908   2.504
12780WAT     H138582   7.304   5.842   2.531
12780WAT     H238583   7.203   5.888   2.411
12781WAT      O38584   0.130   5.815   3.772
12781WAT     H138585   0.042   5.860   3.780
12781WAT     H238586   0.133   5.737   3.836
12782WAT      O38587   5.649   2.688   6.428
12782WAT     H138588   5.721   2.646   6.372
12782WAT     H238589   5.665   2.786   6.435
12783WAT      O38590   4.457   2.553   7.486
12783WAT     H138591   4.538   2.572   7.541
12783WAT     H238592   4.381   2.610   7.519
12784WAT      O38593   9.018   8.397   8.969
12784WAT     H138594   9.072   8.393   9.053
12784WAT     H238595   8.921   8.404   8.991
12785WAT      O38596   5.319   5.338   7.662
12785WAT     H138597   5.392   5.382   7.714
12785WAT     H238598   5.273   5.406   7.605
12786WAT      O38599   8.104   3.453   5.790
12786WAT     H138600   8.107   3.403   5.703
12786WAT     H238601   8.035   3.413   5.849
12787WAT      O38602   3.985   5.280   1.918
12787WAT     H138603   3.919   5.253   1.988
12787WAT     H238604   4.066   5.320   1.962
12788WAT      O38605   9.783   2.494   6.247
12788WAT     H138606   9.798   2.501   6.345
12788WAT     H238607   9.803   2.401   6.216
12789WAT      O38608   0.819   6.401   4.433
12789WAT     H138609   0.834   6.445   4.344
12789WAT     H238610   0.884   6.437   4.500
12790WAT      O38611   3.608   5.445   3.103
12790WAT     H138612   3.539   5.503   3.146
12790WAT     H238613   3.696   5.456   3.151
12791WAT      O38614   3.886   6.160   7.661
12791WAT     H138615   3.880   6.252   7.699
12791WAT     H238616   3.827   6.098   7.713
12792WAT      O38617   3.226   9.834   5.401
12792WAT     H138618   3.240   9.778   5.483
12792WAT     H238619   3.295   9.906   5.398
12793WAT      O38620   3.172   7.797   9.039
12793WAT     H138621   3.146   7.879   9.090
12793WAT     H238622   3.261   7.812   8.996
12794WAT      O38623   3.529   0.714   0.146
12794WAT     H138624   3.480   0.785   0.095
12794WAT     H238625   3.471   0.682   0.221
12795WAT      O38626   3.178   5.082   1.634
12795WAT     H138627   3.114   5.158   1.633
12795WAT     H238628   3.236   5.086   1.553
12796WAT      O38629   4.163   8.845   0.934
12796WAT     H138630   4.193   8.938   0.915
12796WAT     H238631   4.067   8.835   0.911
12797WAT      O38632   9.244   9.402   5.958
12797WAT     H138633   9.315   9.463   5.994
12797WAT     H238634   9.162   9.456   5.937
12798WAT      O38635   7.531   5.913   0.342
12798WAT     H138636   7.471   5.882   0.269
12798WAT     H238637   7.545   6.012   0.335
12799WAT      O38638   3.548   7.971   9.439
12799WAT     H138639   3.481   7.911   9.481
12799WAT     H238640   3.638   7.956   9.481
12800WAT      O38641   6.769   7.942   6.055
12800WAT     H138642   6.814   7.883   5.988
12800WAT     H238643   6.836   8.006   6.093
12801WAT      O38644   2.558   6.532   5.457
12801WAT     H138645   2.583   6.447   5.410
12801WAT     H238646   2.485   6.578   5.406
12802WAT      O38647   4.188   3.962   0.597
12802WAT     H138648   4.112   3.911   0.638
12802WAT     H238649   4.162   4.059   0.589
12803WAT      O38650   1.428   8.839   7.783
12803WAT     H138651   1.437   8.927   7.829
12803WAT     H238652   1.493   8.834   7.707
12804WAT      O38653   8.982   7.911   2.014
12804WAT     H138654   8.907   7.977   2.005
12804WAT     H238655   9.065   7.950   1.975
12805WAT      O38656   4.046   1.597   9.235
12805WAT     H138657   4.007   1.506   9.246
12805WAT     H238658   3.993   1.663   9.288
12806WAT      O38659   7.764   8.295   6.639
12806WAT     H138660   7.761   8.217   6.577
12806WAT     H238661   7.800   8.265   6.728
12807WAT      O38662   4.198   7.608   2.736
12807WAT     H138663   4.113   7.580   2.691
12807WAT     H238664   4.178   7.630   2.832
12808WAT      O38665   2.011   3.442   9.132
12808WAT     H138666   2.079   3.402   9.070
12808WAT     H238667   1.969   3.369   9.187
12809WAT      O38668   7.559   6.527   7.343
12809WAT     H138669   7.505   6.590   7.399
12809WAT     H238670   7.569   6.564   7.251
12810WAT      O38671   3.581   5.083   2.069
12810WAT     H138672   3.602   5.178   2.045
12810WAT     H238673   3.515   5.046   2.003
12811WAT      O38674   4.288   3.132   8.370
12811WAT     H138675   4.285   3.072   8.450
12811WAT     H238676   4.364   3.197   8.380
12812WAT      O38677   1.766   6.575   8.524
12812WAT     H138678   1.851   6.618   8.554
12812WAT     H238679   1.692   6.642   8.527
12813WAT      O38680   6.256   7.285   0.785
12813WAT     H138681   6.254   7.378   0.820
12813WAT     H238682   6.351   7.253   0.780
12814WAT      O38683   7.970   5.777   7.974
12814WAT     H138684   7.877   5.815   7.976
12814WAT     H238685   8.035   5.850   7.956
12815WAT      O38686   1.839   0.755   6.161
12815WAT     H138687   1.881   0.840   6.193
12815WAT     H238688   1.822   0.695   6.239
12816WAT      O38689   5.063   3.445   2.848
12816WAT     H138690   5.110   3.357   2.858
12816WAT     H238691   4.973   3.430   2.806
12817WAT      O38692   8.277   7.271   4.127
12817WAT     H138693   8.240   7.189   4.083
12817WAT     H238694   8.224   7.292   4.209
12818WAT      O38695   7.479   4.924   8.658
12818WAT     H138696   7.390   4.883   8.678
12818WAT     H238697   7.551   4.855   8.668
12819WAT      O38698   4.154   7.231   8.469
12819WAT     H138699   4.178   7.328   8.475
12819WAT     H238700   4.124   7.209   8.376
12820WAT      O38701   5.568   1.955   3.802
12820WAT     H138702   5.518   2.031   3.762
12820WAT     H238703   5.523   1.926   3.886
12821WAT      O38704   2.269   0.728   9.709
12821WAT     H138705   2.242   0.823   9.723
12821WAT     H238706   2.285   0.711   9.612
12822WAT      O38707   8.163   8.614   5.661
12822WAT     H138708   8.109   8.536   5.630
12822WAT     H238709   8.260   8.596   5.645
12823WAT      O38710   6.867   6.775   5.297
12823WAT     H138711   6.809   6.700   5.265
12823WAT     H238712   6.883   6.838   5.221
12824WAT      O38713   9.865   0.607   8.460
12824WAT     H138714   9.870   0.511   8.434
12824WAT     H238715   9.901   0.619   8.552
12825WAT      O38716   5.487   5.489   3.998
12825WAT     H138717   5.477   5.505   3.900
12825WAT     H238718   5.574   5.443   4.015
12826WAT      O38719   9.379   4.537   5.777
12826WAT     H138720   9.289   4.498   5.799
12826WAT     H238721   9.445   4.510   5.848
12827WAT      O38722   2.859   3.980   8.177
12827WAT     H138723   2.864   4.047   8.251
12827WAT     H238724   2.768   3.981   8.137
12828WAT      O38725   2.675   5.196   3.850
12828WAT     H138726   2.683   5.108   3.896
12828WAT     H238727   2.635   5.184   3.760
12829WAT      O38728   5.990   2.361   6.266
12829WAT     H138729   5.950   2.281   6.310
12829WAT     H238730   6.034   2.334   6.180
12830WAT      O38731   2.695   7.540   4.515
12830WAT     H138732   2.786   7.499   4.523
12830WAT     H238733   2.684   7.578   4.423
12831WAT      O38734   6.348   0.109   0.597
12831WAT     H138735   6.415   0.106   0.671
12831WAT     H238736   6.388   0.067   0.515
12832WAT      O38737   5.590   7.320   0.006
12832WAT     H138738   5.555   7.376   0.081
12832WAT     H238739   5.675   7.275   0.034
12833WAT      O38740   7.698   4.618   0.845
12833WAT     H138741   7.719   4.559   0.923
12833WAT     H238742   7.608   4.595   0.809
12834WAT      O38743   2.691   2.253   2.194
12834WAT     H138744   2.745   2.335   2.170
12834WAT     H238745   2.595   2.278   2.201
12835WAT      O38746   3.485   5.866   0.635
12835WAT     H138747   3.492   5.921   0.551
12835WAT     H238748   3.558   5.892   0.698
12836WAT      O38749   3.401   5.907   3.775
12836WAT     H138750   3.428   5.842   3.847
12836WAT     H238751   3.457   5.892   3.694
12837WAT      O38752   6.970   5.263   5.386
12837WAT     H138753   7.013   5.213   5.311
12837WAT     H238754   6.987   5.213   5.472
12838WAT      O38755   2.288   2.353   1.524
12838WAT     H138756   2.232   2.432   1.548
12838WAT     H238757   2.361   2.382   1.461
12839WAT      O38758   3.898   5.362   6.995
12839WAT     H138759   3.861   5.363   6.903
12839WAT     H238760   3.986   5.314   6.995
12840WAT      O38761   2.245   6.523   5.415
12840WAT     H138762   2.177   6.581   5.460
12840WAT     H238763   2.268   6.447   5.476
12841WAT      O38764   7.653   2.282   9.440
12841WAT     H138765   7.669   2.333   9.524
12841WAT     H238766   7.575   2.321   9.391
12842WAT      O38767   7.160   6.420   5.745
12842WAT     H138768   7.168   6.428   5.844
12842WAT     H238769   7.095   6.489   5.712
12843WAT      O38770   3.545   8.548   6.033
12843WAT     H138771   3.492   8.566   5.951
12843WAT     H238772   3.527   8.455   6.065
12844WAT      O38773   5.319   5.179   6.445
12844WAT     H138774   5.357   5.243   6.378
12844WAT     H238775   5.327   5.085   6.410
12845WAT      O38776   3.288   4.636   3.674
12845WAT     H138777   3.289   4.537   3.666
12845WAT     H238778   3.374   4.673   3.640
12846WAT      O38779   6.737   8.657   7.756
12846WAT     H138780   6.680   8.692   7.681
12846WAT     H238781   6.768   8.734   7.812
12847WAT      O38782   5.417   4.195   2.598
12847WAT     H138783   5.422   4.232   2.505
12847WAT     H238784   5.374   4.105   2.596
12848WAT      O38785   3.979   1.774   8.607
12848WAT     H138786   3.952   1.798   8.701
12848WAT     H238787   3.897   1.761   8.552
12849WAT      O38788   7.369   3.194   6.805
12849WAT     H138789   7.438   3.194   6.877
12849WAT     H238790   7.405   3.242   6.725
12850WAT      O38791   8.813   6.177   7.970
12850WAT     H138792   8.739   6.159   7.905
12850WAT     H238793   8.861   6.260   7.942
12851WAT      O38794   7.781   3.831   8.736
12851WAT     H138795   7.826   3.871   8.815
12851WAT     H238796   7.833   3.751   8.704
12852WAT      O38797   9.513   8.181   4.729
12852WAT     H138798   9.578   8.181   4.805
12852WAT     H238799   9.527   8.100   4.673
12853WAT      O38800   1.791   1.190   1.535
12853WAT     H138801   1.782   1.286   1.509
12853WAT     H238802   1.706   1.160   1.579
12854WAT      O38803   7.599   1.610   7.190
12854WAT     H138804   7.641   1.700   7.200
12854WAT     H238805   7.625   1.551   7.267
12855WAT      O38806   7.536   5.854   2.164
12855WAT     H138807   7.555   5.792   2.088
12855WAT     H238808   7.438   5.853   2.183
12856WAT      O38809   9.411   9.756   5.793
12856WAT     H138810   9.494   9.712   5.756
12856WAT     H238811   9.394   9.722   5.885
12857WAT      O38812   8.528   0.397   4.935
12857WAT     H138813   8.578   0.380   4.850
12857WAT     H238814   8.526   0.496   4.952
12858WAT      O38815   2.995   0.438   6.809
12858WAT     H138816   3.020   0.530   6.839
12858WAT     H238817   2.895   0.428   6.809
12859WAT      O38818   2.617   9.822   4.927
12859WAT     H138819   2.599   9.794   5.021
12859WAT     H238820   2.575   9.910   4.909
12860WAT      O38821   5.191   1.654   1.617
12860WAT     H138822   5.210   1.692   1.707
12860WAT     H238823   5.119   1.586   1.624
12861WAT      O38824   0.863   4.158   0.578
12861WAT     H138825   0.928   4.199   0.642
12861WAT     H238826   0.777   4.139   0.624
12862WAT      O38827   6.326   5.756   5.700
12862WAT     H138828   6.235   5.789   5.674
12862WAT     H238829   6.330   5.745   5.799
12863WAT      O38830   5.056   1.073   0.698
12863WAT     H138831   4.982   1.047   0.636
12863WAT     H238832   5.108   0.992   0.724
12864WAT      O38833   4.083   6.185   3.290
12864WAT     H138834   4.011   6.116   3.287
12864WAT     H238835   4.161   6.156   3.235
12865WAT      O38836   9.524   3.161   4.021
12865WAT     H138837   9.534   3.077   4.074
12865WAT     H238838   9.608   3.178   3.969
12866WAT      O38839   8.483   4.415   9.888
12866WAT     H138840   8.522   4.361   9.964
12866WAT     H238841   8.556   4.455   9.834
12867WAT      O38842   2.994   5.552   5.072
12867WAT     H138843   3.007   5.510   4.982
12867WAT     H238844   3.081   5.554   5.121
12868WAT      O38845   6.593   0.844   3.285
12868WAT     H138846   6.610   0.883   3.195
12868WAT     H238847   6.672   0.860   3.344
12869WAT      O38848   6.832   8.975   9.661
12869WAT     H138849   6.871   9.005   9.748
12869WAT     H238850   6.882   9.017   9.586
12870WAT      O38851   1.310   5.348   3.084
12870WAT     H138852   1.281   5.424   3.026
12870WAT     H238853   1.251   5.343   3.165
12871WAT      O38854   6.668   3.271   9.815
12871WAT     H138855   6.739   3.328   9.773
12871WAT     H238856   6.639   3.200   9.750
12872WAT      O38857   3.380   1.938   5.325
12872WAT     H138858   3.386   1.866   5.395
12872WAT     H238859   3.436   2.016   5.352
12873WAT      O38860   3.165   0.367   0.246
12873WAT     H138861   3.219   0.298   0.294
12873WAT     H238862   3.160   0.344   0.149
12874WAT      O38863   5.563   9.065   2.949
12874WAT     H138864   5.655   9.089   2.978
12874WAT     H238865   5.497   9.093   3.019
12875WAT      O38866   3.022   3.426   9.221
12875WAT     H138867   2.943   3.461   9.171
12875WAT     H238868   3.033   3.328   9.203
12876WAT      O38869   4.333   9.390   6.444
12876WAT     H138870   4.391   9.337   6.507
12876WAT     H238871   4.385   9.468   6.409
12877WAT      O38872   4.252   0.729   0.811
12877WAT     H138873   4.347   0.698   0.815
12877WAT     H238874   4.202   0.696   0.892
12878WAT      O38875   9.369   9.417   5.030
12878WAT     H138876   9.365   9.391   5.126
12878WAT     H238877   9.333   9.343   4.973
12879WAT      O38878   5.418   8.159   5.219
12879WAT     H138879   5.378   8.230   5.161
12879WAT     H238880   5.346   8.108   5.266
12880WAT      O38881   2.118   4.749   0.983
12880WAT     H138882   2.041   4.699   0.943
12880WAT     H238883   2.086   4.799   1.063
12881WAT      O38884   6.603   1.464   6.418
12881WAT     H138885   6.560   1.497   6.334
12881WAT     H238886   6.536   1.462   6.492
12882WAT      O38887   0.286   5.323   5.242
12882WAT     H138888   0.311   5.397   5.305
12882WAT     H238889   0.195   5.289   5.264
12883WAT      O38890   4.127   4.814   6.206
12883WAT     H138891   4.079   4.731   6.232
12883WAT     H238892   4.065   4.874   6.155
12884WAT      O38893   5.539   3.179   7.593
12884WAT     H138894   5.488   3.132   7.521
12884WAT     H238895   5.517   3.276   7.591
12885WAT      O38896   4.372   3.753   2.958
12885WAT     H138897   4.372   3.811   3.040
12885WAT     H238898   4.349   3.659   2.984
12886WAT      O38899   5.657   5.855   1.290
12886WAT     H138900   5.691   5.949   1.283
12886WAT     H238901   5.687   5.803   1.210
12887WAT      O38902   6.701   1.254   8.302
12887WAT     H138903   6.783   1.252   8.359
12887WAT     H238904   6.627   1.205   8.348
12888WAT      O38905   5.187   5.389   9.637
12888WAT     H138906   5.180   5.392   9.537
12888WAT     H238907   5.282   5.374   9.664
12889WAT      O38908   5.354   6.145   8.546
12889WAT     H138909   5.376   6.059   8.593
12889WAT     H238910   5.336   6.127   8.450
12890WAT      O38911   8.741   7.073   9.886
12890WAT     H138912   8.686   7.027   9.815
12890WAT     H238913   8.779   7.005   9.948
12891WAT      O38914   6.706   1.732   5.192
12891WAT     H138915   6.684   1.829   5.181
12891WAT     H238916   6.717   1.690   5.102
12892WAT      O38917   8.152   6.034   7.874
12892WAT     H138918   8.246   5.999   7.874
12892WAT     H238919   8.118   6.038   7.780
12893WAT      O38920   5.620   1.000   9.215
12893WAT     H138921   5.685   1.023   9.143
12893WAT     H238922   5.651   0.918   9.264
12894WAT      O38923   9.133   5.604   8.919
12894WAT     H138924   9.062   5.612   8.989
12894WAT     H238925   9.176   5.693   8.904
12895WAT      O38926   0.685   9.707   4.196
12895WAT     H138927   0.720   9.719   4.103
12895WAT     H238928   0.624   9.628   4.198
12896WAT      O38929   2.179   2.405   9.596
12896WAT     H138930   2.129   2.399   9.683
12896WAT     H238931   2.191   2.501   9.571
12897WAT      O38932   9.397   7.715   8.923
12897WAT     H138933   9.401   7.719   8.824
12897WAT     H238934   9.440   7.631   8.955
12898WAT      O38935   3.674   6.035   8.923
12898WAT     H138936   3.627   5.986   8.996
12898WAT     H238937   3.754   6.082   8.960
12899WAT      O38938   3.201   3.889   1.253
12899WAT     H138939   3.161   3.954   1.188
12899WAT     H238940   3.230   3.939   1.335
12900WAT      O38941   8.576   9.000   4.177
12900WAT     H138942   8.487   8.959   4.159
12900WAT     H238943   8.606   9.052   4.097
12901WAT      O38944   9.155   6.548   4.330
12901WAT     H138945   9.223   6.483   4.296
12901WAT     H238946   9.105   6.587   4.252
12902WAT      O38947   3.110   7.033   8.893
12902WAT     H138948   3.182   6.967   8.913
12902WAT     H238949   3.047   7.039   8.970
12903WAT      O38950   4.136   7.695   1.888
12903WAT     H138951   4.136   7.762   1.815
12903WAT     H238952   4.130   7.603   1.849
12904WAT      O38953   6.654   6.921   1.149
12904WAT     H138954   6.570   6.927   1.097
12904WAT     H238955   6.725   6.975   1.104
12905WAT      O38956   2.127   9.486   1.228
12905WAT     H138957   2.062   9.485   1.304
12905WAT     H238958   2.179   9.401   1.228
12906WAT      O38959   1.540   1.778   3.995
12906WAT     H138960   1.480   1.821   4.063
12906WAT     H238961   1.513   1.683   3.982
12907WAT      O38962   2.624   7.822   5.815
12907WAT     H138963   2.659   7.865   5.732
12907WAT     H238964   2.552   7.879   5.855
12908WAT      O38965   8.195   6.066   5.112
12908WAT     H138966   8.185   5.993   5.045
12908WAT     H238967   8.237   6.145   5.070
12909WAT      O38968   9.425   3.550   8.193
12909WAT     H138969   9.383   3.471   8.236
12909WAT     H238970   9.379   3.570   8.106
12910WAT      O38971   7.982   7.556   0.567
12910WAT     H138972   7.887   7.548   0.537
12910WAT     H238973   8.003   7.483   0.632
12911WAT      O38974   7.998   1.813   2.188
12911WAT     H138975   7.986   1.728   2.136
12911WAT     H238976   8.075   1.802   2.252
12912WAT      O38977   9.501   1.224   1.388
12912WAT     H138978   9.500   1.311   1.438
12912WAT     H238979   9.408   1.187   1.385
12913WAT      O38980   1.228   5.350   9.435
12913WAT     H138981   1.189   5.358   9.343
12913WAT     H238982   1.321   5.386   9.435
12914WAT      O38983   9.856   2.095   4.858
12914WAT     H138984   9.902   2.139   4.935
12914WAT     H238985   9.903   2.011   4.834
12915WAT      O38986   9.838   1.388   5.186
12915WAT     H138987   9.790   1.394   5.099
12915WAT     H238988   9.921   1.333   5.176
12916WAT      O38989   0.172   9.600   9.540
12916WAT     H138990   0.212   9.573   9.453
12916WAT     H238991   0.074   9.618   9.528
12917WAT      O38992   8.408   4.982   5.338
12917WAT     H138993   8.364   4.915   5.280
12917WAT     H238994   8.452   4.936   5.416
12918WAT      O38995   4.306   0.873   7.005
12918WAT     H138996   4.405   0.865   7.015
12918WAT     H238997   4.272   0.797   6.949
12919WAT      O38998   9.260   6.387   8.148
12919WAT     H138999   9.347   6.338   8.158
12919WAT     H239000   9.192   6.346   8.209
12920WAT      O39001   6.018   7.980   3.669
12920WAT     H139002   6.079   7.931   3.732
12920WAT     H239003   5.931   7.930   3.661
12921WAT      O39004   2.299   9.638   6.402
12921WAT     H139005   2.267   9.672   6.313
12921WAT     H239006   2.326   9.715   6.459
12922WAT      O39007   3.037   9.036   2.322
12922WAT     H139008   2.977   8.980   2.264
12922WAT     H239009   3.040   9.129   2.287
12923WAT      O39010   1.805   3.631   4.744
12923WAT     H139011   1.870   3.707   4.736
12923WAT     H239012   1.813   3.572   4.663
12924WAT      O39013   6.158   8.555   0.515
12924WAT     H139014   6.066   8.577   0.549
12924WAT     H239015   6.150   8.514   0.424
12925WAT      O39016   3.969   5.788   5.271
12925WAT     H139017   4.034   5.738   5.214
12925WAT     H239018   3.885   5.734   5.281
12926WAT      O39019   4.482   3.727   2.680
12926WAT     H139020   4.560   3.664   2.676
12926WAT     H239021   4.437   3.718   2.769
12927WAT      O39022   7.768   3.756   9.480
12927WAT     H139023   7.841   3.721   9.538
12927WAT     H239024   7.683   3.764   9.533
12928WAT      O39025   7.565   5.658   9.770
12928WAT     H139026   7.588   5.570   9.809
12928WAT     H239027   7.633   5.726   9.798
12929WAT      O39028   2.121   6.568   3.137
12929WAT     H139029   2.110   6.477   3.098
12929WAT     H239030   2.058   6.632   3.093
12930WAT      O39031   0.201   6.193   3.578
12930WAT     H139032   0.163   6.174   3.487
12930WAT     H239033   0.251   6.113   3.610
12931WAT      O39034   5.625   5.233   8.181
12931WAT     H139035   5.537   5.279   8.173
12931WAT     H239036   5.660   5.214   8.089
12932WAT      O39037   4.910   3.832   3.159
12932WAT     H139038   4.981   3.887   3.113
12932WAT     H239039   4.866   3.887   3.229
12933WAT      O39040   8.180   9.525   2.154
12933WAT     H139041   8.249   9.513   2.082
12933WAT     H239042   8.115   9.449   2.151
12934WAT      O39043   5.227   6.634   6.398
12934WAT     H139044   5.142   6.670   6.436
12934WAT     H239045   5.239   6.668   6.305
12935WAT      O39046   8.149   7.797   9.063
12935WAT     H139047   8.203   7.751   9.134
12935WAT     H239048   8.051   7.787   9.084
12936WAT      O39049   6.910   4.050   4.043
12936WAT     H139050   6.925   4.027   3.947
12936WAT     H239051   6.997   4.079   4.084
12937WAT      O39052   9.659   0.840   9.114
12937WAT     H139053   9.572   0.835   9.163
12937WAT     H239054   9.650   0.906   9.039
12938WAT      O39055   7.592   8.572   4.943
12938WAT     H139056   7.638   8.521   4.871
12938WAT     H239057   7.628   8.543   5.032
12939WAT      O39058   7.317   6.202   5.760
12939WAT     H139059   7.372   6.230   5.838
12939WAT     H239060   7.243   6.268   5.745
12940WAT      O39061   1.195   8.176   1.762
12940WAT     H139062   1.235   8.084   1.764
12940WAT     H239063   1.243   8.235   1.826
12941WAT      O39064   1.473   4.596   7.111
12941WAT     H139065   1.536   4.656   7.062
12941WAT     H239066   1.518   4.509   7.131
12942WAT      O39067   6.029   5.585   1.084
12942WAT     H139068   6.083   5.659   1.046
12942WAT     H239069   6.074   5.548   1.165
12943WAT      O39070   5.283   7.870   2.238
12943WAT     H139071   5.226   7.946   2.270
12943WAT     H239072   5.376   7.902   2.223
12944WAT      O39073   6.161   4.564   6.742
12944WAT     H139074   6.211   4.648   6.763
12944WAT     H239075   6.107   4.577   6.658
12945WAT      O39076   6.565   2.860   2.311
12945WAT     H139077   6.655   2.884   2.345
12945WAT     H239078   6.495   2.903   2.368
12946WAT      O39079   1.684   6.447   7.085
12946WAT     H139080   1.620   6.454   7.162
12946WAT     H239081   1.778   6.446   7.121
12947WAT      O39082   4.628   9.492   9.234
12947WAT     H139083   4.714   9.503   9.185
12947WAT     H239084   4.583   9.581   9.244
12948WAT      O39085   0.253   4.177   0.905
12948WAT     H139086   0.226   4.098   0.850
12948WAT     H239087   0.342   4.159   0.947
12949WAT      O39088   5.148   3.513   6.914
12949WAT     H139089   5.220   3.511   6.984
12949WAT     H239090   5.060   3.533   6.957
12950WAT      O39091   4.484   0.860   2.331
12950WAT     H139092   4.508   0.949   2.293
12950WAT     H239093   4.426   0.811   2.266
12951WAT      O39094   3.967   4.211   9.494
12951WAT     H139095   3.914   4.161   9.425
12951WAT     H239096   4.064   4.203   9.473
12952WAT      O39097   8.483   5.547   0.833
12952WAT     H139098   8.553   5.562   0.902
12952WAT     H239099   8.401   5.601   0.855
12953WAT      O39100   2.190   9.092   2.799
12953WAT     H139101   2.105   9.128   2.760
12953WAT     H239102   2.170   9.009   2.851
12954WAT      O39103   4.718   7.012   1.936
12954WAT     H139104   4.811   7.036   1.966
12954WAT     H239105   4.723   6.945   1.862
12955WAT      O39106   5.939   7.043   8.945
12955WAT     H139107   6.038   7.048   8.936
12955WAT     H239108   5.902   7.135   8.955
12956WAT      O39109   1.806   4.229   9.217
12956WAT     H139110   1.869   4.199   9.288
12956WAT     H239111   1.814   4.167   9.138
12957WAT      O39112   6.115   7.611   5.941
12957WAT     H139113   6.149   7.584   5.851
12957WAT     H239114   6.039   7.676   5.930
12958WAT      O39115   6.861   1.425   6.523
12958WAT     H139116   6.782   1.465   6.475
12958WAT     H239117   6.938   1.419   6.460
12959WAT      O39118   5.300   3.256   6.049
12959WAT     H139119   5.339   3.271   5.958
12959WAT     H239120   5.311   3.160   6.075
12960WAT      O39121   5.303   8.540   7.954
12960WAT     H139122   5.293   8.522   8.052
12960WAT     H239123   5.213   8.547   7.912
12961WAT      O39124   6.373   9.526   2.044
12961WAT     H139125   6.427   9.570   1.972
12961WAT     H239126   6.331   9.442   2.008
12962WAT      O39127   0.495   4.962   3.464
12962WAT     H139128   0.500   4.938   3.561
12962WAT     H239129   0.400   4.979   3.438
12963WAT      O39130   7.191   7.370   3.733
12963WAT     H139131   7.100   7.368   3.692
12963WAT     H239132   7.212   7.463   3.763
12964WAT      O39133   3.827   9.651   8.037
12964WAT     H139134   3.828   9.751   8.041
12964WAT     H239135   3.873   9.614   8.117
12965WAT      O39136   0.082   8.936   6.759
12965WAT     H139137   0.133   8.926   6.673
12965WAT     H239138   0.067   9.034   6.777
12966WAT      O39139   4.648   2.349   7.284
12966WAT     H139140   4.596   2.434   7.273
12966WAT     H239141   4.611   2.279   7.224
12967WAT      O39142   8.219   7.264   6.578
12967WAT     H139143   8.125   7.244   6.607
12967WAT     H239144   8.277   7.280   6.658
12968WAT      O39145   5.573   1.511   5.347
12968WAT     H139146   5.542   1.525   5.253
12968WAT     H239147   5.670   1.535   5.354
12969WAT      O39148   1.727   7.266   8.973
12969WAT     H139149   1.705   7.328   9.049
12969WAT     H239150   1.651   7.203   8.959
12970WAT      O39151   8.533   4.714   9.096
12970WAT     H139152   8.563   4.620   9.111
12970WAT     H239153   8.451   4.715   9.039
12971WAT      O39154   3.496   4.692   0.680
12971WAT     H139155   3.441   4.635   0.740
12971WAT     H239156   3.580   4.643   0.655
12972WAT      O39157   7.219   6.454   6.006
12972WAT     H139158   7.176   6.513   6.074
12972WAT     H239159   7.318   6.468   6.008
12973WAT      O39160   6.732   7.486   6.927
12973WAT     H139161   6.718   7.502   6.829
12973WAT     H239162   6.687   7.400   6.954
12974WAT      O39163   1.659   1.946   5.720
12974WAT     H139164   1.601   2.002   5.661
12974WAT     H239165   1.681   1.996   5.803
12975WAT      O39166   9.656   4.372   8.884
12975WAT     H139167   9.606   4.427   8.952
12975WAT     H239168   9.638   4.408   8.793
12976WAT      O39169   7.098   5.912   5.100
12976WAT     H139170   7.023   5.861   5.058
12976WAT     H239171   7.103   5.889   5.198
12977WAT      O39172   8.439   3.799   3.615
12977WAT     H139173   8.460   3.701   3.613
12977WAT     H239174   8.523   3.851   3.635
12978WAT      O39175   4.459   1.028   1.563
12978WAT     H139176   4.441   1.094   1.636
12978WAT     H239177   4.372   0.993   1.527
12979WAT      O39178   5.344   6.132   9.097
12979WAT     H139179   5.436   6.169   9.089
12979WAT     H239180   5.281   6.203   9.128
12980WAT      O39181   8.838   5.514   9.847
12980WAT     H139182   8.801   5.424   9.824
12980WAT     H239183   8.856   5.518   9.945
12981WAT      O39184   0.256   3.317   2.867
12981WAT     H139185   0.334   3.317   2.931
12981WAT     H239186   0.206   3.231   2.875
12982WAT      O39187   4.192   0.668   7.769
12982WAT     H139188   4.106   0.620   7.752
12982WAT     H239189   4.205   0.738   7.699
12983WAT      O39190   7.181   2.881   3.504
12983WAT     H139191   7.201   2.865   3.407
12983WAT     H239192   7.082   2.889   3.516
12984WAT      O39193   2.039   9.681   7.222
12984WAT     H139194   2.104   9.610   7.198
12984WAT     H239195   1.998   9.660   7.311
12985WAT      O39196   7.863   8.008   3.237
12985WAT     H139197   7.874   8.095   3.189
12985WAT     H239198   7.778   7.964   3.208
12986WAT      O39199   9.692   2.859   4.880
12986WAT     H139200   9.712   2.885   4.975
12986WAT     H239201   9.758   2.904   4.819
12987WAT      O39202   9.426   5.897   7.755
12987WAT     H139203   9.409   5.833   7.680
12987WAT     H239204   9.364   5.878   7.830
12988WAT      O39205   8.032   0.997   3.165
12988WAT     H139206   8.004   1.012   3.070
12988WAT     H239207   8.099   0.923   3.169
12989WAT      O39208   9.524   9.094   5.185
12989WAT     H139209   9.563   9.077   5.094
12989WAT     H239210   9.572   9.038   5.253
12990WAT      O39211   5.469   3.433   5.169
12990WAT     H139212   5.460   3.341   5.131
12990WAT     H239213   5.443   3.500   5.100
12991WAT      O39214   4.153   0.015   2.688
12991WAT     H139215   4.144   0.103   2.641
12991WAT     H239216   4.241  -0.027   2.663
12992WAT      O39217   5.689   7.206   2.184
12992WAT     H139218   5.771   7.151   2.171
12992WAT     H239219   5.610   7.159   2.144
12993WAT      O39220   6.368   8.362   7.266
12993WAT     H139221   6.357   8.408   7.354
12993WAT     H239222   6.284   8.373   7.212
12994WAT      O39223   6.980   4.131   6.684
12994WAT     H139224   6.974   4.158   6.587
12994WAT     H239225   6.915   4.057   6.702
12995WAT      O39226   8.979   1.530   3.808
12995WAT     H139227   9.072   1.503   3.833
12995WAT     H239228   8.914   1.462   3.842
12996WAT      O39229   4.473   4.151   3.915
12996WAT     H139230   4.430   4.239   3.931
12996WAT     H239231   4.423   4.079   3.965
12997WAT      O39232   6.871   0.233   5.043
12997WAT     H139233   6.895   0.145   5.001
12997WAT     H239234   6.777   0.229   5.076
12998WAT      O39235   3.061   5.728   5.445
12998WAT     H139236   3.078   5.758   5.351
12998WAT     H239237   3.004   5.646   5.445
12999WAT      O39238   2.819   3.306   1.680
12999WAT     H139239   2.906   3.263   1.705
12999WAT     H239240   2.766   3.324   1.763
13000WAT      O39241   1.524   4.647   9.429
13000WAT     H139242   1.452   4.698   9.476
13000WAT     H239243   1.609   4.654   9.481
13001WAT      O39244   7.609   2.304   3.381
13001WAT     H139245   7.525   2.357   3.380
13001WAT     H239246   7.679   2.351   3.327
13002WAT      O39247   3.819   6.428   6.299
13002WAT     H139248   3.823   6.490   6.220
13002WAT     H239249   3.728   6.434   6.341
13003WAT      O39250   5.395   1.463   8.757
13003WAT     H139251   5.387   1.472   8.658
13003WAT     H239252   5.436   1.374   8.779
13004WAT      O39253   3.103   5.429   5.532
13004WAT     H139254   3.197   5.399   5.517
13004WAT     H239255   3.066   5.468   5.447
13005WAT      O39256   2.992   8.865   7.061
13005WAT     H139257   3.003   8.952   7.012
13005WAT     H239258   3.005   8.789   6.996
13006WAT      O39259   0.030   8.054   8.551
13006WAT     H139260  -0.024   8.036   8.469
13006WAT     H239261  -0.032   8.071   8.628
13007WAT      O39262   0.011   8.027   7.780
13007WAT     H139263   0.001   7.946   7.722
13007WAT     H239264   0.091   8.079   7.751
13008WAT      O39265   0.204   5.686   9.009
13008WAT     H139266   0.276   5.750   9.035
13008WAT     H239267   0.234   5.593   9.029
13009WAT      O39268   8.545   0.050   3.234
13009WAT     H139269   8.469   0.094   3.186
13009WAT     H239270   8.557   0.093   3.324
13010WAT      O39271   9.850   7.580   8.988
13010WAT     H139272   9.905   7.511   8.941
13010WAT     H239273   9.755   7.575   8.956
13011WAT      O39274   1.293   5.020   6.727
13011WAT     H139275   1.388   5.015   6.697
13011WAT     H239276   1.255   4.927   6.732
13012WAT      O39277   0.822   2.043   7.795
13012WAT     H139278   0.834   1.989   7.712
13012WAT     H239279   0.744   2.105   7.783
13013WAT      O39280   3.391   6.488   7.454
13013WAT     H139281   3.300   6.519   7.481
13013WAT     H239282   3.459   6.557   7.480
13014WAT      O39283   9.761   2.599   4.865
13014WAT     H139284   9.695   2.671   4.841
13014WAT     H239285   9.782   2.604   4.963
13015WAT      O39286   0.624   3.294   8.936
13015WAT     H139287   0.533   3.254   8.945
13015WAT     H239288   0.621   3.374   8.876
13016WAT      O39289   2.205   0.630   7.904
13016WAT     H139290   2.108   0.619   7.882
13016WAT     H239291   2.250   0.541   7.902
13017WAT      O39292   1.469   5.982   1.165
13017WAT     H139293   1.375   5.969   1.133
13017WAT     H239294   1.474   5.964   1.263
13018WAT      O39295   7.277   6.203   0.320
13018WAT     H139296   7.363   6.232   0.278
13018WAT     H239297   7.243   6.274   0.381
13019WAT      O39298   1.447   5.008   6.202
13019WAT     H139299   1.523   4.954   6.168
13019WAT     H239300   1.398   4.957   6.273
13020WAT      O39301   3.613   3.082   2.044
13020WAT     H139302   3.607   3.176   2.076
13020WAT     H239303   3.558   3.072   1.961
13021WAT      O39304   0.402   7.563   7.321
13021WAT     H139305   0.360   7.624   7.254
13021WAT     H239306   0.410   7.611   7.409
13022WAT      O39307   2.574   6.847   6.638
13022WAT     H139308   2.627   6.844   6.723
13022WAT     H239309   2.477   6.835   6.659
13023WAT      O39310   6.532   4.436   4.853
13023WAT     H139311   6.499   4.439   4.947
13023WAT     H239312   6.536   4.341   4.822
13024WAT      O39313   9.666   7.910   8.899
13024WAT     H139314   9.651   7.845   8.824
13024WAT     H239315   9.579   7.935   8.940
13025WAT      O39316   0.634   7.167   4.401
13025WAT     H139317   0.577   7.217   4.467
13025WAT     H239318   0.611   7.070   4.404
13026WAT      O39319   3.605   3.492   5.889
13026WAT     H139320   3.565   3.475   5.799
13026WAT     H239321   3.674   3.564   5.881
13027WAT      O39322   4.063   3.029   9.457
13027WAT     H139323   4.158   3.050   9.433
13027WAT     H239324   4.001   3.082   9.399
13028WAT      O39325   0.081   5.393   8.540
13028WAT     H139326   0.089   5.295   8.560
13028WAT     H239327   0.125   5.445   8.613
13029WAT      O39328   2.045   2.695   5.337
13029WAT     H139329   2.030   2.773   5.277
13029WAT     H239330   2.003   2.714   5.426
13030WAT      O39331   9.801   2.819   3.294
13030WAT     H139332   9.734   2.757   3.255
13030WAT     H239333   9.862   2.852   3.221
13031WAT      O39334   7.530   7.982   2.238
13031WAT     H139335   7.588   8.035   2.300
13031WAT     H239336   7.455   8.040   2.205
13032WAT      O39337   0.779   5.220   2.046
13032WAT     H139338   0.861   5.263   2.082
13032WAT     H239339   0.767   5.130   2.088
13033WAT      O39340   6.598   5.556   3.634
13033WAT     H139341   6.507   5.524   3.663
13033WAT     H239342   6.610   5.540   3.536
13034WAT      O39343   3.401   1.107   2.109
13034WAT     H139344   3.310   1.065   2.104
13034WAT     H239345   3.391   1.205   2.126
13035WAT      O39346   5.690   1.514   1.939
13035WAT     H139347   5.712   1.467   2.024
13035WAT     H239348   5.774   1.533   1.889
13036WAT      O39349   4.506   6.943   3.331
13036WAT     H139350   4.455   6.911   3.410
13036WAT     H239351   4.446   6.998   3.272
13037WAT      O39352   8.986   0.947   9.729
13037WAT     H139353   8.951   0.867   9.778
13037WAT     H239354   9.051   0.918   9.659
13038WAT      O39355   5.504   5.903   2.162
13038WAT     H139356   5.540   5.990   2.197
13038WAT     H239357   5.424   5.922   2.104
13039WAT      O39358   8.556   6.565   0.418
13039WAT     H139359   8.536   6.515   0.502
13039WAT     H239360   8.564   6.500   0.342
13040WAT      O39361   4.235   6.113   0.046
13040WAT     H139362   4.240   6.043  -0.025
13040WAT     H239363   4.144   6.153   0.047
13041WAT      O39364   5.063   1.561   6.718
13041WAT     H139365   5.072   1.463   6.703
13041WAT     H239366   4.987   1.579   6.781
13042WAT      O39367   3.858   5.829   2.141
13042WAT     H139368   3.944   5.794   2.180
13042WAT     H239369   3.830   5.910   2.193
13043WAT      O39370   4.218   8.349   0.984
13043WAT     H139371   4.195   8.269   0.928
13043WAT     H239372   4.214   8.324   1.081
13044WAT      O39373   7.712   5.455   8.898
13044WAT     H139374   7.779   5.414   8.837
13044WAT     H239375   7.735   5.551   8.914
13045WAT      O39376   1.537   2.388   9.764
13045WAT     H139377   1.516   2.292   9.783
13045WAT     H239378   1.463   2.429   9.711
13046WAT      O39379   4.467   7.962   9.128
13046WAT     H139380   4.425   8.011   9.051
13046WAT     H239381   4.436   8.003   9.214
13047WAT      O39382   4.299   9.766   1.889
13047WAT     H139383   4.258   9.829   1.823
13047WAT     H239384   4.394   9.749   1.862
13048WAT      O39385   2.043   3.791   7.939
13048WAT     H139386   1.965   3.845   7.971
13048WAT     H239387   2.128   3.832   7.970
13049WAT      O39388   9.002   6.882   3.516
13049WAT     H139389   9.033   6.830   3.436
13049WAT     H239390   8.959   6.967   3.486
13050WAT      O39391   8.295   0.797   2.377
13050WAT     H139392   8.256   0.825   2.465
13050WAT     H239393   8.394   0.786   2.387
13051WAT      O39394   6.204   5.639   6.177
13051WAT     H139395   6.105   5.641   6.160
13051WAT     H239396   6.229   5.718   6.233
13052WAT      O39397   3.267   6.480   8.173
13052WAT     H139398   3.229   6.569   8.149
13052WAT     H239399   3.193   6.414   8.185
13053WAT      O39400   5.083   4.111   7.443
13053WAT     H139401   5.117   4.028   7.398
13053WAT     H239402   4.985   4.119   7.428
13054WAT      O39403   1.659   9.274   4.501
13054WAT     H139404   1.638   9.241   4.410
13054WAT     H239405   1.711   9.204   4.551
13055WAT      O39406   1.349   2.484   1.371
13055WAT     H139407   1.325   2.560   1.432
13055WAT     H239408   1.397   2.519   1.291
13056WAT      O39409   1.851   7.416   5.678
13056WAT     H139410   1.762   7.389   5.715
13056WAT     H239411   1.901   7.335   5.649
13057WAT      O39412   4.137   1.011   3.933
13057WAT     H139413   4.233   1.029   3.913
13057WAT     H239414   4.131   0.934   3.998
13058WAT      O39415   2.729   7.805   5.147
13058WAT     H139416   2.665   7.856   5.204
13058WAT     H239417   2.807   7.863   5.123
13059WAT      O39418   9.690   8.051   8.359
13059WAT     H139419   9.604   8.044   8.409
13059WAT     H239420   9.709   8.147   8.336
13060WAT      O39421   5.459   9.381   6.656
13060WAT     H139422   5.512   9.399   6.573
13060WAT     H239423   5.403   9.300   6.644
13061WAT      O39424   5.732   8.161   2.886
13061WAT     H139425   5.634   8.156   2.902
13061WAT     H239426   5.751   8.151   2.789
13062WAT      O39427   2.984   2.724   6.475
13062WAT     H139428   2.918   2.763   6.539
13062WAT     H239429   2.937   2.661   6.413
13063WAT      O39430   6.300   0.077   7.956
13063WAT     H139431   6.243   0.140   8.008
13063WAT     H239432   6.242   0.026   7.892
13064WAT      O39433   5.376   2.310   0.663
13064WAT     H139434   5.284   2.346   0.645
13064WAT     H239435   5.386   2.294   0.761
13065WAT      O39436   8.529   2.832   5.882
13065WAT     H139437   8.465   2.872   5.816
13065WAT     H239438   8.509   2.867   5.973
13066WAT      O39439   6.060   5.076   5.765
13066WAT     H139440   5.978   5.119   5.729
13066WAT     H239441   6.078   5.109   5.857
13067WAT      O39442   8.202   3.466   4.058
13067WAT     H139443   8.186   3.470   3.959
13067WAT     H239444   8.260   3.542   4.085
13068WAT      O39445   4.473   3.660   5.583
13068WAT     H139446   4.381   3.665   5.545
13068WAT     H239447   4.468   3.645   5.681
13069WAT      O39448   8.555   2.459   3.601
13069WAT     H139449   8.492   2.511   3.544
13069WAT     H239450   8.559   2.364   3.569
13070WAT      O39451   2.527   7.038   4.689
13070WAT     H139452   2.548   7.081   4.601
13070WAT     H239453   2.575   7.086   4.762
13071WAT      O39454   0.835   1.087   4.988
13071WAT     H139455   0.745   1.121   5.015
13071WAT     H239456   0.899   1.097   5.064
13072WAT      O39457   6.527   9.750   4.410
13072WAT     H139458   6.549   9.657   4.440
13072WAT     H239459   6.608   9.793   4.370
13073WAT      O39460   8.802   8.161   8.573
13073WAT     H139461   8.779   8.248   8.618
13073WAT     H239462   8.743   8.149   8.493
13074WAT      O39463   2.503   7.927   3.620
13074WAT     H139464   2.565   7.854   3.592
13074WAT     H239465   2.555   8.005   3.654
13075WAT      O39466   1.304   7.339   7.573
13075WAT     H139467   1.334   7.425   7.616
13075WAT     H239468   1.214   7.314   7.608
13076WAT      O39469   6.130   2.344   2.404
13076WAT     H139470   6.227   2.321   2.418
13076WAT     H239471   6.087   2.358   2.493
13077WAT      O39472   9.035   0.576   1.738
13077WAT     H139473   9.068   0.640   1.808
13077WAT     H239474   9.035   0.621   1.649
13078WAT      O39475   1.853   8.688   8.195
13078WAT     H139476   1.775   8.644   8.239
13078WAT     H239477   1.903   8.620   8.141
13079WAT      O39478   4.423   2.412   3.060
13079WAT     H139479   4.347   2.456   3.107
13079WAT     H239480   4.415   2.313   3.068
13080WAT      O39481   0.194   7.434   1.485
13080WAT     H139482   0.176   7.356   1.545
13080WAT     H239483   0.166   7.411   1.392
13081WAT      O39484   6.872   1.206   3.789
13081WAT     H139485   6.881   1.228   3.692
13081WAT     H239486   6.951   1.150   3.817
13082WAT      O39487   6.430   0.275   3.857
13082WAT     H139488   6.364   0.203   3.835
13082WAT     H239489   6.393   0.364   3.829
13083WAT      O39490   7.130   7.051   2.025
13083WAT     H139491   7.117   7.038   2.123
13083WAT     H239492   7.164   7.144   2.009
13084WAT      O39493   9.366   2.376   2.634
13084WAT     H139494   9.352   2.280   2.609
13084WAT     H239495   9.437   2.415   2.576
13085WAT      O39496   5.771   3.555   4.709
13085WAT     H139497   5.779   3.545   4.808
13085WAT     H239498   5.838   3.622   4.677
13086WAT      O39499   3.041   7.820   6.451
13086WAT     H139500   3.115   7.850   6.511
13086WAT     H239501   3.029   7.887   6.378
13087WAT      O39502   3.584   4.214   8.252
13087WAT     H139503   3.645   4.288   8.278
13087WAT     H239504   3.578   4.148   8.327
13088WAT      O39505   3.320   2.886   3.912
13088WAT     H139506   3.242   2.882   3.848
13088WAT     H239507   3.390   2.820   3.882
13089WAT      O39508   8.870   0.371   3.501
13089WAT     H139509   8.777   0.402   3.480
13089WAT     H239510   8.874   0.342   3.597
13090WAT      O39511   0.614   8.608   2.217
13090WAT     H139512   0.526   8.592   2.174
13090WAT     H239513   0.674   8.656   2.153
13091WAT      O39514   2.667   0.575   3.818
13091WAT     H139515   2.761   0.545   3.836
13091WAT     H239516   2.605   0.497   3.826
13092WAT      O39517   8.487   4.524   3.096
13092WAT     H139518   8.561   4.457   3.084
13092WAT     H239519   8.472   4.572   3.010
13093WAT      O39520   7.690   9.559   1.415
13093WAT     H139521   7.732   9.537   1.327
13093WAT     H239522   7.668   9.656   1.417
13094WAT      O39523   9.785   4.567   8.387
13094WAT     H139524   9.780   4.640   8.455
13094WAT     H239525   9.693   4.537   8.363
13095WAT      O39526   9.064   9.595   6.433
13095WAT     H139527   9.068   9.555   6.525
13095WAT     H239528   9.109   9.533   6.369
13096WAT      O39529   1.214   9.385   0.053
13096WAT     H139530   1.311   9.369   0.071
13096WAT     H239531   1.202   9.479   0.021
13097WAT      O39532   6.174   0.988   7.843
13097WAT     H139533   6.109   1.046   7.795
13097WAT     H239534   6.167   0.895   7.808
13098WAT      O39535   1.040   3.729   4.503
13098WAT     H139536   0.967   3.690   4.558
13098WAT     H239537   1.104   3.778   4.563
13099WAT      O39538   2.501   2.591   6.247
13099WAT     H139539   2.492   2.618   6.343
13099WAT     H239540   2.597   2.590   6.222
13100WAT      O39541   4.401   9.418   6.017
13100WAT     H139542   4.332   9.371   6.072
13100WAT     H239543   4.361   9.501   5.977
13101WAT      O39544   7.807   5.210   8.290
13101WAT     H139545   7.816   5.293   8.236
13101WAT     H239546   7.892   5.157   8.285
13102WAT      O39547   6.672   5.512   4.302
13102WAT     H139548   6.683   5.578   4.228
13102WAT     H239549   6.734   5.536   4.377
13103WAT      O39550   3.457   6.573   9.174
13103WAT     H139551   3.443   6.507   9.100
13103WAT     H239552   3.529   6.540   9.235
13104WAT      O39553   9.156   8.224   3.535
13104WAT     H139554   9.252   8.228   3.563
13104WAT     H239555   9.107   8.161   3.595
13105WAT      O39556   8.699   4.348   2.961
13105WAT     H139557   8.674   4.294   2.881
13105WAT     H239558   8.785   4.395   2.945
13106WAT      O39559   0.068   2.360   2.572
13106WAT     H139560   0.109   2.355   2.663
13106WAT     H239561  -0.031   2.352   2.579
13107WAT      O39562   0.757   8.205   9.860
13107WAT     H139563   0.767   8.218   9.761
13107WAT     H239564   0.700   8.125   9.877
13108WAT      O39565   3.559   7.681   2.222
13108WAT     H139566   3.635   7.616   2.211
13108WAT     H239567   3.488   7.639   2.278
13109WAT      O39568   2.204   0.987   1.704
13109WAT     H139569   2.174   1.039   1.783
13109WAT     H239570   2.142   1.003   1.627
13110WAT      O39571   8.561   9.657   6.804
13110WAT     H139572   8.596   9.707   6.725
13110WAT     H239573   8.628   9.659   6.877
13111WAT      O39574   0.845   2.839   2.308
13111WAT     H139575   0.792   2.893   2.374
13111WAT     H239576   0.910   2.899   2.261
13112WAT      O39577   9.409   8.102   8.497
13112WAT     H139578   9.397   8.061   8.587
13112WAT     H239579   9.324   8.148   8.470
13113WAT      O39580   2.317   7.518   1.685
13113WAT     H139581   2.385   7.510   1.758
13113WAT     H239582   2.229   7.483   1.717
13114WAT      O39583   7.193   2.915   8.107
13114WAT     H139584   7.098   2.914   8.075
13114WAT     H239585   7.197   2.951   8.200
13115WAT      O39586   4.234   1.491   3.642
13115WAT     H139587   4.270   1.531   3.557
13115WAT     H239588   4.142   1.457   3.626
13116WAT      O39589   3.562   2.944   5.396
13116WAT     H139590   3.518   2.970   5.310
13116WAT     H239591   3.603   2.854   5.387
13117WAT      O39592   7.747   1.944   3.676
13117WAT     H139593   7.764   1.919   3.581
13117WAT     H239594   7.823   2.001   3.709
13118WAT      O39595   3.755   9.233   4.912
13118WAT     H139596   3.817   9.160   4.883
13118WAT     H239597   3.660   9.206   4.892
13119WAT      O39598   4.847   5.686   0.803
13119WAT     H139599   4.937   5.649   0.826
13119WAT     H239600   4.776   5.617   0.821
13120WAT      O39601   7.550   3.930   1.024
13120WAT     H139602   7.543   3.914   1.122
13120WAT     H239603   7.464   3.970   0.991
13121WAT      O39604   5.813   5.286   5.214
13121WAT     H139605   5.824   5.375   5.170
13121WAT     H239606   5.857   5.216   5.158
13122WAT      O39607   5.270   3.849   8.525
13122WAT     H139608   5.186   3.889   8.562
13122WAT     H239609   5.268   3.855   8.425
13123WAT      O39610   3.274   1.541   5.076
13123WAT     H139611   3.368   1.543   5.040
13123WAT     H239612   3.267   1.600   5.156
13124WAT      O39613   1.382   8.040   9.052
13124WAT     H139614   1.364   7.997   8.963
13124WAT     H239615   1.422   7.972   9.113
13125WAT      O39616   6.370   0.783   7.655
13125WAT     H139617   6.278   0.761   7.686
13125WAT     H239618   6.388   0.881   7.668
13126WAT      O39619   2.899   7.425   3.433
13126WAT     H139620   2.863   7.442   3.525
13126WAT     H239621   2.952   7.340   3.434
13127WAT      O39622   6.270   1.104   0.225
13127WAT     H139623   6.232   1.050   0.150
13127WAT     H239624   6.317   1.184   0.189
13128WAT      O39625   9.056   2.150   1.623
13128WAT     H139626   9.148   2.137   1.659
13128WAT     H239627   9.022   2.063   1.588
13129WAT      O39628   1.857   0.131   3.181
13129WAT     H139629   1.887   0.202   3.118
13129WAT     H239630   1.827   0.173   3.267
13130WAT      O39631   8.497   3.341   7.346
13130WAT     H139632   8.561   3.378   7.414
13130WAT     H239633   8.403   3.353   7.378
13131WAT      O39634   8.838   5.156   3.674
13131WAT     H139635   8.902   5.081   3.689
13131WAT     H239636   8.782   5.169   3.756
13132WAT      O39637   6.548   5.143   4.251
13132WAT     H139638   6.468   5.196   4.222
13132WAT     H239639   6.630   5.179   4.206
13133WAT      O39640   4.406   0.744   1.915
13133WAT     H139641   4.384   0.732   1.818
13133WAT     H239642   4.501   0.773   1.924
13134WAT      O39643   2.555   5.619   6.164
13134WAT     H139644   2.607   5.534   6.158
13134WAT     H239645   2.530   5.650   6.073
13135WAT      O39646   9.441   2.983   7.919
13135WAT     H139647   9.362   2.967   7.978
13135WAT     H239648   9.472   3.078   7.929
13136WAT      O39649   7.164   8.490   9.160
13136WAT     H139650   7.166   8.587   9.133
13136WAT     H239651   7.257   8.459   9.177
13137WAT      O39652   2.317   6.509   1.369
13137WAT     H139653   2.294   6.599   1.405
13137WAT     H239654   2.416   6.498   1.365
13138WAT      O39655   8.663   8.868   2.226
13138WAT     H139656   8.594   8.848   2.156
13138WAT     H239657   8.629   8.842   2.316
13139WAT      O39658   8.491   2.744   5.457
13139WAT     H139659   8.490   2.686   5.539
13139WAT     H239660   8.441   2.700   5.384
13140WAT      O39661   4.222   2.533   7.022
13140WAT     H139662   4.285   2.466   6.984
13140WAT     H239663   4.156   2.561   6.951
13141WAT      O39664   2.597   0.948   1.456
13141WAT     H139665   2.563   0.960   1.549
13141WAT     H239666   2.697   0.948   1.457
13142WAT      O39667   9.247   7.238   8.862
13142WAT     H139668   9.313   7.182   8.912
13142WAT     H239669   9.180   7.275   8.926
13143WAT      O39670   0.366   9.671   0.690
13143WAT     H139671   0.421   9.589   0.709
13143WAT     H239672   0.280   9.665   0.740
13144WAT      O39673   7.063   7.412   6.147
13144WAT     H139674   7.043   7.351   6.071
13144WAT     H239675   7.129   7.482   6.117
13145WAT      O39676   7.793   8.605   9.151
13145WAT     H139677   7.772   8.702   9.158
13145WAT     H239678   7.812   8.581   9.055
13146WAT      O39679   5.030   6.735   0.579
13146WAT     H139680   5.122   6.742   0.540
13146WAT     H239681   4.962   6.747   0.507
13147WAT      O39682   2.639   8.501   0.851
13147WAT     H139683   2.654   8.446   0.933
13147WAT     H239684   2.622   8.440   0.773
13148WAT      O39685   2.289   2.234   0.761
13148WAT     H139686   2.327   2.200   0.676
13148WAT     H239687   2.234   2.163   0.804
13149WAT      O39688   0.768   6.883   2.253
13149WAT     H139689   0.716   6.951   2.305
13149WAT     H239690   0.708   6.808   2.228
13150WAT      O39691   3.515   7.227   7.966
13150WAT     H139692   3.550   7.133   7.970
13150WAT     H239693   3.565   7.277   7.896
13151WAT      O39694   2.943   3.338   8.657
13151WAT     H139695   2.957   3.430   8.621
13151WAT     H239696   3.022   3.312   8.713
13152WAT      O39697   7.398   1.630   6.192
13152WAT     H139698   7.373   1.544   6.148
13152WAT     H239699   7.338   1.646   6.271
13153WAT      O39700   4.956   9.392   9.615
13153WAT     H139701   4.877   9.432   9.567
13153WAT     H239702   5.032   9.456   9.612
13154WAT      O39703   4.551   5.516   5.546
13154WAT     H139704   4.588   5.448   5.483
13154WAT     H239705   4.616   5.530   5.621
13155WAT      O39706   4.249   0.467   9.145
13155WAT     H139707   4.228   0.388   9.203
13155WAT     H239708   4.180   0.538   9.157
13156WAT      O39709   2.811   4.662   5.083
13156WAT     H139710   2.834   4.612   5.166
13156WAT     H239711   2.832   4.759   5.096
13157WAT      O39712   0.236   3.442   6.078
13157WAT     H139713   0.298   3.456   6.155
13157WAT     H239714   0.228   3.527   6.026
13158WAT      O39715   4.743   7.400   8.343
13158WAT     H139716   4.688   7.331   8.295
13158WAT     H239717   4.683   7.456   8.400
13159WAT      O39718   1.005   1.859   3.806
13159WAT     H139719   1.068   1.809   3.866
13159WAT     H239720   1.021   1.833   3.711
13160WAT      O39721   7.661   3.808   9.878
13160WAT     H139722   7.609   3.808   9.964
13160WAT     H239723   7.711   3.723   9.869
13161WAT      O39724   8.283   4.731   8.983
13161WAT     H139725   8.246   4.645   8.948
13161WAT     H239726   8.319   4.785   8.907
13162WAT      O39727   8.083   4.240   3.101
13162WAT     H139728   8.083   4.329   3.145
13162WAT     H239729   8.025   4.177   3.152
13163WAT      O39730   2.737   8.008   5.600
13163WAT     H139731   2.700   7.962   5.519
13163WAT     H239732   2.783   8.092   5.573
13164WAT      O39733   0.559   6.648   7.322
13164WAT     H139734   0.508   6.631   7.406
13164WAT     H239735   0.641   6.590   7.320
13165WAT      O39736   7.501   1.724   8.284
13165WAT     H139737   7.561   1.664   8.336
13165WAT     H239738   7.494   1.813   8.329
13166WAT      O39739   8.728   2.762   7.208
13166WAT     H139740   8.632   2.734   7.205
13166WAT     H239741   8.775   2.726   7.128
13167WAT      O39742   3.622   6.972   7.943
13167WAT     H139743   3.617   6.875   7.967
13167WAT     H239744   3.625   6.981   7.844
13168WAT      O39745   9.202   8.185   3.947
13168WAT     H139746   9.153   8.121   3.887
13168WAT     H239747   9.252   8.251   3.891
13169WAT      O39748   6.340   5.033   1.323
13169WAT     H139749   6.274   5.087   1.270
13169WAT     H239750   6.430   5.038   1.280
13170WAT      O39751   2.785   4.834   6.836
13170WAT     H139752   2.806   4.801   6.928
13170WAT     H239753   2.833   4.778   6.769
13171WAT      O39754   5.898   8.050   3.230
13171WAT     H139755   5.932   8.144   3.233
13171WAT     H239756   5.798   8.050   3.240
13172WAT      O39757   5.784   4.141   7.680
13172WAT     H139758   5.842   4.084   7.621
13172WAT     H239759   5.816   4.135   7.774
13173WAT      O39760   5.979   0.172   3.794
13173WAT     H139761   5.970   0.163   3.893
13173WAT     H239762   5.893   0.205   3.755
13174WAT      O39763   1.747   1.963   3.281
13174WAT     H139764   1.814   2.006   3.341
13174WAT     H239765   1.703   1.886   3.329
13175WAT      O39766   0.234   1.038   9.439
13175WAT     H139767   0.297   1.023   9.516
13175WAT     H239768   0.163   0.968   9.442
13176WAT      O39769   1.327   7.535   6.786
13176WAT     H139770   1.268   7.598   6.736
13176WAT     H239771   1.406   7.511   6.730
13177WAT      O39772   7.578   8.871   9.767
13177WAT     H139773   7.594   8.836   9.675
13177WAT     H239774   7.649   8.937   9.790
13178WAT      O39775   6.625   8.296   2.014
13178WAT     H139776   6.592   8.208   1.979
13178WAT     H239777   6.557   8.366   1.995
13179WAT      O39778   3.356   9.237   0.446
13179WAT     H139779   3.414   9.315   0.420
13179WAT     H239780   3.362   9.166   0.376
13180WAT      O39781   5.709   4.568   3.123
13180WAT     H139782   5.652   4.588   3.203
13180WAT     H239783   5.698   4.472   3.098
13181WAT      O39784   3.195   6.366   4.134
13181WAT     H139785   3.265   6.299   4.157
13181WAT     H239786   3.114   6.351   4.192
13182WAT      O39787   3.429   6.236   1.447
13182WAT     H139788   3.490   6.156   1.451
13182WAT     H239789   3.335   6.207   1.470
13183WAT      O39790   7.698   0.168   8.949
13183WAT     H139791   7.614   0.219   8.933
13183WAT     H239792   7.701   0.137   9.044
13184WAT      O39793   6.773   1.039   9.593
13184WAT     H139794   6.825   0.972   9.540
13184WAT     H239795   6.771   1.127   9.545
13185WAT      O39796   8.057   9.589   7.164
13185WAT     H139797   8.141   9.535   7.154
13185WAT     H239798   8.029   9.589   7.260
13186WAT      O39799   1.772   3.506   3.783
13186WAT     H139800   1.732   3.583   3.733
13186WAT     H239801   1.837   3.458   3.725
13187WAT      O39802   6.128   9.070   8.817
13187WAT     H139803   6.067   9.139   8.857
13187WAT     H239804   6.163   9.011   8.890
13188WAT      O39805   7.219   4.599   4.433
13188WAT     H139806   7.310   4.558   4.425
13188WAT     H239807   7.149   4.532   4.407
13189WAT      O39808   6.396   7.799   3.763
13189WAT     H139809   6.347   7.722   3.722
13189WAT     H239810   6.332   7.869   3.793
13190WAT      O39811   2.060   4.238   4.534
13190WAT     H139812   2.006   4.267   4.455
13190WAT     H239813   2.065   4.312   4.600
13191WAT      O39814   2.461   7.569   3.873
13191WAT     H139815   2.491   7.491   3.818
13191WAT     H239816   2.362   7.566   3.884
13192WAT      O39817   1.748   5.094   7.915
13192WAT     H139818   1.753   5.169   7.982
13192WAT     H239819   1.839   5.076   7.878
13193WAT      O39820   6.875   6.131   9.139
13193WAT     H139821   6.882   6.040   9.098
13193WAT     H239822   6.808   6.186   9.089
13194WAT      O39823   4.297   4.435   2.004
13194WAT     H139824   4.373   4.374   1.983
13194WAT     H239825   4.324   4.529   1.985
13195WAT      O39826   1.370   8.691   6.890
13195WAT     H139827   1.385   8.592   6.893
13195WAT     H239828   1.433   8.736   6.952
13196WAT      O39829   1.680   6.010   2.003
13196WAT     H139830   1.721   6.091   2.045
13196WAT     H239831   1.696   6.012   1.904
13197WAT      O39832   2.588   5.451   6.607
13197WAT     H139833   2.660   5.408   6.662
13197WAT     H239834   2.514   5.384   6.593
13198WAT      O39835   4.703   9.736   2.037
13198WAT     H139836   4.797   9.770   2.040
13198WAT     H239837   4.644   9.797   2.090
13199WAT      O39838   7.847   6.688   7.413
13199WAT     H139839   7.877   6.783   7.417
13199WAT     H239840   7.847   6.649   7.505
13200WAT      O39841   8.691   3.528   6.020
13200WAT     H139842   8.629   3.527   5.943
13200WAT     H239843   8.784   3.546   5.988
13201WAT      O39844   3.909   4.531   0.065
13201WAT     H139845   3.992   4.532   0.009
13201WAT     H239846   3.864   4.620   0.059
13202WAT      O39847   5.144   2.812   9.476
13202WAT     H139848   5.060   2.817   9.530
13202WAT     H239849   5.127   2.761   9.391
13203WAT      O39850   5.513   4.263   4.199
13203WAT     H139851   5.587   4.198   4.214
13203WAT     H239852   5.469   4.243   4.111
13204WAT      O39853   0.491   3.091   2.316
13204WAT     H139854   0.489   2.994   2.341
13204WAT     H239855   0.447   3.145   2.388
13205WAT      O39856   7.858   6.349   1.754
13205WAT     H139857   7.856   6.448   1.767
13205WAT     H239858   7.790   6.306   1.814
13206WAT      O39859   2.274   1.178   1.372
13206WAT     H139860   2.361   1.140   1.340
13206WAT     H239861   2.221   1.106   1.418
13207WAT      O39862   1.643   2.972   3.879
13207WAT     H139863   1.606   2.917   3.953
13207WAT     H239864   1.730   3.013   3.908
13208WAT      O39865   6.327   6.849   6.748
13208WAT     H139866   6.417   6.837   6.705
13208WAT     H239867   6.322   6.792   6.830
13209WAT      O39868   2.707   4.887   9.474
13209WAT     H139869   2.680   4.816   9.409
13209WAT     H239870   2.779   4.851   9.534
13210WAT      O39871   1.649   2.985   7.455
13210WAT     H139872   1.680   3.025   7.369
13210WAT     H239873   1.693   3.033   7.531
13211WAT      O39874   4.595   4.606   4.010
13211WAT     H139875   4.620   4.698   4.041
13211WAT     H239876   4.675   4.561   3.970
13212WAT      O39877   0.098   4.536   4.424
13212WAT     H139878   0.079   4.485   4.340
13212WAT     H239879   0.123   4.630   4.401
13213WAT      O39880   7.505   8.924   5.769
13213WAT     H139881   7.528   8.886   5.859
13213WAT     H239882   7.511   8.851   5.700
13214WAT      O39883   6.128   4.037   9.191
13214WAT     H139884   6.091   3.969   9.253
13214WAT     H239885   6.206   4.084   9.234
13215WAT      O39886   9.429   1.370   3.144
13215WAT     H139887   9.513   1.343   3.192
13215WAT     H239888   9.356   1.385   3.210
13216WAT      O39889   4.211   6.680   2.020
13216WAT     H139890   4.259   6.760   1.983
13216WAT     H239891   4.184   6.698   2.114
13217WAT      O39892   1.121   5.869   2.447
13217WAT     H139893   1.048   5.801   2.455
13217WAT     H239894   1.200   5.839   2.501
13218WAT      O39895   8.834   5.903   1.433
13218WAT     H139896   8.832   5.949   1.345
13218WAT     H239897   8.758   5.837   1.439
13219WAT      O39898   6.723   2.866   8.580
13219WAT     H139899   6.730   2.926   8.660
13219WAT     H239900   6.769   2.779   8.599
13220WAT      O39901   8.044   3.978   0.260
13220WAT     H139902   8.096   4.034   0.325
13220WAT     H239903   8.009   4.035   0.187
13221WAT      O39904   2.338   5.399   8.415
13221WAT     H139905   2.263   5.376   8.353
13221WAT     H239906   2.396   5.469   8.372
13222WAT      O39907   7.690   2.729   4.691
13222WAT     H139908   7.787   2.724   4.669
13222WAT     H239909   7.673   2.684   4.778
13223WAT      O39910   3.177   6.403   0.987
13223WAT     H139911   3.191   6.421   1.085
13223WAT     H239912   3.084   6.430   0.962
13224WAT      O39913   5.694   3.966   9.510
13224WAT     H139914   5.737   3.877   9.524
13224WAT     H239915   5.745   4.017   9.441
13225WAT      O39916   5.856   1.369   9.377
13225WAT     H139917   5.865   1.363   9.278
13225WAT     H239918   5.888   1.284   9.419
13226WAT      O39919   0.946   8.752   3.169
13226WAT     H139920   0.950   8.770   3.267
13226WAT     H239921   1.011   8.679   3.146
13227WAT      O39922   0.496   4.343   4.987
13227WAT     H139923   0.520   4.354   4.890
13227WAT     H239924   0.471   4.248   5.004
13228WAT      O39925   9.822   7.532   5.868
13228WAT     H139926   9.821   7.630   5.847
13228WAT     H239927   9.825   7.479   5.784
13229WAT      O39928   0.139   5.165   8.255
13229WAT     H139929   0.052   5.116   8.265
13229WAT     H239930   0.198   5.144   8.334
13230WAT      O39931   6.583   3.923   9.113
13230WAT     H139932   6.485   3.907   9.101
13230WAT     H239933   6.633   3.839   9.094
13231WAT      O39934   9.108   9.394   1.841
13231WAT     H139935   9.203   9.374   1.818
13231WAT     H239936   9.072   9.321   1.900
13232WAT      O39937   9.070   7.879   9.160
13232WAT     H139938   9.087   7.965   9.208
13232WAT     H239939   9.002   7.825   9.210
13233WAT      O39940   4.763   2.049   2.979
13233WAT     H139941   4.700   2.099   2.921
13233WAT     H239942   4.797   1.968   2.931
13234WAT      O39943   0.679   8.306   4.679
13234WAT     H139944   0.671   8.401   4.710
13234WAT     H239945   0.593   8.258   4.696
13235WAT      O39946   4.981   7.544   7.370
13235WAT     H139947   4.975   7.586   7.279
13235WAT     H239948   4.915   7.470   7.377
13236WAT      O39949   4.393   5.624   3.011
13236WAT     H139950   4.362   5.574   3.092
13236WAT     H239951   4.318   5.629   2.945
13237WAT      O39952   2.702   8.952   2.878
13237WAT     H139953   2.688   9.050   2.888
13237WAT     H239954   2.717   8.911   2.968
13238WAT      O39955   1.720   6.605   5.076
13238WAT     H139956   1.667   6.681   5.114
13238WAT     H239957   1.686   6.583   4.985
13239WAT      O39958   2.514   5.665   2.469
13239WAT     H139959   2.557   5.643   2.557
13239WAT     H239960   2.415   5.653   2.477
13240WAT      O39961   0.491   0.888   5.051
13240WAT     H139962   0.485   0.868   4.953
13240WAT     H239963   0.575   0.848   5.088
13241WAT      O39964   3.710   2.444   7.133
13241WAT     H139965   3.758   2.367   7.092
13241WAT     H239966   3.685   2.509   7.061
13242WAT      O39967   4.139   8.249   8.000
13242WAT     H139968   4.185   8.317   8.056
13242WAT     H239969   4.050   8.285   7.970
13243WAT      O39970   9.378   3.199   1.347
13243WAT     H139971   9.315   3.175   1.273
13243WAT     H239972   9.332   3.189   1.435
13244WAT      O39973   8.733   8.469   4.397
13244WAT     H139974   8.646   8.470   4.347
13244WAT     H239975   8.799   8.526   4.349
13245WAT      O39976   7.477   1.375   7.934
13245WAT     H139977   7.409   1.440   7.966
13245WAT     H239978   7.468   1.362   7.836
13246WAT      O39979   6.856   7.663   1.114
13246WAT     H139980   6.886   7.568   1.102
13246WAT     H239981   6.935   7.720   1.137
13247WAT      O39982   1.700   1.518   1.207
13247WAT     H139983   1.699   1.534   1.306
13247WAT     H239984   1.716   1.421   1.190
13248WAT      O39985   6.963   6.067   6.907
13248WAT     H139986   6.979   6.135   6.835
13248WAT     H239987   6.920   6.112   6.985
13249WAT      O39988   9.732   5.056   1.507
13249WAT     H139989   9.817   5.003   1.512
13249WAT     H239990   9.705   5.085   1.599
13250WAT      O39991   2.910   3.517   3.728
13250WAT     H139992   2.919   3.613   3.700
13250WAT     H239993   2.889   3.461   3.648
13251WAT      O39994   8.887   4.204   0.513
13251WAT     H139995   8.986   4.212   0.524
13251WAT     H239996   8.844   4.291   0.538
13252WAT      O39997   8.741   2.944   8.720
13252WAT     H139998   8.691   2.951   8.634
13252WAT     H239999   8.828   2.897   8.705
13253WAT      O40000   7.444   7.554   4.931
13253WAT     H140001   7.429   7.473   4.875
13253WAT     H240002   7.470   7.527   5.023
13254WAT      O40003   4.686   2.752   4.523
13254WAT     H140004   4.771   2.795   4.551
13254WAT     H240005   4.686   2.739   4.424
13255WAT      O40006   8.287   8.315   0.423
13255WAT     H140007   8.375   8.267   0.415
13255WAT     H240008   8.213   8.253   0.395
13256WAT      O40009   1.479   9.143   8.185
13256WAT     H140010   1.418   9.217   8.214
13256WAT     H240011   1.571   9.179   8.169
13257WAT      O40012   4.223   7.061   6.380
13257WAT     H140013   4.284   7.121   6.329
13257WAT     H240014   4.187   6.991   6.320
13258WAT      O40015   2.537   6.311   5.675
13258WAT     H140016   2.552   6.332   5.772
13258WAT     H240017   2.464   6.369   5.639
13259WAT      O40018   0.253   3.969   3.946
13259WAT     H140019   0.192   4.009   4.014
13259WAT     H240020   0.270   4.035   3.873
13260WAT      O40021   2.667   6.362   0.994
13260WAT     H140022   2.570   6.353   1.015
13260WAT     H240023   2.688   6.313   0.909
13261WAT      O40024   4.946   0.601   0.246
13261WAT     H140025   4.959   0.662   0.167
13261WAT     H240026   5.005   0.520   0.235
13262WAT      O40027   2.065   0.669   0.624
13262WAT     H140028   2.120   0.599   0.669
13262WAT     H240029   2.111   0.758   0.632
13263WAT      O40030   1.877   2.472   4.514
13263WAT     H140031   1.815   2.452   4.439
13263WAT     H240032   1.902   2.569   4.511
13264WAT      O40033   6.718   5.559   9.508
13264WAT     H140034   6.777   5.635   9.481
13264WAT     H240035   6.666   5.585   9.589
13265WAT      O40036   8.634   2.353   7.171
13265WAT     H140037   8.552   2.296   7.169
13265WAT     H240038   8.645   2.400   7.083
13266WAT      O40039   0.383   8.953   7.501
13266WAT     H140040   0.459   8.916   7.448
13266WAT     H240041   0.344   9.031   7.453
13267WAT      O40042   6.416   7.005   3.028
13267WAT     H140043   6.317   7.008   3.022
13267WAT     H240044   6.453   6.965   2.944
13268WAT      O40045   5.744   1.518   2.900
13268WAT     H140046   5.772   1.542   2.807
13268WAT     H240047   5.726   1.602   2.952
13269WAT      O40048   8.120   8.332   6.814
13269WAT     H140049   8.183   8.394   6.768
13269WAT     H240050   8.166   8.245   6.833
13270WAT      O40051   9.359   9.627   6.893
13270WAT     H140052   9.278   9.611   6.949
13270WAT     H240053   9.345   9.709   6.837
13271WAT      O40054   7.740   4.154   9.098
13271WAT     H140055   7.667   4.128   9.035
13271WAT     H240056   7.759   4.252   9.087
13272WAT      O40057   5.947   9.541   6.533
13272WAT     H140058   5.994   9.593   6.461
13272WAT     H240059   5.860   9.584   6.555
13273WAT      O40060   5.563   0.445   7.599
13273WAT     H140061   5.506   0.506   7.654
13273WAT     H240062   5.511   0.410   7.522
13274WAT      O40063   2.005   2.171   0.335
13274WAT     H140064   1.929   2.190   0.397
13274WAT     H240065   2.084   2.227   0.361
13275WAT      O40066   9.620   8.747   7.492
13275WAT     H140067   9.676   8.668   7.517
13275WAT     H240068   9.672   8.806   7.430
13276WAT      O40069   2.940   3.406   1.449
13276WAT     H140070   2.883   3.385   1.529
13276WAT     H240071   2.892   3.471   1.390
13277WAT      O40072   7.712   1.695   0.001
13277WAT     H140073   7.641   1.712  -0.068
13277WAT     H240074   7.674   1.706   0.092
13278WAT      O40075   4.491   2.145   3.510
13278WAT     H140076   4.556   2.194   3.452
13278WAT     H240077   4.415   2.112   3.454
13279WAT      O40078   5.991   0.438   5.708
13279WAT     H140079   6.073   0.482   5.743
13279WAT     H240080   5.979   0.349   5.752
13280WAT      O40081   7.472   6.306   8.337
13280WAT     H140082   7.430   6.226   8.379
13280WAT     H240083   7.438   6.389   8.383
13281WAT      O40084   8.693   1.018   2.427
13281WAT     H140085   8.700   1.096   2.365
13281WAT     H240086   8.703   1.050   2.521
13282WAT      O40087   9.672   4.206   6.560
13282WAT     H140088   9.771   4.200   6.572
13282WAT     H240089   9.627   4.198   6.649
13283WAT      O40090   8.600   0.088   6.449
13283WAT     H140091   8.661   0.095   6.370
13283WAT     H240092   8.507   0.068   6.419
13284WAT      O40093   5.905   6.268   6.841
13284WAT     H140094   6.000   6.262   6.810
13284WAT     H240095   5.865   6.176   6.842
13285WAT      O40096   3.399   6.103   9.803
13285WAT     H140097   3.484   6.151   9.784
13285WAT     H240098   3.323   6.149   9.756
13286WAT      O40099   6.654   9.485   2.197
13286WAT     H140100   6.562   9.447   2.186
13286WAT     H240101   6.715   9.446   2.129
13287WAT      O40102   1.122   8.146   0.965
13287WAT     H140103   1.153   8.052   0.981
13287WAT     H240104   1.023   8.150   0.976
13288WAT      O40105   9.419   9.490   3.962
13288WAT     H140106   9.491   9.422   3.946
13288WAT     H240107   9.369   9.467   4.046
13289WAT      O40108   2.329   6.332   0.094
13289WAT     H140109   2.305   6.429   0.089
13289WAT     H240110   2.394   6.309   0.021
13290WAT      O40111   2.938   4.848   3.402
13290WAT     H140112   3.022   4.836   3.350
13290WAT     H240113   2.961   4.885   3.493
13291WAT      O40114   5.062   5.993   4.175
13291WAT     H140115   5.043   6.080   4.219
13291WAT     H240116   5.028   5.995   4.081
13292WAT      O40117   0.856   6.425   7.604
13292WAT     H140118   0.818   6.506   7.648
13292WAT     H240119   0.789   6.387   7.540
13293WAT      O40120   9.432   1.122   9.564
13293WAT     H140121   9.516   1.132   9.511
13293WAT     H240122   9.447   1.060   9.640
13294WAT      O40123   4.630   8.337   5.807
13294WAT     H140124   4.660   8.379   5.721
13294WAT     H240125   4.626   8.238   5.796
13295WAT      O40126   0.985   1.876   9.049
13295WAT     H140127   0.968   1.837   9.140
13295WAT     H240128   1.074   1.846   9.015
13296WAT      O40129   7.906   9.694   9.445
13296WAT     H140130   7.881   9.609   9.398
13296WAT     H240131   7.938   9.760   9.378
13297WAT      O40132   9.452   1.695   3.858
13297WAT     H140133   9.440   1.606   3.902
13297WAT     H240134   9.391   1.701   3.779
13298WAT      O40135   0.288   3.667   5.928
13298WAT     H140136   0.226   3.731   5.884
13298WAT     H240137   0.367   3.652   5.869
13299WAT      O40138   4.253   8.228   5.824
13299WAT     H140139   4.246   8.210   5.726
13299WAT     H240140   4.170   8.197   5.870
13300WAT      O40141   2.665   8.901   8.186
13300WAT     H140142   2.700   8.811   8.160
13300WAT     H240143   2.709   8.972   8.131
13301WAT      O40144   1.487   1.756   6.453
13301WAT     H140145   1.402   1.805   6.472
13301WAT     H240146   1.562   1.821   6.444
13302WAT      O40147   3.152   8.486   5.822
13302WAT     H140148   3.084   8.560   5.814
13302WAT     H240149   3.108   8.405   5.860
13303WAT      O40150   7.815   0.479   9.289
13303WAT     H140151   7.720   0.452   9.273
13303WAT     H240152   7.821   0.531   9.374
13304WAT      O40153   5.844   5.647   2.427
13304WAT     H140154   5.816   5.556   2.399
13304WAT     H240155   5.849   5.707   2.347
13305WAT      O40156   3.422   7.975   0.826
13305WAT     H140157   3.403   8.015   0.736
13305WAT     H240158   3.339   7.980   0.882
13306WAT      O40159   8.818   2.332   4.962
13306WAT     H140160   8.871   2.401   5.011
13306WAT     H240161   8.748   2.294   5.023
13307WAT      O40162   3.595   1.284   6.207
13307WAT     H140163   3.561   1.213   6.269
13307WAT     H240164   3.690   1.264   6.183
13308WAT      O40165   3.419   8.260   0.331
13308WAT     H140166   3.518   8.259   0.346
13308WAT     H240167   3.400   8.299   0.241
13309WAT      O40168   3.386   3.297   5.259
13309WAT     H140169   3.407   3.376   5.202
13309WAT     H240170   3.430   3.308   5.348
13310WAT      O40171   9.114   3.035   7.569
13310WAT     H140172   9.027   3.086   7.567
13310WAT     H240173   9.106   2.953   7.511
13311WAT      O40174   8.629   9.179   0.182
13311WAT     H140175   8.536   9.204   0.209
13311WAT     H240176   8.631   9.082   0.157
13312WAT      O40177   4.087   8.137   3.475
13312WAT     H140178   4.149   8.171   3.546
13312WAT     H240179   4.101   8.189   3.390
13313WAT      O40180   0.140   5.919   5.535
13313WAT     H140181   0.206   5.983   5.575
13313WAT     H240182   0.163   5.903   5.439
13314WAT      O40183   2.808   4.577   9.028
13314WAT     H140184   2.829   4.480   9.021
13314WAT     H240185   2.747   4.605   8.954
13315WAT      O40186   9.886   4.240   5.408
13315WAT     H140187   9.905   4.324   5.458
13315WAT     H240188   9.887   4.163   5.472
13316WAT      O40189   4.518   6.214   4.698
13316WAT     H140190   4.459   6.263   4.633
13316WAT     H240191   4.611   6.250   4.692
13317WAT      O40192   4.911   1.857   2.832
13317WAT     H140193   4.938   1.837   2.738
13317WAT     H240194   4.987   1.898   2.882
13318WAT      O40195   4.824   5.079   4.416
13318WAT     H140196   4.774   5.153   4.370
13318WAT     H240197   4.897   5.119   4.472
13319WAT      O40198   7.226   4.054   9.051
13319WAT     H140199   7.158   4.052   8.977
13319WAT     H240200   7.202   4.125   9.117
13320WAT      O40201   2.200   4.487   1.294
13320WAT     H140202   2.285   4.514   1.337
13320WAT     H240203   2.184   4.389   1.309
13321WAT      O40204   3.416   2.481   3.877
13321WAT     H140205   3.386   2.387   3.889
13321WAT     H240206   3.340   2.537   3.843
13322WAT      O40207   7.024   2.700   9.213
13322WAT     H140208   7.029   2.622   9.151
13322WAT     H240209   7.108   2.705   9.267
13323WAT      O40210   6.467   2.564   4.341
13323WAT     H140211   6.412   2.646   4.330
13323WAT     H240212   6.467   2.535   4.436
13324WAT      O40213   7.055   0.640   6.568
13324WAT     H140214   7.081   0.699   6.645
13324WAT     H240215   7.136   0.594   6.532
13325WAT      O40216   0.888   7.568   1.362
13325WAT     H140217   0.875   7.667   1.354
13325WAT     H240218   0.910   7.544   1.457
13326WAT      O40219   8.480   8.805   1.682
13326WAT     H140220   8.436   8.721   1.716
13326WAT     H240221   8.469   8.878   1.749
13327WAT      O40222   4.165   2.280   9.530
13327WAT     H140223   4.148   2.360   9.588
13327WAT     H240224   4.217   2.212   9.581
13328WAT      O40225   7.497   2.295   9.718
13328WAT     H140226   7.434   2.284   9.641
13328WAT     H240227   7.535   2.206   9.744
13329WAT      O40228   1.467   6.992   2.565
13329WAT     H140229   1.559   7.007   2.600
13329WAT     H240230   1.407   7.067   2.593
13330WAT      O40231   7.931   0.521   1.850
13330WAT     H140232   7.932   0.476   1.939
13330WAT     H240233   8.025   0.527   1.815
13331WAT      O40234   1.885   3.104   4.489
13331WAT     H140235   1.804   3.155   4.463
13331WAT     H240236   1.934   3.074   4.407
13332WAT      O40237   7.991   5.987   4.695
13332WAT     H140238   8.084   6.023   4.706
13332WAT     H240239   7.980   5.950   4.602
13333WAT      O40240   6.351   9.807   0.956
13333WAT     H140241   6.424   9.833   0.892
13333WAT     H240242   6.369   9.716   0.992
13334WAT      O40243   5.089   9.325   9.869
13334WAT     H140244   5.130   9.241   9.834
13334WAT     H240245   5.052   9.378   9.793
13335WAT      O40246   2.651   7.962   1.142
13335WAT     H140247   2.616   7.885   1.088
13335WAT     H240248   2.751   7.958   1.145
13336WAT      O40249   4.109   7.996   9.268
13336WAT     H140250   4.090   7.965   9.175
13336WAT     H240251   4.041   8.064   9.295
13337WAT      O40252   5.621   0.494   8.656
13337WAT     H140253   5.591   0.485   8.751
13337WAT     H240254   5.607   0.588   8.625
13338WAT      O40255   3.135   6.007   2.741
13338WAT     H140256   3.223   6.052   2.728
13338WAT     H240257   3.150   5.912   2.768
13339WAT      O40258   0.046   8.377   4.682
13339WAT     H140259   0.030   8.436   4.602
13339WAT     H240260   0.047   8.434   4.765
13340WAT      O40261   5.468   7.238   3.439
13340WAT     H140262   5.378   7.277   3.459
13340WAT     H240263   5.531   7.261   3.513
13341WAT      O40264   6.809   5.087   2.193
13341WAT     H140265   6.820   4.994   2.156
13341WAT     H240266   6.780   5.148   2.120
13342WAT      O40267   8.559   5.550   5.876
13342WAT     H140268   8.532   5.491   5.800
13342WAT     H240269   8.622   5.620   5.843
13343WAT      O40270   5.175   5.917   9.781
13343WAT     H140271   5.170   5.818   9.797
13343WAT     H240272   5.105   5.943   9.714
13344WAT      O40273   5.760   1.657   6.197
13344WAT     H140274   5.812   1.595   6.139
13344WAT     H240275   5.684   1.695   6.145
13345WAT      O40276   1.071   7.539   0.301
13345WAT     H140277   0.984   7.579   0.271
13345WAT     H240278   1.142   7.609   0.300
13346WAT      O40279   3.156   0.147   8.012
13346WAT     H140280   3.184   0.243   8.020
13346WAT     H240281   3.104   0.135   7.927
13347WAT      O40282   5.551   7.324   3.684
13347WAT     H140283   5.618   7.297   3.754
13347WAT     H240284   5.459   7.321   3.724
13348WAT      O40285   0.269   0.437   6.447
13348WAT     H140286   0.366   0.461   6.447
13348WAT     H240287   0.216   0.510   6.489
13349WAT      O40288   9.654   2.584   7.308
13349WAT     H140289   9.564   2.598   7.268
13349WAT     H240290   9.723   2.630   7.251
13350WAT      O40291   5.834   5.909   3.307
13350WAT     H140292   5.816   5.847   3.231
13350WAT     H240293   5.932   5.919   3.321
13351WAT      O40294   5.064   8.207   3.130
13351WAT     H140295   5.152   8.247   3.103
13351WAT     H240296   5.077   8.112   3.157
13352WAT      O40297   5.774   2.884   9.316
13352WAT     H140298   5.859   2.935   9.331
13352WAT     H240299   5.744   2.843   9.402
13353WAT      O40300   7.999   7.738   4.446
13353WAT     H140301   8.032   7.659   4.498
13353WAT     H240302   7.937   7.792   4.502
13354WAT      O40303   1.945   3.155   8.141
13354WAT     H140304   1.953   3.252   8.161
13354WAT     H240305   1.995   3.103   8.210
13355WAT      O40306   6.711   3.391   4.431
13355WAT     H140307   6.624   3.347   4.455
13355WAT     H240308   6.768   3.327   4.380
13356WAT      O40309   8.583   7.108   8.814
13356WAT     H140310   8.509   7.042   8.812
13356WAT     H240311   8.631   7.102   8.901
13357WAT      O40312   2.875   9.585   5.653
13357WAT     H140313   2.928   9.670   5.661
13357WAT     H240314   2.826   9.584   5.566
13358WAT      O40315   6.832   4.663   3.055
13358WAT     H140316   6.766   4.693   3.124
13358WAT     H240317   6.801   4.691   2.964
13359WAT      O40318   6.854   0.783   4.945
13359WAT     H140319   6.847   0.719   4.869
13359WAT     H240320   6.763   0.813   4.973
13360WAT      O40321   1.845   8.944   3.171
13360WAT     H140322   1.880   9.027   3.215
13360WAT     H240323   1.745   8.946   3.174
13361WAT      O40324   9.602   2.462   1.819
13361WAT     H140325   9.518   2.505   1.787
13361WAT     H240326   9.593   2.363   1.815
13362WAT      O40327   3.453   8.826   3.796
13362WAT     H140328   3.426   8.861   3.706
13362WAT     H240329   3.411   8.881   3.868
13363WAT      O40330   6.301   3.388   9.710
13363WAT     H140331   6.332   3.338   9.630
13363WAT     H240332   6.356   3.471   9.721
13364WAT      O40333   7.223   6.730   9.698
13364WAT     H140334   7.290   6.661   9.725
13364WAT     H240335   7.134   6.686   9.687
13365WAT      O40336   7.113   9.661   1.505
13365WAT     H140337   7.072   9.739   1.458
13365WAT     H240338   7.213   9.665   1.497
13366WAT      O40339   4.534   4.484   4.279
13366WAT     H140340   4.592   4.430   4.341
13366WAT     H240341   4.581   4.495   4.192
13367WAT      O40342   9.329   2.139   3.938
13367WAT     H140343   9.327   2.221   3.995
13367WAT     H240344   9.300   2.060   3.992
13368WAT      O40345   6.467   9.674   9.365
13368WAT     H140346   6.393   9.719   9.315
13368WAT     H240347   6.441   9.579   9.386
13369WAT      O40348   3.126   5.642   0.091
13369WAT     H140349   3.192   5.608   0.159
13369WAT     H240350   3.150   5.604   0.002
13370WAT      O40351   8.141   7.603   3.614
13370WAT     H140352   8.131   7.534   3.543
13370WAT     H240353   8.155   7.557   3.702
13371WAT      O40354   2.156   8.427   0.932
13371WAT     H140355   2.192   8.503   0.986
13371WAT     H240356   2.157   8.453   0.835
13372WAT      O40357   0.846   0.962   0.335
13372WAT     H140358   0.823   0.945   0.431
13372WAT     H240359   0.804   1.048   0.305
13373WAT      O40360   4.916   4.804   0.303
13373WAT     H140361   4.877   4.892   0.274
13373WAT     H240362   4.904   4.792   0.401
13374WAT      O40363   4.132   5.249   7.056
13374WAT     H140364   4.153   5.210   7.145
13374WAT     H240365   4.208   5.306   7.026
13375WAT      O40366   6.966   8.631   5.371
13375WAT     H140367   7.009   8.543   5.351
13375WAT     H240368   7.014   8.703   5.321
13376WAT      O40369   0.456   8.105   4.779
13376WAT     H140370   0.368   8.151   4.782
13376WAT     H240371   0.450   8.023   4.722
13377WAT      O40372   0.702   5.838   3.191
13377WAT     H140373   0.663   5.929   3.204
13377WAT     H240374   0.657   5.793   3.113
13378WAT      O40375   2.583   7.289   6.373
13378WAT     H140376   2.575   7.386   6.350
13378WAT     H240377   2.671   7.272   6.416
13379WAT      O40378   0.475   7.204   8.896
13379WAT     H140379   0.407   7.275   8.912
13379WAT     H240380   0.562   7.231   8.939
13380WAT      O40381   5.485   2.210   7.340
13380WAT     H140382   5.488   2.183   7.244
13380WAT     H240383   5.534   2.143   7.395
13381WAT      O40384   9.033   6.642   8.058
13381WAT     H140385   8.950   6.664   8.109
13381WAT     H240386   9.112   6.644   8.121
13382WAT      O40387   8.460   8.277   5.220
13382WAT     H140388   8.384   8.235   5.270
13382WAT     H240389   8.435   8.289   5.124
13383WAT      O40390   7.158   1.667   8.331
13383WAT     H140391   7.184   1.728   8.256
13383WAT     H240392   7.155   1.719   8.416
13384WAT      O40393   2.689   0.234   0.858
13384WAT     H140394   2.619   0.180   0.811
13384WAT     H240395   2.680   0.330   0.831
13385WAT      O40396   3.382   8.970   0.326
13385WAT     H140397   3.436   8.995   0.246
13385WAT     H240398   3.285   8.966   0.302
13386WAT      O40399   4.087   6.400   2.200
13386WAT     H140400   3.995   6.440   2.191
13386WAT     H240401   4.081   6.301   2.186
13387WAT      O40402   7.582   6.076   7.803
13387WAT     H140403   7.519   6.011   7.762
13387WAT     H240404   7.552   6.170   7.783
13388WAT      O40405   0.999   8.498   0.701
13388WAT     H140406   0.938   8.577   0.709
13388WAT     H240407   1.004   8.451   0.789
13389WAT      O40408   9.205   9.365   7.541
13389WAT     H140409   9.296   9.330   7.564
13389WAT     H240410   9.198   9.377   7.442
13390WAT      O40411   3.389   8.391   1.097
13390WAT     H140412   3.431   8.398   1.007
13390WAT     H240413   3.393   8.296   1.128
13391WAT      O40414   3.649   9.725   4.936
13391WAT     H140415   3.730   9.749   4.991
13391WAT     H240416   3.673   9.654   4.870
13392WAT      O40417   2.010   5.727   1.659
13392WAT     H140418   2.055   5.700   1.744
13392WAT     H240419   1.984   5.823   1.663
13393WAT      O40420   6.671   8.368   0.273
13393WAT     H140421   6.620   8.447   0.305
13393WAT     H240422   6.760   8.397   0.239
13394WAT      O40423   9.735   8.154   2.087
13394WAT     H140424   9.681   8.222   2.037
13394WAT     H240425   9.725   8.169   2.185
13395WAT      O40426   5.044   1.198   1.947
13395WAT     H140427   5.136   1.187   1.983
13395WAT     H240428   5.023   1.123   1.884
13396WAT      O40429   2.913   5.643   0.924
13396WAT     H140430   2.821   5.641   0.963
13396WAT     H240431   2.922   5.721   0.862
13397WAT      O40432   2.208   4.992   7.526
13397WAT     H140433   2.119   5.030   7.501
13397WAT     H240434   2.197   4.927   7.601
13398WAT      O40435   4.007   2.186   8.276
13398WAT     H140436   4.054   2.208   8.190
13398WAT     H240437   4.015   2.088   8.293
13399WAT      O40438   3.923   5.944   7.007
13399WAT     H140439   3.975   5.962   6.924
13399WAT     H240440   3.973   5.981   7.086
13400WAT      O40441   8.465   8.789   2.059
13400WAT     H140442   8.371   8.761   2.081
13400WAT     H240443   8.463   8.859   1.987
13401WAT      O40444   1.935   0.124   7.952
13401WAT     H140445   2.035   0.127   7.960
13401WAT     H240446   1.909   0.054   7.887
13402WAT      O40447   4.332   7.094   5.463
13402WAT     H140448   4.367   7.071   5.372
13402WAT     H240449   4.282   7.180   5.459
13403WAT      O40450   0.852   6.569   7.041
13403WAT     H140451   0.885   6.480   7.073
13403WAT     H240452   0.752   6.568   7.037
13404WAT      O40453   4.669   5.996   1.154
13404WAT     H140454   4.681   6.085   1.199
13404WAT     H240455   4.758   5.959   1.129
13405WAT      O40456   8.043   8.453   2.724
13405WAT     H140457   8.054   8.369   2.672
13405WAT     H240458   8.132   8.494   2.741
13406WAT      O40459   2.867   6.650   3.564
13406WAT     H140460   2.847   6.592   3.643
13406WAT     H240461   2.835   6.743   3.582
13407WAT      O40462   9.817   8.487   9.165
13407WAT     H140463   9.778   8.416   9.107
13407WAT     H240464   9.830   8.451   9.258
13408WAT      O40465   1.525   9.040   9.294
13408WAT     H140466   1.430   9.071   9.288
13408WAT     H240467   1.579   9.109   9.343
13409WAT      O40468   4.036   0.048   6.098
13409WAT     H140469   4.120   0.097   6.076
13409WAT     H240470   4.040  -0.044   6.058
13410WAT      O40471   2.560   8.848   0.017
13410WAT     H140472   2.543   8.936   0.060
13410WAT     H240473   2.659   8.834   0.008
13411WAT      O40474   2.721   3.059   5.371
13411WAT     H140475   2.692   2.964   5.383
13411WAT     H240476   2.642   3.120   5.380
13412WAT      O40477   7.435   6.206   5.510
13412WAT     H140478   7.534   6.219   5.510
13412WAT     H240479   7.404   6.176   5.600
13413WAT      O40480   7.464   6.180   5.209
13413WAT     H140481   7.407   6.144   5.282
13413WAT     H240482   7.560   6.175   5.236
13414WAT      O40483   3.607   0.925   0.361
13414WAT     H140484   3.546   0.862   0.409
13414WAT     H240485   3.701   0.893   0.369
13415WAT      O40486   9.297   4.007   6.013
13415WAT     H140487   9.285   4.054   6.101
13415WAT     H240488   9.212   3.960   5.988
13416WAT      O40489   6.586   0.065   6.651
13416WAT     H140490   6.648  -0.003   6.612
13416WAT     H240491   6.591   0.149   6.597
13417WAT      O40492   3.485   1.213   0.019
13417WAT     H140493   3.462   1.168   0.106
13417WAT     H240494   3.573   1.180  -0.013
13418WAT      O40495   0.128   3.621   5.234
13418WAT     H140496   0.046   3.637   5.179
13418WAT     H240497   0.118   3.537   5.286
13419WAT      O40498   4.748   3.199   1.511
13419WAT     H140499   4.715   3.259   1.439
13419WAT     H240500   4.699   3.112   1.508
13420WAT      O40501   0.676   3.263   4.032
13420WAT     H140502   0.672   3.338   3.966
13420WAT     H240503   0.769   3.227   4.036
13421WAT      O40504   7.362   5.278   5.114
13421WAT     H140505   7.442   5.307   5.061
13421WAT     H240506   7.319   5.358   5.155
13422WAT      O40507   0.459   7.819   6.740
13422WAT     H140508   0.372   7.867   6.752
13422WAT     H240509   0.440   7.726   6.707
13423WAT      O40510   4.230   1.431   9.011
13423WAT     H140511   4.300   1.499   8.990
13423WAT     H240512   4.150   1.477   9.051
13424WAT      O40513   0.042   7.021   4.811
13424WAT     H140514   0.006   7.056   4.725
13424WAT     H240515   0.090   7.093   4.860
13425WAT      O40516   1.581   2.496   8.100
13425WAT     H140517   1.532   2.459   8.180
13425WAT     H240518   1.514   2.529   8.033
13426WAT      O40519   7.409   0.146   8.002
13426WAT     H140520   7.331   0.191   8.046
13426WAT     H240521   7.446   0.077   8.063
13427WAT      O40522   2.526   3.344   5.650
13427WAT     H140523   2.482   3.389   5.728
13427WAT     H240524   2.624   3.337   5.666
13428WAT      O40525   9.501   7.535   1.393
13428WAT     H140526   9.409   7.559   1.423
13428WAT     H240527   9.496   7.465   1.322
13429WAT      O40528   8.275   1.635   4.209
13429WAT     H140529   8.197   1.573   4.219
13429WAT     H240530   8.358   1.590   4.243
13430WAT      O40531   5.677   5.264   5.468
13430WAT     H140532   5.713   5.283   5.377
13430WAT     H240533   5.653   5.350   5.513
13431WAT      O40534   4.717   4.315   1.064
13431WAT     H140535   4.768   4.386   1.111
13431WAT     H240536   4.628   4.351   1.035
13432WAT      O40537   1.985   0.256   7.074
13432WAT     H140538   2.038   0.210   7.144
13432WAT     H240539   1.921   0.320   7.117
13433WAT      O40540   0.709   6.963   7.640
13433WAT     H140541   0.770   6.962   7.719
13433WAT     H240542   0.759   6.933   7.558
13434WAT      O40543   3.930   0.205   7.171
13434WAT     H140544   3.983   0.155   7.102
13434WAT     H240545   3.949   0.168   7.261
13435WAT      O40546   4.505   4.191   8.957
13435WAT     H140547   4.594   4.150   8.937
13435WAT     H240548   4.493   4.271   8.899
13436WAT      O40549   8.157   9.693   8.979
13436WAT     H140550   8.184   9.732   9.066
13436WAT     H240551   8.215   9.613   8.959
13437WAT      O40552   0.205   9.536   6.857
13437WAT     H140553   0.129   9.600   6.866
13437WAT     H240554   0.262   9.563   6.780
13438WAT      O40555   4.581   0.479   7.719
13438WAT     H140556   4.506   0.525   7.671
13438WAT     H240557   4.549   0.391   7.754
13439WAT      O40558   2.455   9.814   8.204
13439WAT     H140559   2.384   9.762   8.157
13439WAT     H240560   2.537   9.817   8.146
13440WAT      O40561   5.426   9.287   0.889
13440WAT     H140562   5.338   9.255   0.853
13440WAT     H240563   5.420   9.383   0.914
13441WAT      O40564   5.195   8.095   6.710
13441WAT     H140565   5.280   8.117   6.759
13441WAT     H240566   5.121   8.154   6.745
13442WAT      O40567   1.027   5.356   8.145
13442WAT     H140568   0.994   5.446   8.173
13442WAT     H240569   0.957   5.310   8.090
13443WAT      O40570   4.549   2.281   1.637
13443WAT     H140571   4.569   2.248   1.545
13443WAT     H240572   4.584   2.216   1.704
13444WAT      O40573   1.084   1.401   7.157
13444WAT     H140574   1.172   1.431   7.119
13444WAT     H240575   1.055   1.464   7.229
13445WAT      O40576   9.071   2.654   1.488
13445WAT     H140577   9.008   2.704   1.428
13445WAT     H240578   9.053   2.556   1.482
13446WAT      O40579   3.014   1.046   7.310
13446WAT     H140580   2.928   1.077   7.270
13446WAT     H240581   3.072   1.125   7.330
13447WAT      O40582   0.079   6.305   0.642
13447WAT     H140583   0.166   6.256   0.644
13447WAT     H240584   0.083   6.383   0.705
13448WAT      O40585   9.115   6.740   7.075
13448WAT     H140586   9.095   6.664   7.136
13448WAT     H240587   9.200   6.721   7.025
13449WAT      O40588   5.177   3.216   5.775
13449WAT     H140589   5.111   3.254   5.710
13449WAT     H240590   5.254   3.278   5.786
13450WAT      O40591   7.648   5.598   1.133
13450WAT     H140592   7.585   5.675   1.143
13450WAT     H240593   7.681   5.593   1.039
13451WAT      O40594   1.080   0.372   8.893
13451WAT     H140595   1.066   0.468   8.913
13451WAT     H240596   1.026   0.346   8.813
13452WAT      O40597   9.082   2.815   2.758
13452WAT     H140598   9.158   2.751   2.754
13452WAT     H240599   9.117   2.909   2.752
13453WAT      O40600   8.662   5.974   6.082
13453WAT     H140601   8.707   5.886   6.097
13453WAT     H240602   8.680   6.034   6.159
13454WAT      O40603   0.099   3.978   4.459
13454WAT     H140604   0.125   3.888   4.494
13454WAT     H240605   0.163   4.047   4.493
13455WAT      O40606   4.019   5.092   0.478
13455WAT     H140607   4.052   5.003   0.448
13455WAT     H240608   4.093   5.142   0.523
13456WAT      O40609   3.589   2.054   9.644
13456WAT     H140610   3.612   2.083   9.737
13456WAT     H240611   3.496   2.084   9.621
13457WAT      O40612   5.444   5.245   8.661
13457WAT     H140613   5.481   5.337   8.677
13457WAT     H240614   5.379   5.222   8.734
13458WAT      O40615   6.192   4.278   4.535
13458WAT     H140616   6.117   4.236   4.586
13458WAT     H240617   6.276   4.273   4.588
13459WAT      O40618   5.033   2.444   4.899
13459WAT     H140619   4.988   2.499   4.970
13459WAT     H240620   4.972   2.436   4.820
13460WAT      O40621   2.403   4.823   7.932
13460WAT     H140622   2.307   4.811   7.906
13460WAT     H240623   2.455   4.856   7.854
13461WAT      O40624   7.706   6.169   0.044
13461WAT     H140625   7.722   6.242  -0.023
13461WAT     H240626   7.625   6.117   0.017
13462WAT      O40627   9.721   4.367   0.793
13462WAT     H140628   9.766   4.417   0.867
13462WAT     H240629   9.666   4.430   0.738
13463WAT      O40630   1.740   7.671   7.962
13463WAT     H140631   1.803   7.669   8.039
13463WAT     H240632   1.711   7.577   7.941
13464WAT      O40633   8.984   9.292   6.270
13464WAT     H140634   8.968   9.246   6.182
13464WAT     H240635   9.078   9.327   6.272
13465WAT      O40636   9.369   6.896   8.179
13465WAT     H140637   9.361   6.811   8.230
13465WAT     H240638   9.423   6.962   8.233
13466WAT      O40639   7.184   8.992   3.884
13466WAT     H140640   7.159   9.036   3.798
13466WAT     H240641   7.222   9.060   3.946
13467WAT      O40642   9.201   8.180   5.007
13467WAT     H140643   9.108   8.181   4.969
13467WAT     H240644   9.245   8.093   4.985
13468WAT      O40645   0.506   4.557   7.018
13468WAT     H140646   0.597   4.516   7.024
13468WAT     H240647   0.500   4.637   7.078
13469WAT      O40648   1.038   1.961   1.903
13469WAT     H140649   1.120   1.908   1.925
13469WAT     H240650   1.034   2.042   1.962
13470WAT      O40651   7.294   8.294   1.895
13470WAT     H140652   7.279   8.364   1.825
13470WAT     H240653   7.372   8.320   1.952
13471WAT      O40654   7.188   7.715   7.440
13471WAT     H140655   7.174   7.807   7.477
13471WAT     H240656   7.224   7.656   7.512
13472WAT      O40657   6.965   8.746   9.630
13472WAT     H140658   6.913   8.702   9.704
13472WAT     H240659   6.957   8.845   9.638
13473WAT      O40660   5.970   4.365   2.850
13473WAT     H140661   5.997   4.460   2.861
13473WAT     H240662   5.871   4.357   2.862
13474WAT      O40663   8.954   4.473   4.933
13474WAT     H140664   8.959   4.419   4.849
13474WAT     H240665   9.019   4.549   4.928
13475WAT      O40666   8.528   6.756   0.610
13475WAT     H140667   8.504   6.710   0.523
13475WAT     H240668   8.450   6.810   0.641
13476WAT      O40669   5.954   5.420   3.734
13476WAT     H140670   5.963   5.403   3.832
13476WAT     H240671   5.858   5.441   3.712
13477WAT      O40672   6.929   3.569   7.296
13477WAT     H140673   7.011   3.582   7.352
13477WAT     H240674   6.935   3.481   7.248
13478WAT      O40675   3.905   6.381   0.259
13478WAT     H140676   3.832   6.399   0.325
13478WAT     H240677   3.889   6.434   0.175
13479WAT      O40678   3.253   7.662   8.019
13479WAT     H140679   3.206   7.664   7.931
13479WAT     H240680   3.198   7.610   8.085
13480WAT      O40681   0.544   4.411   0.893
13480WAT     H140682   0.564   4.346   0.820
13480WAT     H240683   0.628   4.433   0.942
13481WAT      O40684   6.122   7.836   9.559
13481WAT     H140685   6.107   7.805   9.653
13481WAT     H240686   6.150   7.758   9.502
13482WAT      O40687   8.395   1.039   8.744
13482WAT     H140688   8.297   1.054   8.730
13482WAT     H240689   8.418   1.057   8.840
13483WAT      O40690   3.424   0.822   6.099
13483WAT     H140691   3.386   0.906   6.061
13483WAT     H240692   3.434   0.832   6.198
13484WAT      O40693   6.195   7.025   7.956
13484WAT     H140694   6.295   7.024   7.955
13484WAT     H240695   6.162   6.955   8.020
13485WAT      O40696   4.600   4.137   9.547
13485WAT     H140697   4.543   4.077   9.603
13485WAT     H240698   4.558   4.228   9.541
13486WAT      O40699   6.238   9.466   2.387
13486WAT     H140700   6.273   9.508   2.471
13486WAT     H240701   6.314   9.448   2.324
13487WAT      O40702   1.952   4.974   4.549
13487WAT     H140703   1.942   4.935   4.641
13487WAT     H240704   2.030   4.932   4.504
13488WAT      O40705   8.005   7.647   2.278
13488WAT     H140706   8.093   7.619   2.315
13488WAT     H240707   7.953   7.697   2.347
13489WAT      O40708   9.034   7.045   6.460
13489WAT     H140709   9.009   7.119   6.523
13489WAT     H240710   8.976   6.965   6.477
13490WAT      O40711   4.656   9.173   4.746
13490WAT     H140712   4.735   9.165   4.685
13490WAT     H240713   4.575   9.193   4.692
13491WAT      O40714   6.142   2.982   8.008
13491WAT     H140715   6.153   2.895   7.959
13491WAT     H240716   6.045   2.998   8.027
13492WAT      O40717   0.507   8.862   4.154
13492WAT     H140718   0.429   8.885   4.213
13492WAT     H240719   0.586   8.916   4.181
13493WAT      O40720   5.475   1.049   8.901
13493WAT     H140721   5.449   1.106   8.979
13493WAT     H240722   5.574   1.035   8.902
13494WAT      O40723   3.209   0.241   5.193
13494WAT     H140724   3.179   0.150   5.220
13494WAT     H240725   3.296   0.234   5.144
13495WAT      O40726   4.139   5.649   7.012
13495WAT     H140727   4.199   5.569   7.008
13495WAT     H240728   4.085   5.654   6.928
13496WAT      O40729   2.081   6.026   8.466
13496WAT     H140730   2.082   6.125   8.451
13496WAT     H240731   2.097   5.979   8.379
13497WAT      O40732   6.991   4.050   2.603
13497WAT     H140733   7.077   4.086   2.566
13497WAT     H240734   6.917   4.073   2.540
13498WAT      O40735   4.509   1.757   1.047
13498WAT     H140736   4.468   1.667   1.057
13498WAT     H240737   4.488   1.813   1.127
13499WAT      O40738   8.096   3.638   7.753
13499WAT     H140739   8.043   3.559   7.784
13499WAT     H240740   8.050   3.682   7.677
13500WAT      O40741   3.547   8.390   8.112
13500WAT     H140742   3.457   8.389   8.156
13500WAT     H240743   3.599   8.309   8.140
13501WAT      O40744   5.340   2.606   2.548
13501WAT     H140745   5.266   2.650   2.499
13501WAT     H240746   5.330   2.507   2.542
13502WAT      O40747   4.363   6.360   4.536
13502WAT     H140748   4.276   6.382   4.491
13502WAT     H240749   4.426   6.437   4.525
13503WAT      O40750   5.676   9.376   7.871
13503WAT     H140751   5.609   9.331   7.929
13503WAT     H240752   5.701   9.464   7.912
13504WAT      O40753   6.359   5.470   3.813
13504WAT     H140754   6.293   5.533   3.773
13504WAT     H240755   6.392   5.406   3.743
13505WAT      O40756   7.446   7.874   7.287
13505WAT     H140757   7.401   7.792   7.254
13505WAT     H240758   7.510   7.907   7.218
13506WAT      O40759   6.806   3.856   8.873
13506WAT     H140760   6.900   3.887   8.858
13506WAT     H240761   6.794   3.829   8.968
13507WAT      O40762   8.609   9.653   8.648
13507WAT     H140763   8.660   9.646   8.563
13507WAT     H240764   8.644   9.587   8.714
13508WAT      O40765   3.641   3.709   8.541
13508WAT     H140766   3.662   3.754   8.454
13508WAT     H240767   3.667   3.768   8.617
13509WAT      O40768   2.387   5.993   1.713
13509WAT     H140769   2.420   5.933   1.639
13509WAT     H240770   2.291   6.015   1.696
13510WAT      O40771   5.967   4.053   1.077
13510WAT     H140772   5.900   4.111   1.125
13510WAT     H240773   6.019   4.001   1.144
13511WAT      O40774   5.965   0.355   1.783
13511WAT     H140775   6.010   0.324   1.866
13511WAT     H240776   6.018   0.326   1.703
13512WAT      O40777   9.564   3.471   0.932
13512WAT     H140778   9.654   3.428   0.920
13512WAT     H240779   9.571   3.544   1.000
13513WAT      O40780   5.859   5.165   3.474
13513WAT     H140781   5.847   5.226   3.552
13513WAT     H240782   5.895   5.077   3.506
13514WAT      O40783   4.391   0.890   0.467
13514WAT     H140784   4.307   0.836   0.478
13514WAT     H240785   4.383   0.948   0.386
13515WAT      O40786   8.340   3.968   5.476
13515WAT     H140787   8.289   3.883   5.486
13515WAT     H240788   8.304   4.019   5.398
13516WAT      O40789   7.410   0.523   4.363
13516WAT     H140790   7.491   0.466   4.351
13516WAT     H240791   7.347   0.479   4.427
13517WAT      O40792   8.583   8.113   9.353
13517WAT     H140793   8.641   8.137   9.431
13517WAT     H240794   8.584   8.187   9.286
13518WAT      O40795   3.847   3.045   7.450
13518WAT     H140796   3.754   3.050   7.414
13518WAT     H240797   3.910   3.027   7.375
13519WAT      O40798   7.966   8.516   6.331
13519WAT     H140799   7.993   8.522   6.427
13519WAT     H240800   7.869   8.495   6.325
13520WAT      O40801   0.085   3.009   4.934
13520WAT     H140802   0.076   2.978   4.839
13520WAT     H240803   0.173   2.981   4.971
13521WAT      O40804   5.050   7.943   6.522
13521WAT     H140805   5.104   7.998   6.585
13521WAT     H240806   5.021   7.998   6.444
13522WAT      O40807   8.407   3.643   1.949
13522WAT     H140808   8.424   3.741   1.952
13522WAT     H240809   8.494   3.594   1.959
13523WAT      O40810   0.435   7.989   8.653
13523WAT     H140811   0.530   8.020   8.655
13523WAT     H240812   0.429   7.898   8.692
13524WAT      O40813   7.732   0.744   8.418
13524WAT     H140814   7.740   0.813   8.490
13524WAT     H240815   7.819   0.696   8.407
13525WAT      O40816   2.688   6.595   2.614
13525WAT     H140817   2.608   6.650   2.638
13525WAT     H240818   2.664   6.532   2.541
13526WAT      O40819   8.414   7.063   9.175
13526WAT     H140820   8.382   7.155   9.151
13526WAT     H240821   8.336   7.005   9.197
13527WAT      O40822   8.118   5.275   6.712
13527WAT     H140823   8.084   5.251   6.621
13527WAT     H240824   8.106   5.373   6.727
13528WAT      O40825   6.919   4.797   1.334
13528WAT     H140826   6.872   4.875   1.292
13528WAT     H240827   6.973   4.749   1.265
13529WAT      O40828   9.651   4.367   2.667
13529WAT     H140829   9.683   4.281   2.627
13529WAT     H240830   9.730   4.423   2.694
13530WAT      O40831   7.210   9.474   7.407
13530WAT     H140832   7.291   9.420   7.385
13530WAT     H240833   7.191   9.537   7.331
13531WAT      O40834   9.661   6.324   6.898
13531WAT     H140835   9.670   6.246   6.960
13531WAT     H240836   9.737   6.324   6.833
13532WAT      O40837   1.993   7.747   5.018
13532WAT     H140838   1.904   7.791   5.023
13532WAT     H240839   2.030   7.756   4.926
13533WAT      O40840   9.151   3.672   5.861
13533WAT     H140841   9.246   3.695   5.841
13533WAT     H240842   9.103   3.755   5.891
13534WAT      O40843   7.324   6.454   3.598
13534WAT     H140844   7.259   6.530   3.594
13534WAT     H240845   7.413   6.485   3.565
13535WAT      O40846   0.438   3.848   8.394
13535WAT     H140847   0.477   3.938   8.412
13535WAT     H240848   0.350   3.859   8.347
13536WAT      O40849   0.794   8.344   1.608
13536WAT     H140850   0.762   8.392   1.526
13536WAT     H240851   0.876   8.389   1.643
13537WAT      O40852   0.330   5.385   9.324
13537WAT     H140853   0.381   5.466   9.354
13537WAT     H240854   0.386   5.304   9.337
13538WAT      O40855   3.598   2.688   3.557
13538WAT     H140856   3.559   2.773   3.522
13538WAT     H240857   3.574   2.678   3.654
13539WAT      O40858   7.201   5.251   9.788
13539WAT     H140859   7.166   5.171   9.836
13539WAT     H240860   7.242   5.223   9.701
13540WAT      O40861   1.510   8.944   5.546
13540WAT     H140862   1.464   9.030   5.526
13540WAT     H240863   1.530   8.896   5.461
13541WAT      O40864   2.863   3.140   4.811
13541WAT     H140865   2.774   3.185   4.811
13541WAT     H240866   2.929   3.197   4.860
13542WAT      O40867   2.897   0.874   9.723
13542WAT     H140868   2.994   0.850   9.717
13542WAT     H240869   2.856   0.829   9.802
13543WAT      O40870   1.124   5.840   0.349
13543WAT     H140871   1.085   5.754   0.317
13543WAT     H240872   1.159   5.828   0.442
13544WAT      O40873   4.456   2.550   7.194
13544WAT     H140874   4.459   2.586   7.288
13544WAT     H240875   4.370   2.577   7.151
13545WAT      O40876   3.805   6.273   1.189
13545WAT     H140877   3.771   6.322   1.109
13545WAT     H240878   3.861   6.335   1.245
13546WAT      O40879   4.870   7.175   8.635
13546WAT     H140880   4.951   7.212   8.591
13546WAT     H240881   4.864   7.210   8.729
13547WAT      O40882   5.692   4.750   4.235
13547WAT     H140883   5.722   4.658   4.210
13547WAT     H240884   5.603   4.745   4.280
13548WAT      O40885   5.682   6.670   2.116
13548WAT     H140886   5.744   6.621   2.177
13548WAT     H240887   5.630   6.738   2.168
13549WAT      O40888   7.127   0.279   1.344
13549WAT     H140889   7.071   0.339   1.401
13549WAT     H240890   7.224   0.291   1.368
13550WAT      O40891   1.534   5.017   6.608
13550WAT     H140892   1.584   4.968   6.537
13550WAT     H240893   1.580   5.103   6.628
13551WAT      O40894   4.890   9.535   9.142
13551WAT     H140895   4.913   9.544   9.045
13551WAT     H240896   4.870   9.625   9.180
13552WAT      O40897   9.317   9.380   8.431
13552WAT     H140898   9.246   9.448   8.410
13552WAT     H240899   9.376   9.368   8.351
13553WAT      O40900   8.080   8.849   7.258
13553WAT     H140901   7.984   8.824   7.246
13553WAT     H240902   8.088   8.918   7.330
13554WAT      O40903   3.380   1.604   9.555
13554WAT     H140904   3.374   1.505   9.551
13554WAT     H240905   3.338   1.637   9.640
13555WAT      O40906   4.002   0.178   8.042
13555WAT     H140907   3.915   0.181   7.995
13555WAT     H240908   4.056   0.259   8.017
13556WAT      O40909   3.015   5.462   2.948
13556WAT     H140910   3.108   5.453   2.984
13556WAT     H240911   2.975   5.548   2.980
13557WAT      O40912   9.714   2.982   7.327
13557WAT     H140913   9.768   2.919   7.272
13557WAT     H240914   9.774   3.049   7.371
13558WAT      O40915   9.142   6.668   6.261
13558WAT     H140916   9.219   6.620   6.219
13558WAT     H240917   9.166   6.765   6.273
13559WAT      O40918   7.037   0.057   0.818
13559WAT     H140919   7.097   0.031   0.743
13559WAT     H240920   7.072   0.020   0.903
13560WAT      O40921   1.137   5.990   3.360
13560WAT     H140922   1.114   6.047   3.280
13560WAT     H240923   1.132   5.894   3.334
13561WAT      O40924   1.492   2.706   5.647
13561WAT     H140925   1.461   2.718   5.553
13561WAT     H240926   1.573   2.648   5.649
13562WAT      O40927   7.264   2.423   0.835
13562WAT     H140928   7.287   2.490   0.765
13562WAT     H240929   7.339   2.358   0.845
13563WAT      O40930   0.603   3.699   1.923
13563WAT     H140931   0.531   3.637   1.951
13563WAT     H240932   0.586   3.731   1.830
13564WAT      O40933   8.148   7.772   7.598
13564WAT     H140934   8.203   7.838   7.547
13564WAT     H240935   8.072   7.820   7.643
13565WAT      O40936   3.630   1.265   9.184
13565WAT     H140937   3.549   1.240   9.236
13565WAT     H240938   3.636   1.365   9.177
13566WAT      O40939   2.563   6.875   7.126
13566WAT     H140940   2.543   6.777   7.134
13566WAT     H240941   2.647   6.896   7.177
13567WAT      O40942   5.160   5.615   9.791
13567WAT     H140943   5.174   5.533   9.736
13567WAT     H240944   5.223   5.614   9.868
13568WAT      O40945   5.958   5.864   1.316
13568WAT     H140946   5.887   5.847   1.384
13568WAT     H240947   6.039   5.811   1.339
13569WAT      O40948   9.356   9.455   4.244
13569WAT     H140949   9.454   9.459   4.226
13569WAT     H240950   9.321   9.548   4.258
13570WAT      O40951   2.754   7.844   0.089
13570WAT     H140952   2.751   7.834   0.189
13570WAT     H240953   2.661   7.840   0.052
13571WAT      O40954   0.320   6.427   1.082
13571WAT     H140955   0.361   6.336   1.098
13571WAT     H240956   0.359   6.492   1.147
13572WAT      O40957   8.337   4.016   8.751
13572WAT     H140958   8.428   4.046   8.721
13572WAT     H240959   8.346   3.933   8.806
13573WAT      O40960   2.528   5.606   9.192
13573WAT     H140961   2.513   5.701   9.219
13573WAT     H240962   2.610   5.601   9.134
13574WAT      O40963   8.029   0.098   5.979
13574WAT     H140964   7.947   0.058   5.937
13574WAT     H240965   8.096   0.117   5.908
13575WAT      O40966   8.623   8.141   6.181
13575WAT     H140967   8.618   8.042   6.188
13575WAT     H240968   8.562   8.173   6.108
13576WAT      O40969   9.105   4.301   8.580
13576WAT     H140970   9.023   4.357   8.568
13576WAT     H240971   9.079   4.210   8.612
13577WAT      O40972   7.648   3.404   0.041
13577WAT     H140973   7.725   3.450  -0.002
13577WAT     H240974   7.564   3.453   0.022
13578WAT      O40975   4.052   2.917   1.747
13578WAT     H140976   3.957   2.893   1.725
13578WAT     H240977   4.111   2.890   1.671
13579WAT      O40978   5.582   1.155   3.698
13579WAT     H140979   5.638   1.154   3.781
13579WAT     H240980   5.552   1.062   3.678
13580WAT      O40981   5.933   2.292   8.013
13580WAT     H140982   5.881   2.304   8.097
13580WAT     H240983   6.031   2.303   8.033
13581WAT      O40984   0.523   1.213   2.718
13581WAT     H140985   0.505   1.116   2.708
13581WAT     H240986   0.595   1.241   2.654
13582WAT      O40987   6.380   1.046   7.676
13582WAT     H140988   6.353   1.088   7.589
13582WAT     H240989   6.306   1.055   7.742
13583WAT      O40990   9.142   8.401   0.943
13583WAT     H140991   9.218   8.340   0.920
13583WAT     H240992   9.079   8.407   0.866
13584WAT      O40993   5.724   8.169   7.987
13584WAT     H140994   5.637   8.152   7.941
13584WAT     H240995   5.776   8.084   7.992
13585WAT      O40996   2.476   8.986   3.112
13585WAT     H140997   2.439   8.985   3.204
13585WAT     H240998   2.475   9.080   3.077
13586WAT      O40999   4.817   3.784   8.340
13586WAT     H141000   4.725   3.816   8.363
13586WAT     H241001   4.829   3.789   8.240
13587WAT      O41002   9.715   6.434   7.274
13587WAT     H141003   9.748   6.523   7.305
13587WAT     H241004   9.793   6.373   7.261
13588WAT      O41005   6.561   6.759   0.327
13588WAT     H141006   6.602   6.680   0.372
13588WAT     H241007   6.513   6.730   0.245
13589WAT      O41008   2.714   3.683   0.487
13589WAT     H141009   2.667   3.601   0.455
13589WAT     H241010   2.654   3.733   0.550
13590WAT      O41011   1.210   9.778   4.786
13590WAT     H141012   1.239   9.866   4.822
13590WAT     H241013   1.148   9.792   4.709
13591WAT      O41014   6.973   5.981   8.483
13591WAT     H141015   7.000   5.931   8.400
13591WAT     H241016   7.020   6.069   8.486
13592WAT      O41017   8.403   7.636   6.611
13592WAT     H141018   8.305   7.630   6.592
13592WAT     H241019   8.430   7.561   6.670
13593WAT      O41020   2.950   5.509   1.489
13593WAT     H141021   3.021   5.579   1.488
13593WAT     H241022   2.928   5.483   1.395
13594WAT      O41023   2.646   1.715   5.258
13594WAT     H141024   2.616   1.695   5.351
13594WAT     H241025   2.746   1.723   5.257
13595WAT      O41026   4.876   9.275   9.132
13595WAT     H141027   4.868   9.235   9.040
13595WAT     H241028   4.890   9.374   9.124
13596WAT      O41029   9.808   7.091   3.869
13596WAT     H141030   9.815   7.146   3.952
13596WAT     H241031   9.821   6.994   3.892
13597WAT      O41032   7.469   0.816   2.553
13597WAT     H141033   7.382   0.810   2.504
13597WAT     H241034   7.512   0.725   2.555
13598WAT      O41035   1.100   8.573   8.050
13598WAT     H141036   1.055   8.661   8.064
13598WAT     H241037   1.119   8.530   8.138
13599WAT      O41038   6.928   9.674   6.910
13599WAT     H141039   7.011   9.619   6.915
13599WAT     H241040   6.851   9.621   6.947
13600WAT      O41041   7.367   1.794   1.359
13600WAT     H141042   7.437   1.724   1.347
13600WAT     H241043   7.403   1.868   1.416
13601WAT      O41044   0.197   2.495   1.629
13601WAT     H141045   0.223   2.592   1.631
13601WAT     H241046   0.116   2.481   1.686
13602WAT      O41047   6.605   1.859   0.340
13602WAT     H141048   6.539   1.847   0.414
13602WAT     H241049   6.632   1.955   0.335
13603WAT      O41050   9.009   7.259   9.589
13603WAT     H141051   9.074   7.193   9.552
13603WAT     H241052   8.920   7.246   9.546
13604WAT      O41053   9.575   1.739   4.102
13604WAT     H141054   9.502   1.777   4.158
13604WAT     H241055   9.545   1.736   4.006
13605WAT      O41056   5.178   1.721   4.034
13605WAT     H141057   5.079   1.718   4.041
13605WAT     H241058   5.209   1.652   3.969
13606WAT      O41059   7.840   5.969   1.270
13606WAT     H141060   7.906   5.918   1.215
13606WAT     H241061   7.774   6.014   1.210
13607WAT      O41062   4.033   3.211   6.021
13607WAT     H141063   4.044   3.295   5.969
13607WAT     H241064   3.936   3.190   6.030
13608WAT      O41065   8.120   1.497   5.547
13608WAT     H141066   8.214   1.476   5.574
13608WAT     H241067   8.099   1.452   5.460
13609WAT      O41068   1.745   1.432   8.352
13609WAT     H141069   1.833   1.386   8.343
13609WAT     H241070   1.672   1.373   8.318
13610WAT      O41071   8.589   8.288   9.132
13610WAT     H141072   8.630   8.234   9.058
13610WAT     H241073   8.507   8.333   9.099
13611WAT      O41074   0.168   5.658   2.619
13611WAT     H141075   0.161   5.756   2.599
13611WAT     H241076   0.201   5.644   2.712
13612WAT      O41077   5.623   8.896   1.991
13612WAT     H141078   5.553   8.925   1.925
13612WAT     H241079   5.701   8.858   1.942
13613WAT      O41080   7.887   8.203   6.908
13613WAT     H141081   7.976   8.234   6.875
13613WAT     H241082   7.873   8.234   7.002
13614WAT      O41083   6.869   5.531   0.771
13614WAT     H141084   6.933   5.535   0.695
13614WAT     H241085   6.874   5.616   0.824
13615WAT      O41086   5.910   5.674   8.424
13615WAT     H141087   5.889   5.610   8.350
13615WAT     H241088   5.969   5.747   8.389
13616WAT      O41089   7.579   9.308   7.906
13616WAT     H141090   7.637   9.289   7.826
13616WAT     H241091   7.531   9.395   7.892
13617WAT      O41092   1.314   5.144   5.717
13617WAT     H141093   1.400   5.176   5.676
13617WAT     H241094   1.332   5.108   5.808
13618WAT      O41095   3.984   0.377   3.772
13618WAT     H141096   3.954   0.321   3.849
13618WAT     H241097   4.068   0.339   3.734
13619WAT      O41098   0.618   5.743   1.471
13619WAT     H141099   0.650   5.670   1.411
13619WAT     H241100   0.655   5.729   1.563
13620WAT      O41101   6.995   6.682   4.600
13620WAT     H141102   7.049   6.674   4.684
13620WAT     H241103   6.903   6.648   4.616
13621WAT      O41104   0.099   3.300   1.074
13621WAT     H141105   0.121   3.228   1.008
13621WAT     H241106   0.018   3.274   1.127
13622WAT      O41107   0.896   6.764   2.548
13622WAT     H141108   0.835   6.811   2.611
13622WAT     H241109   0.846   6.739   2.465
13623WAT      O41110   7.446   8.694   7.449
13623WAT     H141111   7.460   8.595   7.454
13623WAT     H241112   7.375   8.720   7.514
13624WAT      O41113   9.150   8.381   8.125
13624WAT     H141114   9.052   8.364   8.134
13624WAT     H241115   9.193   8.374   8.215
13625WAT      O41116   7.016   4.977   4.067
13625WAT     H141117   7.059   5.061   4.036
13625WAT     H241118   6.943   4.951   4.003
13626WAT      O41119   8.459   9.797   7.437
13626WAT     H141120   8.526   9.870   7.451
13626WAT     H241121   8.427   9.763   7.525
13627WAT      O41122   2.145   9.390   3.023
13627WAT     H141123   2.074   9.354   3.083
13627WAT     H241124   2.215   9.321   3.009
13628WAT      O41125   5.677   1.158   1.135
13628WAT     H141126   5.747   1.212   1.089
13628WAT     H241127   5.708   1.064   1.144
13629WAT      O41128   7.230   9.779   9.245
13629WAT     H141129   7.144   9.793   9.196
13629WAT     H241130   7.299   9.842   9.210
13630WAT      O41131   6.309   2.738   5.598
13630WAT     H141132   6.216   2.711   5.572
13630WAT     H241133   6.316   2.741   5.698
13631WAT      O41134   4.640   6.399   4.355
13631WAT     H141135   4.736   6.377   4.374
13631WAT     H241136   4.610   6.473   4.415
13632WAT      O41137   6.962   3.529   8.077
13632WAT     H141138   7.032   3.465   8.047
13632WAT     H241139   6.886   3.478   8.119
13633WAT      O41140   0.745   5.869   5.273
13633WAT     H141141   0.812   5.897   5.204
13633WAT     H241142   0.653   5.878   5.235
13634WAT      O41143   8.564   1.084   5.126
13634WAT     H141144   8.524   1.040   5.207
13634WAT     H241145   8.550   1.182   5.132
13635WAT      O41146   6.700   5.905   2.909
13635WAT     H141147   6.623   5.946   2.860
13635WAT     H241148   6.774   5.972   2.916
13636WAT      O41149   4.130   2.705   9.712
13636WAT     H141150   4.210   2.731   9.658
13636WAT     H241151   4.151   2.715   9.809
13637WAT      O41152   0.739   8.363   8.048
13637WAT     H141153   0.769   8.271   8.071
13637WAT     H241154   0.640   8.371   8.061
13638WAT      O41155   5.473   0.036   2.867
13638WAT     H141156   5.469   0.041   2.767
13638WAT     H241157   5.381   0.020   2.903
13639WAT      O41158   5.713   4.140   1.793
13639WAT     H141159   5.770   4.221   1.778
13639WAT     H241160   5.649   4.157   1.867
13640WAT      O41161   6.407   4.248   2.647
13640WAT     H141162   6.382   4.327   2.704
13640WAT     H241163   6.469   4.188   2.698
13641WAT      O41164   6.696   2.038   8.637
13641WAT     H141165   6.727   2.092   8.559
13641WAT     H241166   6.600   2.060   8.657
13642WAT      O41167   9.720   2.986   9.538
13642WAT     H141168   9.642   2.927   9.514
13642WAT     H241169   9.760   3.024   9.454
13643WAT      O41170   3.672   3.157   8.226
13643WAT     H141171   3.705   3.209   8.147
13643WAT     H241172   3.686   3.059   8.209
13644WAT      O41173   4.565   1.277   3.809
13644WAT     H141174   4.646   1.219   3.816
13644WAT     H241175   4.588   1.371   3.835
13645WAT      O41176   6.154   5.184   1.677
13645WAT     H141177   6.160   5.192   1.777
13645WAT     H241178   6.242   5.151   1.642
13646WAT      O41179   4.848   3.836   4.808
13646WAT     H141180   4.927   3.789   4.848
13646WAT     H241181   4.835   3.924   4.855
13647WAT      O41182   6.560   6.038   6.354
13647WAT     H141183   6.526   5.946   6.335
13647WAT     H241184   6.566   6.052   6.452
13648WAT      O41185   2.449   8.210   7.174
13648WAT     H141186   2.350   8.195   7.168
13648WAT     H241187   2.491   8.194   7.085
13649WAT      O41188   0.656   7.874   4.931
13649WAT     H141189   0.753   7.876   4.907
13649WAT     H241190   0.607   7.946   4.882
13650WAT      O41191   5.122   7.350   9.790
13650WAT     H141192   5.170   7.374   9.875
13650WAT     H241193   5.114   7.250   9.784
13651WAT      O41194   0.234   4.310   7.378
13651WAT     H141195   0.284   4.348   7.300
13651WAT     H241196   0.290   4.242   7.425
13652WAT      O41197   6.992   7.826   8.252
13652WAT     H141198   7.087   7.828   8.223
13652WAT     H241199   6.932   7.841   8.173
13653WAT      O41200   6.409   1.957   1.502
13653WAT     H141201   6.389   2.054   1.515
13653WAT     H241202   6.326   1.903   1.518
13654WAT      O41203   9.033   2.410   7.075
13654WAT     H141204   9.125   2.446   7.088
13654WAT     H241205   8.998   2.375   7.162
13655WAT      O41206   4.629   2.608   7.940
13655WAT     H141207   4.628   2.508   7.932
13655WAT     H241208   4.546   2.638   7.985
13656WAT      O41209   8.684   4.173   0.911
13656WAT     H141210   8.593   4.136   0.894
13656WAT     H241211   8.705   4.244   0.843
13657WAT      O41212   7.440   9.015   0.818
13657WAT     H141213   7.478   8.983   0.905
13657WAT     H241214   7.511   9.018   0.749
13658WAT      O41215   1.197   4.269   9.795
13658WAT     H141216   1.295   4.251   9.798
13658WAT     H241217   1.153   4.204   9.733
13659WAT      O41218   1.119   4.260   7.720
13659WAT     H141219   1.139   4.343   7.774
13659WAT     H241220   1.069   4.285   7.638
13660WAT      O41221   4.719   3.375   2.173
13660WAT     H141222   4.642   3.421   2.130
13660WAT     H241223   4.803   3.398   2.124
13661WAT      O41224   6.835   0.489   6.675
13661WAT     H141225   6.881   0.563   6.626
13661WAT     H241226   6.885   0.404   6.661
13662WAT      O41227   2.454   8.781   2.943
13662WAT     H141228   2.459   8.868   2.992
13662WAT     H241229   2.546   8.749   2.923
13663WAT      O41230   3.502   0.674   4.011
13663WAT     H141231   3.584   0.622   3.986
13663WAT     H241232   3.502   0.762   3.964
13664WAT      O41233   9.317   4.701   2.222
13664WAT     H141234   9.312   4.794   2.258
13664WAT     H241235   9.270   4.698   2.133
13665WAT      O41236   2.469   8.697   4.732
13665WAT     H141237   2.386   8.690   4.677
13665WAT     H241238   2.546   8.656   4.682
13666WAT      O41239   9.357   9.611   3.311
13666WAT     H141240   9.456   9.607   3.320
13666WAT     H241241   9.319   9.673   3.380
13667WAT      O41242   9.075   2.023   9.438
13667WAT     H141243   9.124   2.105   9.408
13667WAT     H241244   9.015   2.047   9.514
13668WAT      O41245   5.362   9.366   5.331
13668WAT     H141246   5.305   9.447   5.333
13668WAT     H241247   5.308   9.286   5.356
13669WAT      O41248   4.388   7.271   6.855
13669WAT     H141249   4.436   7.282   6.942
13669WAT     H241250   4.361   7.176   6.843
13670WAT      O41251   2.133   5.636   3.659
13670WAT     H141252   2.182   5.694   3.595
13670WAT     H241253   2.179   5.637   3.748
13671WAT      O41254   9.393   9.753   1.267
13671WAT     H141255   9.399   9.788   1.173
13671WAT     H241256   9.483   9.754   1.309
13672WAT      O41257   9.207   6.119   0.380
13672WAT     H141258   9.294   6.089   0.341
13672WAT     H241259   9.139   6.048   0.368
13673WAT      O41260   5.396   9.692   3.773
13673WAT     H141261   5.403   9.593   3.766
13673WAT     H241262   5.322   9.724   3.714
13674WAT      O41263   7.738   5.052   3.875
13674WAT     H141264   7.759   5.137   3.923
13674WAT     H241265   7.639   5.036   3.879
13675WAT      O41266   4.002   7.566   2.274
13675WAT     H141267   4.079   7.502   2.279
13675WAT     H241268   3.978   7.595   2.366
13676WAT      O41269   4.823   1.454   8.428
13676WAT     H141270   4.744   1.429   8.484
13676WAT     H241271   4.907   1.422   8.471
13677WAT      O41272   0.561   5.476   9.014
13677WAT     H141273   0.578   5.572   9.035
13677WAT     H241274   0.468   5.452   9.042
13678WAT      O41275   9.710   3.059   2.301
13678WAT     H141276   9.664   3.116   2.369
13678WAT     H241277   9.739   3.115   2.224
13679WAT      O41278   2.892   7.673   0.576
13679WAT     H141279   2.924   7.587   0.535
13679WAT     H241280   2.968   7.719   0.621
13680WAT      O41281   0.641   3.044   7.883
13680WAT     H141282   0.713   2.992   7.930
13680WAT     H241283   0.569   3.067   7.949
13681WAT      O41284   1.248   7.636   5.858
13681WAT     H141285   1.157   7.634   5.900
13681WAT     H241286   1.297   7.717   5.890
13682WAT      O41287   4.414   7.874   5.536
13682WAT     H141288   4.418   7.803   5.607
13682WAT     H241289   4.502   7.878   5.488
13683WAT      O41290   8.648   6.684   1.194
13683WAT     H141291   8.656   6.639   1.283
13683WAT     H241292   8.552   6.687   1.167
13684WAT      O41293   5.337   9.750   7.673
13684WAT     H141294   5.378   9.701   7.597
13684WAT     H241295   5.253   9.703   7.701
13685WAT      O41296   9.511   0.092   9.832
13685WAT     H141297   9.448   0.124   9.761
13685WAT     H241298   9.604   0.121   9.808
13686WAT      O41299   4.251   6.406   9.237
13686WAT     H141300   4.299   6.474   9.181
13686WAT     H241301   4.251   6.435   9.333
13687WAT      O41302   7.435   1.352   1.892
13687WAT     H141303   7.338   1.372   1.900
13687WAT     H241304   7.489   1.433   1.915
13688WAT      O41305   7.282   3.071   7.683
13688WAT     H141306   7.337   3.016   7.745
13688WAT     H241307   7.325   3.161   7.672
13689WAT      O41308   1.735   2.164   2.172
13689WAT     H141309   1.644   2.128   2.188
13689WAT     H241310   1.755   2.163   2.074
13690WAT      O41311   1.407   6.163   9.478
13690WAT     H141312   1.360   6.080   9.506
13690WAT     H241313   1.448   6.149   9.388
13691WAT      O41314   5.965   6.009   1.067
13691WAT     H141315   5.911   5.970   0.992
13691WAT     H241316   5.972   5.942   1.141
13692WAT      O41317   4.943   6.954   5.624
13692WAT     H141318   4.887   6.882   5.664
13692WAT     H241319   5.040   6.935   5.643
13693WAT      O41320   8.533   9.070   4.925
13693WAT     H141321   8.477   9.153   4.926
13693WAT     H241322   8.569   9.053   5.017
13694WAT      O41323   0.587   2.443   3.526
13694WAT     H141324   0.513   2.481   3.469
13694WAT     H241325   0.651   2.393   3.469
13695WAT      O41326   4.927   1.426   7.889
13695WAT     H141327   4.926   1.513   7.937
13695WAT     H241328   5.000   1.368   7.925
13696WAT      O41329   4.430   7.960   6.202
13696WAT     H141330   4.334   7.931   6.206
13696WAT     H241331   4.462   7.981   6.294
13697WAT      O41332   0.049   3.811   5.932
13697WAT     H141333  -0.007   3.730   5.914
13697WAT     H241334   0.092   3.802   6.022
13698WAT      O41335   5.317   7.757   0.657
13698WAT     H141336   5.261   7.801   0.727
13698WAT     H241337   5.259   7.729   0.581
13699WAT      O41338   4.544   5.168   7.637
13699WAT     H141339   4.448   5.147   7.617
13699WAT     H241340   4.581   5.226   7.565
13700WAT      O41341   2.860   5.597   0.009
13700WAT     H141342   2.882   5.524  -0.056
13700WAT     H241343   2.944   5.627   0.055
13701WAT      O41344   4.989   0.151   2.526
13701WAT     H141345   4.994   0.243   2.490
13701WAT     H241346   4.897   0.135   2.564
13702WAT      O41347   2.534   7.401   4.680
13702WAT     H141348   2.608   7.443   4.628
13702WAT     H241349   2.497   7.468   4.745
13703WAT      O41350   3.334   4.613   1.369
13703WAT     H141351   3.322   4.668   1.286
13703WAT     H241352   3.279   4.651   1.443
13704WAT      O41353   1.439   1.558   3.885
13704WAT     H141354   1.345   1.560   3.852
13704WAT     H241355   1.502   1.567   3.807
13705WAT      O41356   0.705   9.584   4.740
13705WAT     H141357   0.719   9.533   4.825
13705WAT     H241358   0.683   9.520   4.666
13706WAT      O41359   2.141   3.846   5.514
13706WAT     H141360   2.106   3.769   5.567
13706WAT     H241361   2.174   3.918   5.576
13707WAT      O41362   0.675   2.765   6.846
13707WAT     H141363   0.732   2.686   6.867
13707WAT     H241364   0.612   2.782   6.922
13708WAT      O41365   9.220   5.194   8.566
13708WAT     H141366   9.260   5.109   8.599
13708WAT     H241367   9.160   5.233   8.636
13709WAT      O41368   3.098   7.557   9.513
13709WAT     H141369   3.077   7.525   9.421
13709WAT     H241370   3.093   7.480   9.577
13710WAT      O41371   1.510   1.072   1.318
13710WAT     H141372   1.461   1.156   1.341
13710WAT     H241373   1.458   1.021   1.249
13711WAT      O41374   3.543   1.927   8.303
13711WAT     H141375   3.597   1.864   8.247
13711WAT     H241376   3.486   1.984   8.244
13712WAT      O41377   8.588   0.796   4.557
13712WAT     H141378   8.625   0.871   4.612
13712WAT     H241379   8.492   0.814   4.536
13713WAT      O41380   1.761   0.420   1.908
13713WAT     H141381   1.847   0.470   1.925
13713WAT     H241382   1.775   0.323   1.927
13714WAT      O41383   6.359   3.959   1.562
13714WAT     H141384   6.288   3.904   1.606
13714WAT     H241385   6.326   3.992   1.474
13715WAT      O41386   8.938   6.860   7.504
13715WAT     H141387   9.032   6.828   7.499
13715WAT     H241388   8.883   6.795   7.556
13716WAT      O41389   0.221   1.308   1.765
13716WAT     H141390   0.215   1.372   1.841
13716WAT     H241391   0.311   1.265   1.764
13717WAT      O41392   3.725   4.194   6.921
13717WAT     H141393   3.779   4.266   6.878
13717WAT     H241394   3.689   4.133   6.851
13718WAT      O41395   4.441   8.032   9.378
13718WAT     H141396   4.360   8.049   9.434
13718WAT     H241397   4.514   7.996   9.435
13719WAT      O41398   5.085   8.603   2.095
13719WAT     H141399   5.120   8.696   2.110
13719WAT     H241400   5.074   8.588   1.997
13720WAT      O41401   7.805   9.448   9.331
13720WAT     H141402   7.760   9.416   9.247
13720WAT     H241403   7.745   9.433   9.409
13721WAT      O41404   8.822   2.103   6.211
13721WAT     H141405   8.877   2.038   6.159
13721WAT     H241406   8.864   2.194   6.205
13722WAT      O41407   8.021   7.131   1.318
13722WAT     H141408   7.940   7.083   1.285
13722WAT     H241409   8.025   7.222   1.277
13723WAT      O41410   6.189   5.667   1.977
13723WAT     H141411   6.101   5.630   2.009
13723WAT     H241412   6.248   5.684   2.056
13724WAT      O41413   0.441   5.976   8.753
13724WAT     H141414   0.524   5.923   8.734
13724WAT     H241415   0.371   5.953   8.685
13725WAT      O41416   2.794   1.047   3.492
13725WAT     H141417   2.879   1.094   3.472
13725WAT     H241418   2.743   1.032   3.408
13726WAT      O41419   0.502   5.294   7.821
13726WAT     H141420   0.589   5.336   7.798
13726WAT     H241421   0.519   5.211   7.875
13727WAT      O41422   4.852   3.552   9.426
13727WAT     H141423   4.812   3.625   9.370
13727WAT     H241424   4.850   3.579   9.522
13728WAT      O41425   4.909   7.982   6.742
13728WAT     H141426   4.878   8.077   6.735
13728WAT     H241427   4.972   7.961   6.668
13729WAT      O41428   3.381   9.040   0.965
13729WAT     H141429   3.337   9.033   1.054
13729WAT     H241430   3.403   9.136   0.946
13730WAT      O41431   3.460   2.182   3.561
13730WAT     H141432   3.513   2.139   3.488
13730WAT     H241433   3.509   2.263   3.595
13731WAT      O41434   6.344   3.816   9.082
13731WAT     H141435   6.285   3.823   9.001
13731WAT     H241436   6.293   3.776   9.157
13732WAT      O41437   9.266   4.655   6.628
13732WAT     H141438   9.249   4.629   6.533
13732WAT     H241439   9.340   4.722   6.632
13733WAT      O41440   9.516   8.401   7.730
13733WAT     H141441   9.480   8.308   7.737
13733WAT     H241442   9.566   8.425   7.813
13734WAT      O41443   2.543   5.737   8.002
13734WAT     H141444   2.538   5.644   8.038
13734WAT     H241445   2.473   5.750   7.932
13735WAT      O41446   6.295   5.395   7.022
13735WAT     H141447   6.242   5.469   7.066
13735WAT     H241448   6.268   5.307   7.061
13736WAT      O41449   9.790   4.801   9.662
13736WAT     H141450   9.777   4.807   9.761
13736WAT     H241451   9.716   4.849   9.615
13737WAT      O41452   0.657   3.627   0.940
13737WAT     H141453   0.674   3.637   0.842
13737WAT     H241454   0.741   3.596   0.985
13738WAT      O41455   8.409   0.810   0.435
13738WAT     H141456   8.507   0.820   0.417
13738WAT     H241457   8.358   0.881   0.386
13739WAT      O41458   3.676   2.986   1.191
13739WAT     H141459   3.620   3.053   1.141
13739WAT     H241460   3.663   2.999   1.289
13740WAT      O41461   0.263   7.053   5.656
13740WAT     H141462   0.254   6.953   5.658
13740WAT     H241463   0.359   7.078   5.663
13741WAT      O41464   7.109   4.753   3.385
13741WAT     H141465   7.125   4.712   3.475
13741WAT     H241466   7.135   4.850   3.389
13742WAT      O41467   8.034   2.412   5.919
13742WAT     H141468   8.133   2.409   5.906
13742WAT     H241469   7.994   2.325   5.891
13743WAT      O41470   3.534   5.218   1.151
13743WAT     H141471   3.532   5.155   1.229
13743WAT     H241472   3.597   5.293   1.169
13744WAT      O41473   9.510   3.525   4.877
13744WAT     H141474   9.579   3.454   4.868
13744WAT     H241475   9.481   3.532   4.972
13745WAT      O41476   3.220   8.804   9.834
13745WAT     H141477   3.182   8.773   9.747
13745WAT     H241478   3.258   8.896   9.823
13746WAT      O41479   9.831   4.195   3.808
13746WAT     H141480   9.897   4.250   3.756
13746WAT     H241481   9.752   4.251   3.832
13747WAT      O41482   1.743   7.904   5.596
13747WAT     H141483   1.807   7.828   5.587
13747WAT     H241484   1.661   7.873   5.643
13748WAT      O41485   4.380   4.268   8.117
13748WAT     H141486   4.449   4.295   8.050
13748WAT     H241487   4.293   4.250   8.071
13749WAT      O41488   2.433   7.025   4.205
13749WAT     H141489   2.373   7.046   4.128
13749WAT     H241490   2.501   6.958   4.176
13750WAT      O41491   6.795   7.429   0.483
13750WAT     H141492   6.751   7.515   0.456
13750WAT     H241493   6.844   7.391   0.405
13751WAT      O41494   4.634   2.283   1.357
13751WAT     H141495   4.559   2.347   1.370
13751WAT     H241496   4.626   2.241   1.266
13752WAT      O41497   7.672   4.608   5.892
13752WAT     H141498   7.738   4.533   5.891
13752WAT     H241499   7.651   4.636   5.798
13753WAT      O41500   5.718   5.833   7.649
13753WAT     H141501   5.736   5.881   7.734
13753WAT     H241502   5.629   5.787   7.655
13754WAT      O41503   6.501   1.238   9.292
13754WAT     H141504   6.556   1.274   9.217
13754WAT     H241505   6.448   1.159   9.260
13755WAT      O41506   1.039   6.234   8.591
13755WAT     H141507   1.093   6.310   8.556
13755WAT     H241508   1.075   6.147   8.556
13756WAT      O41509   4.695   0.672   7.201
13756WAT     H141510   4.719   0.614   7.123
13756WAT     H241511   4.769   0.671   7.267
13757WAT      O41512   9.248   8.875   8.364
13757WAT     H141513   9.312   8.846   8.434
13757WAT     H241514   9.280   8.844   8.274
13758WAT      O41515   1.372   9.208   2.633
13758WAT     H141516   1.356   9.262   2.715
13758WAT     H241517   1.358   9.265   2.552
13759WAT      O41518   6.467   0.749   7.232
13759WAT     H141519   6.390   0.740   7.169
13759WAT     H241520   6.509   0.660   7.247
13760WAT      O41521   3.190   9.711   3.898
13760WAT     H141522   3.129   9.646   3.852
13760WAT     H241523   3.208   9.679   3.991
13761WAT      O41524   7.946   0.007   8.311
13761WAT     H141525   7.902   0.015   8.400
13761WAT     H241526   8.044   0.028   8.319
13762WAT      O41527   3.639   8.692   4.304
13762WAT     H141528   3.734   8.666   4.320
13762WAT     H241529   3.585   8.609   4.287
13763WAT      O41530   4.721   7.706   7.266
13763WAT     H141531   4.724   7.783   7.203
13763WAT     H241532   4.758   7.734   7.355
13764WAT      O41533   0.511   5.060   8.767
13764WAT     H141534   0.462   5.146   8.786
13764WAT     H241535   0.515   5.005   8.849
13765WAT      O41536   6.619   7.992   8.593
13765WAT     H141537   6.708   7.948   8.579
13765WAT     H241538   6.629   8.091   8.582
13766WAT      O41539   5.585   6.196   0.205
13766WAT     H141540   5.573   6.294   0.220
13766WAT     H241541   5.587   6.177   0.107
13767WAT      O41542   7.548   5.555   5.412
13767WAT     H141543   7.462   5.509   5.434
13767WAT     H241544   7.591   5.587   5.497
13768WAT      O41545   1.910   3.518   6.006
13768WAT     H141546   1.916   3.419   6.009
13768WAT     H241547   1.970   3.557   6.077
13769WAT      O41548   7.447   7.801   2.765
13769WAT     H141549   7.399   7.738   2.703
13769WAT     H241550   7.488   7.748   2.840
13770WAT      O41551   1.481   5.644   5.041
13770WAT     H141552   1.415   5.577   5.007
13770WAT     H241553   1.461   5.664   5.137
13771WAT      O41554   8.824   2.895   7.762
13771WAT     H141555   8.835   2.851   7.672
13771WAT     H241556   8.815   2.993   7.750
13772WAT      O41557   9.804   6.633   1.256
13772WAT     H141558   9.826   6.730   1.245
13772WAT     H241559   9.888   6.578   1.247
13773WAT      O41560   6.536   9.696   6.087
13773WAT     H141561   6.503   9.767   6.025
13773WAT     H241562   6.584   9.625   6.036
13774WAT      O41563   1.858   1.410   4.130
13774WAT     H141564   1.779   1.471   4.122
13774WAT     H241565   1.862   1.349   4.051
13775WAT      O41566   9.319   3.636   3.721
13775WAT     H141567   9.408   3.653   3.678
13775WAT     H241568   9.332   3.623   3.820
13776WAT      O41569   2.581   3.502   9.160
13776WAT     H141570   2.641   3.564   9.210
13776WAT     H241571   2.512   3.555   9.110
13777WAT      O41572   8.197   5.590   7.858
13777WAT     H141573   8.229   5.495   7.854
13777WAT     H241574   8.098   5.593   7.851
13778WAT      O41575   2.726   4.920   5.836
13778WAT     H141576   2.761   4.909   5.742
13778WAT     H241577   2.681   4.836   5.865
13779WAT      O41578   1.180   2.515   1.917
13779WAT     H141579   1.115   2.573   1.867
13779WAT     H241580   1.249   2.480   1.853
13780WAT      O41581   0.125   5.633   2.324
13780WAT     H141582   0.198   5.702   2.315
13780WAT     H241583   0.108   5.616   2.421
13781WAT      O41584   8.152   3.785   2.458
13781WAT     H141585   8.155   3.883   2.480
13781WAT     H241586   8.142   3.774   2.359
13782WAT      O41587   6.798   7.353   4.033
13782WAT     H141588   6.833   7.260   4.035
13782WAT     H241589   6.870   7.417   4.060
13783WAT      O41590   1.164   2.449   4.316
13783WAT     H141591   1.185   2.402   4.230
13783WAT     H241592   1.127   2.384   4.382
13784WAT      O41593   9.140   1.231   5.732
13784WAT     H141594   9.216   1.180   5.773
13784WAT     H241595   9.145   1.223   5.632
13785WAT      O41596   9.414   4.888   6.607
13785WAT     H141597   9.377   4.970   6.651
13785WAT     H241598   9.461   4.913   6.522
13786WAT      O41599   0.892   0.537   7.928
13786WAT     H141600   0.988   0.560   7.945
13786WAT     H241601   0.835   0.581   7.998
13787WAT      O41602   0.630   5.492   5.092
13787WAT     H141603   0.629   5.436   5.176
13787WAT     H241604   0.558   5.460   5.031
13788WAT      O41605   2.634   5.569   0.728
13788WAT     H141606   2.626   5.470   0.740
13788WAT     H241607   2.696   5.589   0.652
13789WAT      O41608   9.746   5.766   7.913
13789WAT     H141609   9.807   5.746   7.990
13789WAT     H241610   9.757   5.861   7.885
13790WAT      O41611   9.348   6.741   6.902
13790WAT     H141612   9.330   6.770   6.808
13790WAT     H241613   9.379   6.646   6.902
13791WAT      O41614   7.700   2.516   9.623
13791WAT     H141615   7.668   2.588   9.562
13791WAT     H241616   7.644   2.515   9.706
13792WAT      O41617   5.504   0.921   8.243
13792WAT     H141618   5.476   0.829   8.271
13792WAT     H241619   5.601   0.934   8.264
13793WAT      O41620   2.112   8.331   0.121
13793WAT     H141621   2.044   8.359   0.189
13793WAT     H241622   2.202   8.329   0.163
13794WAT      O41623   0.484   4.972   2.436
13794WAT     H141624   0.444   5.058   2.468
13794WAT     H241625   0.583   4.976   2.444
13795WAT      O41626   6.595   9.659   2.395
13795WAT     H141627   6.613   9.593   2.322
13795WAT     H241628   6.679   9.710   2.416
13796WAT      O41629   5.721   2.479   5.774
13796WAT     H141630   5.632   2.433   5.767
13796WAT     H241631   5.755   2.472   5.867
13797WAT      O41632   9.510   0.271   3.456
13797WAT     H141633   9.431   0.330   3.440
13797WAT     H241634   9.512   0.242   3.551
13798WAT      O41635   8.052   1.269   6.864
13798WAT     H141636   7.982   1.271   6.792
13798WAT     H241637   8.023   1.207   6.936
13799WAT      O41638   9.477   5.271   6.497
13799WAT     H141639   9.564   5.247   6.454
13799WAT     H241640   9.487   5.358   6.545
13800WAT      O41641   7.908   2.241   3.062
13800WAT     H141642   7.919   2.143   3.050
13800WAT     H241643   7.995   2.287   3.042
13801WAT      O41644   2.073   1.147   4.404
13801WAT     H141645   2.082   1.117   4.309
13801WAT     H241646   2.024   1.234   4.407
13802WAT      O41647   9.036   2.030   4.458
13802WAT     H141648   9.118   2.058   4.507
13802WAT     H241649   9.050   2.043   4.360
13803WAT      O41650   0.920   0.372   8.677
13803WAT     H141651   0.949   0.398   8.585
13803WAT     H241652   0.862   0.291   8.672
13804WAT      O41653   2.048   6.936   1.405
13804WAT     H141654   2.068   7.030   1.433
13804WAT     H241655   2.069   6.925   1.308
13805WAT      O41656   0.832   3.602   5.784
13805WAT     H141657   0.774   3.648   5.717
13805WAT     H241658   0.914   3.657   5.800
13806WAT      O41659   9.553   4.134   6.816
13806WAT     H141660   9.455   4.116   6.826
13806WAT     H241661   9.599   4.113   6.903
13807WAT      O41662   6.978   7.940   0.740
13807WAT     H141663   6.950   7.910   0.649
13807WAT     H241664   7.035   7.869   0.783
13808WAT      O41665   7.611   8.274   8.407
13808WAT     H141666   7.634   8.176   8.403
13808WAT     H241667   7.644   8.319   8.325
13809WAT      O41668   2.090   6.532   8.215
13809WAT     H141669   2.001   6.578   8.214
13809WAT     H241670   2.163   6.600   8.220
13810WAT      O41671   0.725   5.520   1.357
13810WAT     H141672   0.679   5.505   1.269
13810WAT     H241673   0.823   5.532   1.342
13811WAT      O41674   3.193   5.567   4.268
13811WAT     H141675   3.098   5.536   4.262
13811WAT     H241676   3.244   5.531   4.189
13812WAT      O41677   7.802   1.541   0.609
13812WAT     H141678   7.751   1.625   0.626
13812WAT     H241679   7.856   1.517   0.689
13813WAT      O41680   2.704   4.106   9.042
13813WAT     H141681   2.719   4.051   8.960
13813WAT     H241682   2.777   4.174   9.050
13814WAT      O41683   4.902   9.149   4.622
13814WAT     H141684   4.882   9.052   4.634
13814WAT     H241685   4.900   9.173   4.525
13815WAT      O41686   2.553   6.834   8.907
13815WAT     H141687   2.500   6.839   8.993
13815WAT     H241688   2.593   6.923   8.887
13816WAT      O41689   7.100   1.563   0.550
13816WAT     H141690   7.012   1.543   0.593
13816WAT     H241691   7.142   1.642   0.594
13817WAT      O41692   2.923   2.409   2.184
13817WAT     H141693   2.961   2.501   2.170
13817WAT     H241694   2.979   2.343   2.134
13818WAT      O41695   7.927   4.809   8.594
13818WAT     H141696   7.852   4.776   8.536
13818WAT     H241697   7.942   4.744   8.669
13819WAT      O41698   9.768   4.947   3.856
13819WAT     H141699   9.817   4.884   3.796
13819WAT     H241700   9.787   5.041   3.828
13820WAT      O41701   4.576   6.538   5.407
13820WAT     H141702   4.602   6.449   5.444
13820WAT     H241703   4.506   6.526   5.337
13821WAT      O41704   6.437   6.622   3.104
13821WAT     H141705   6.508   6.590   3.041
13821WAT     H241706   6.371   6.678   3.055
13822WAT      O41707   2.595   1.896   7.657
13822WAT     H141708   2.584   1.801   7.628
13822WAT     H241709   2.585   1.902   7.756
13823WAT      O41710   9.502   5.355   0.145
13823WAT     H141711   9.423   5.346   0.085
13823WAT     H241712   9.584   5.369   0.091
13824WAT      O41713   3.512   6.863   5.272
13824WAT     H141714   3.609   6.837   5.280
13824WAT     H241715   3.505   6.952   5.227
13825WAT      O41716   3.264   4.499   4.963
13825WAT     H141717   3.207   4.534   5.038
13825WAT     H241718   3.356   4.479   4.998
13826WAT      O41719   6.146   9.674   2.159
13826WAT     H141720   6.079   9.602   2.176
13826WAT     H241721   6.228   9.633   2.117
13827WAT      O41722   7.833   0.844   1.626
13827WAT     H141723   7.815   0.857   1.529
13827WAT     H241724   7.798   0.754   1.654
13828WAT      O41725   3.730   0.008   8.529
13828WAT     H141726   3.640  -0.000   8.487
13828WAT     H241727   3.723  -0.009   8.627
13829WAT      O41728   3.814   8.419   2.414
13829WAT     H141729   3.904   8.435   2.455
13829WAT     H241730   3.823   8.357   2.337
13830WAT      O41731   1.537   0.040   3.309
13830WAT     H141732   1.589   0.001   3.385
13830WAT     H241733   1.439   0.037   3.332
13831WAT      O41734   7.727   9.605   6.706
13831WAT     H141735   7.671   9.522   6.707
13831WAT     H241736   7.810   9.588   6.652
13832WAT      O41737   9.666   2.448   8.298
13832WAT     H141738   9.627   2.439   8.206
13832WAT     H241739   9.743   2.511   8.295
13833WAT      O41740   3.729   1.477   2.142
13833WAT     H141741   3.740   1.403   2.207
13833WAT     H241742   3.669   1.547   2.181
13834WAT      O41743   9.280   5.707   1.647
13834WAT     H141744   9.292   5.610   1.626
13834WAT     H241745   9.190   5.737   1.616
13835WAT      O41746   9.600   9.235   2.210
13835WAT     H141747   9.626   9.325   2.175
13835WAT     H241748   9.584   9.172   2.134
13836WAT      O41749   4.447   1.134   3.314
13836WAT     H141750   4.391   1.072   3.259
13836WAT     H241751   4.388   1.182   3.380
13837WAT      O41752   5.095   2.909   0.317
13837WAT     H141753   5.128   2.995   0.356
13837WAT     H241754   5.000   2.894   0.346
13838WAT      O41755   3.281   4.033   6.229
13838WAT     H141756   3.223   4.034   6.310
13838WAT     H241757   3.280   3.941   6.188
13839WAT      O41758   7.626   6.935   4.017
13839WAT     H141759   7.588   6.937   4.110
13839WAT     H241760   7.638   7.029   3.984
13840WAT      O41761   4.683   9.309   7.315
13840WAT     H141762   4.656   9.240   7.248
13840WAT     H241763   4.649   9.283   7.405
13841WAT      O41764   8.358   2.651   8.660
13841WAT     H141765   8.442   2.684   8.702
13841WAT     H241766   8.286   2.647   8.729
13842WAT      O41767   6.510   4.421   4.285
13842WAT     H141768   6.555   4.437   4.197
13842WAT     H241769   6.481   4.326   4.291
13843WAT      O41770   6.418   0.447   2.608
13843WAT     H141771   6.451   0.355   2.584
13843WAT     H241772   6.379   0.490   2.527
13844WAT      O41773   9.633   7.915   4.886
13844WAT     H141774   9.709   7.980   4.893
13844WAT     H241775   9.585   7.911   4.973
13845WAT      O41776   9.822   2.635   2.177
13845WAT     H141777   9.734   2.593   2.152
13845WAT     H241778   9.813   2.679   2.267
13846WAT      O41779   3.917   6.192   4.934
13846WAT     H141780   3.874   6.272   4.893
13846WAT     H241781   3.904   6.194   5.033
13847WAT      O41782   9.826   4.536   3.894
13847WAT     H141783   9.790   4.608   3.834
13847WAT     H241784   9.770   4.454   3.884
13848WAT      O41785   8.051   1.218   6.480
13848WAT     H141786   8.011   1.127   6.466
13848WAT     H241787   8.138   1.209   6.528
13849WAT      O41788   0.090   4.421   9.835
13849WAT     H141789   0.160   4.380   9.893
13849WAT     H241790   0.029   4.477   9.890
13850WAT      O41791   0.292   4.058   2.882
13850WAT     H141792   0.373   4.046   2.940
13850WAT     H241793   0.312   4.024   2.790
13851WAT      O41794   7.715   2.948   7.552
13851WAT     H141795   7.791   2.894   7.588
13851WAT     H241796   7.698   3.026   7.612
13852WAT      O41797   2.327   0.744   6.731
13852WAT     H141798   2.383   0.679   6.679
13852WAT     H241799   2.236   0.705   6.745
13853WAT      O41800   1.270   2.948   8.305
13853WAT     H141801   1.187   2.991   8.340
13853WAT     H241802   1.245   2.880   8.236
13854WAT      O41803   5.019   1.471   2.498
13854WAT     H141804   5.071   1.475   2.413
13854WAT     H241805   4.924   1.496   2.481
13855WAT      O41806   7.144   6.493   5.167
13855WAT     H141807   7.120   6.401   5.138
13855WAT     H241808   7.141   6.498   5.267
13856WAT      O41809   5.219   5.717   9.234
13856WAT     H141810   5.253   5.751   9.322
13856WAT     H241811   5.126   5.682   9.245
13857WAT      O41812   1.577   4.948   3.416
13857WAT     H141813   1.553   5.040   3.447
13857WAT     H241814   1.533   4.930   3.328
13858WAT      O41815   5.023   4.801   2.938
13858WAT     H141816   4.954   4.739   2.902
13858WAT     H241817   5.096   4.813   2.871
13859WAT      O41818   1.445   4.787   5.194
13859WAT     H141819   1.377   4.859   5.204
13859WAT     H241820   1.530   4.815   5.239
13860WAT      O41821   1.712   6.577   2.514
13860WAT     H141822   1.734   6.480   2.520
13860WAT     H241823   1.628   6.590   2.462
13861WAT      O41824   8.262   1.205   2.095
13861WAT     H141825   8.297   1.231   2.185
13861WAT     H241826   8.246   1.106   2.093
13862WAT      O41827   0.856   8.742   9.065
13862WAT     H141828   0.820   8.836   9.071
13862WAT     H241829   0.828   8.691   9.146
13863WAT      O41830   5.821   4.735   7.019
13863WAT     H141831   5.843   4.822   7.064
13863WAT     H241832   5.764   4.679   7.080
13864WAT      O41833   0.617   9.698   7.913
13864WAT     H141834   0.604   9.717   8.010
13864WAT     H241835   0.528   9.697   7.867
13865WAT      O41836   2.267   4.843   1.815
13865WAT     H141837   2.366   4.835   1.818
13865WAT     H241838   2.239   4.933   1.846
13866WAT      O41839   8.339   4.657   7.729
13866WAT     H141840   8.435   4.674   7.750
13866WAT     H241841   8.332   4.602   7.646
13867WAT      O41842   6.432   1.464   0.280
13867WAT     H141843   6.428   1.383   0.221
13867WAT     H241844   6.504   1.451   0.349
13868WAT      O41845   4.175   2.137   2.409
13868WAT     H141846   4.154   2.141   2.312
13868WAT     H241847   4.253   2.077   2.424
13869WAT      O41848   3.646   3.527   3.818
13869WAT     H141849   3.596   3.500   3.736
13869WAT     H241850   3.613   3.475   3.897
13870WAT      O41851   4.032   5.104   8.778
13870WAT     H141852   4.026   5.012   8.739
13870WAT     H241853   4.038   5.171   8.704
13871WAT      O41854   9.103   3.924   9.252
13871WAT     H141855   9.176   3.939   9.186
13871WAT     H241856   9.111   3.832   9.292
13872WAT      O41857   3.368   9.433   4.462
13872WAT     H141858   3.279   9.441   4.507
13872WAT     H241859   3.355   9.402   4.367
13873WAT      O41860   2.108   9.393   8.416
13873WAT     H141861   2.047   9.363   8.490
13873WAT     H241862   2.124   9.316   8.354
13874WAT      O41863   5.547   0.171   2.168
13874WAT     H141864   5.611   0.119   2.111
13874WAT     H241865   5.459   0.124   2.170
13875WAT      O41866   0.223   8.162   7.642
13875WAT     H141867   0.292   8.153   7.713
13875WAT     H241868   0.268   8.174   7.553
13876WAT      O41869   6.075   0.936   5.755
13876WAT     H141870   6.065   1.036   5.748
13876WAT     H241871   6.000   0.892   5.707
13877WAT      O41872   7.007   7.631   9.574
13877WAT     H141873   7.011   7.533   9.556
13877WAT     H241874   7.036   7.681   9.493
13878WAT      O41875   1.502   5.383   0.853
13878WAT     H141876   1.496   5.472   0.808
13878WAT     H241877   1.514   5.397   0.952
13879WAT      O41878   3.794   7.256   7.410
13879WAT     H141879   3.719   7.230   7.471
13879WAT     H241880   3.876   7.203   7.434
13880WAT      O41881   0.563   8.966   1.974
13880WAT     H141882   0.570   8.953   2.073
13880WAT     H241883   0.654   8.956   1.933
13881WAT      O41884   9.465   5.341   0.434
13881WAT     H141885   9.450   5.365   0.338
13881WAT     H241886   9.543   5.392   0.470
13882WAT      O41887   6.119   4.587   5.040
13882WAT     H141888   6.067   4.502   5.037
13882WAT     H241889   6.151   4.610   4.948
13883WAT      O41890   3.621   7.949   7.301
13883WAT     H141891   3.622   7.940   7.401
13883WAT     H241892   3.715   7.964   7.268
13884WAT      O41893   3.651   1.503   2.490
13884WAT     H141894   3.684   1.427   2.434
13884WAT     H241895   3.724   1.570   2.502
13885WAT      O41896   5.773   0.932   4.605
13885WAT     H141897   5.797   0.916   4.509
13885WAT     H241898   5.675   0.923   4.617
13886WAT      O41899   1.671   1.537   0.885
13886WAT     H141900   1.758   1.490   0.870
13886WAT     H241901   1.670   1.623   0.834
13887WAT      O41902   3.317   7.296   2.798
13887WAT     H141903   3.297   7.269   2.892
13887WAT     H241904   3.246   7.359   2.765
13888WAT      O41905   9.719   8.326   8.990
13888WAT     H141906   9.628   8.286   8.988
13888WAT     H241907   9.786   8.259   8.958
13889WAT      O41908   7.864   9.733   4.911
13889WAT     H141909   7.884   9.677   4.991
13889WAT     H241910   7.772   9.772   4.920
13890WAT      O41911   9.214   1.239   4.156
13890WAT     H141912   9.302   1.203   4.187
13890WAT     H241913   9.157   1.262   4.235
13891WAT      O41914   3.851   1.673   2.383
13891WAT     H141915   3.935   1.635   2.345
13891WAT     H241916   3.815   1.742   2.320
13892WAT      O41917   9.805   2.674   9.559
13892WAT     H141918   9.863   2.602   9.521
13892WAT     H241919   9.753   2.717   9.485
13893WAT      O41920   4.203   8.849   8.106
13893WAT     H141921   4.292   8.859   8.063
13893WAT     H241922   4.144   8.925   8.078
13894WAT      O41923   4.642   1.679   6.672
13894WAT     H141924   4.633   1.601   6.611
13894WAT     H241925   4.624   1.764   6.622
13895WAT      O41926   2.855   1.101   6.785
13895WAT     H141927   2.820   1.011   6.812
13895WAT     H241928   2.955   1.100   6.788
13896WAT      O41929   5.341   3.697   0.385
13896WAT     H141930   5.380   3.663   0.299
13896WAT     H241931   5.274   3.768   0.366
13897WAT      O41932   0.656   2.981   4.568
13897WAT     H141933   0.574   3.012   4.615
13897WAT     H241934   0.706   2.917   4.627
13898WAT      O41935   8.328   2.611   5.254
13898WAT     H141936   8.325   2.699   5.206
13898WAT     H241937   8.235   2.578   5.269
13899WAT      O41938   9.117   8.978   6.591
13899WAT     H141939   9.019   8.990   6.610
13899WAT     H241940   9.170   9.033   6.655
13900WAT      O41941   6.849   9.067   3.685
13900WAT     H141942   6.852   9.094   3.781
13900WAT     H241943   6.938   9.084   3.642
13901WAT      O41944   0.821   4.183   1.056
13901WAT     H141945   0.801   4.278   1.079
13901WAT     H241946   0.739   4.139   1.021
13902WAT      O41947   2.955   8.702   4.634
13902WAT     H141948   2.879   8.766   4.645
13902WAT     H241949   3.000   8.719   4.546
13903WAT      O41950   3.292   5.491   1.617
13903WAT     H141951   3.208   5.527   1.656
13903WAT     H241952   3.356   5.566   1.600
13904WAT      O41953   8.436   3.794   7.392
13904WAT     H141954   8.373   3.738   7.337
13904WAT     H241955   8.469   3.870   7.337
13905WAT      O41956   0.514   0.764   2.323
13905WAT     H141957   0.545   0.851   2.284
13905WAT     H241958   0.478   0.706   2.250
13906WAT      O41959   2.157   6.141   1.764
13906WAT     H141960   2.098   6.084   1.706
13906WAT     H241961   2.136   6.124   1.860
13907WAT      O41962   2.547   8.338   5.051
13907WAT     H141963   2.613   8.283   5.000
13907WAT     H241964   2.571   8.435   5.044
13908WAT      O41965   4.680   7.377   4.080
13908WAT     H141966   4.738   7.458   4.074
13908WAT     H241967   4.668   7.337   3.989
13909WAT      O41968   7.219   1.787   0.646
13909WAT     H141969   7.300   1.815   0.594
13909WAT     H241970   7.247   1.757   0.737
13910WAT      O41971   8.160   2.324   1.478
13910WAT     H141972   8.155   2.246   1.416
13910WAT     H241973   8.077   2.329   1.533
13911WAT      O41974   9.481   0.451   0.492
13911WAT     H141975   9.430   0.365   0.481
13911WAT     H241976   9.421   0.528   0.471
13912WAT      O41977   5.343   8.385   6.491
13912WAT     H141978   5.340   8.291   6.458
13912WAT     H241979   5.434   8.404   6.529
13913WAT      O41980   4.850   4.169   2.161
13913WAT     H141981   4.853   4.157   2.260
13913WAT     H241982   4.927   4.227   2.132
13914WAT      O41983   1.215   1.229   4.927
13914WAT     H141984   1.258   1.319   4.931
13914WAT     H241985   1.285   1.158   4.931
13915WAT      O41986   8.589   1.257   8.585
13915WAT     H141987   8.513   1.317   8.610
13915WAT     H241988   8.566   1.206   8.503
13916WAT      O41989   7.331   5.689   3.632
13916WAT     H141990   7.250   5.706   3.576
13916WAT     H241991   7.354   5.772   3.684
13917WAT      O41992   6.078   0.973   7.414
13917WAT     H141993   6.077   0.962   7.315
13917WAT     H241994   5.985   0.965   7.449
13918WAT      O41995   8.699   3.417   2.291
13918WAT     H141996   8.729   3.473   2.369
13918WAT     H241997   8.753   3.333   2.288
13919WAT      O41998   0.377   7.252   6.610
13919WAT     H141999   0.445   7.322   6.588
13919WAT     H242000   0.311   7.245   6.535
13920WAT      O42001   3.481   3.224   6.679
13920WAT     H142002   3.485   3.308   6.624
13920WAT     H242003   3.386   3.204   6.703
13921WAT      O42004   8.231   3.496   8.553
13921WAT     H142005   8.260   3.404   8.580
13921WAT     H242006   8.298   3.563   8.583
13922WAT      O42007   2.233   0.501   4.443
13922WAT     H142008   2.310   0.456   4.489
13922WAT     H242009   2.207   0.449   4.362
13923WAT      O42010   8.316   0.215   5.040
13923WAT     H142011   8.227   0.262   5.037
13923WAT     H242012   8.384   0.271   4.993
13924WAT      O42013   6.539   2.424   6.641
13924WAT     H142014   6.575   2.466   6.557
13924WAT     H242015   6.472   2.485   6.683
13925WAT      O42016   3.072   3.846   8.294
13925WAT     H142017   2.991   3.895   8.263
13925WAT     H242018   3.147   3.860   8.229
13926WAT      O42019   8.001   4.481   2.783
13926WAT     H142020   8.090   4.438   2.795
13926WAT     H242021   7.991   4.557   2.847
13927WAT      O42022   4.660   4.669   7.077
13927WAT     H142023   4.598   4.646   7.152
13927WAT     H242024   4.614   4.733   7.015
13928WAT      O42025   3.720   6.709   6.670
13928WAT     H142026   3.663   6.627   6.670
13928WAT     H242027   3.677   6.780   6.726
13929WAT      O42028   8.695   9.841   8.842
13929WAT     H142029   8.690   9.940   8.831
13929WAT     H242030   8.647   9.796   8.767
13930WAT      O42031   8.014   3.072   4.826
13930WAT     H142032   7.918   3.069   4.853
13930WAT     H242033   8.056   2.982   4.838
13931WAT      O42034   9.233   5.188   7.839
13931WAT     H142035   9.178   5.108   7.814
13931WAT     H242036   9.175   5.258   7.879
13932WAT      O42037   8.144   0.410   3.646
13932WAT     H142038   8.239   0.414   3.677
13932WAT     H242039   8.141   0.365   3.557
13933WAT      O42040   2.711   4.538   1.846
13933WAT     H142041   2.763   4.616   1.880
13933WAT     H242042   2.772   4.458   1.839
13934WAT      O42043   0.709   6.023   6.165
13934WAT     H142044   0.669   5.940   6.203
13934WAT     H242045   0.773   6.000   6.092
13935WAT      O42046   2.091   6.481   3.669
13935WAT     H142047   2.008   6.535   3.654
13935WAT     H242048   2.141   6.471   3.583
13936WAT      O42049   1.162   2.788   8.089
13936WAT     H142050   1.197   2.763   7.999
13936WAT     H242051   1.086   2.727   8.113
13937WAT      O42052   8.944   5.460   3.193
13937WAT     H142053   8.915   5.541   3.244
13937WAT     H242054   8.891   5.453   3.109
13938WAT      O42055   5.162   7.876   5.063
13938WAT     H142056   5.201   7.866   4.971
13938WAT     H242057   5.074   7.923   5.056
13939WAT      O42058   6.313   5.438   7.575
13939WAT     H142059   6.398   5.485   7.550
13939WAT     H242060   6.242   5.505   7.594
13940WAT      O42061   7.944   0.452   3.380
13940WAT     H142062   7.971   0.532   3.327
13940WAT     H242063   7.869   0.477   3.442
13941WAT      O42064   2.055   4.675   9.827
13941WAT     H142065   2.110   4.687   9.744
13941WAT     H242066   2.039   4.763   9.870
13942WAT      O42067   3.702   5.338   5.547
13942WAT     H142068   3.619   5.344   5.603
13942WAT     H242069   3.753   5.424   5.554
13943WAT      O42070   6.688   8.477   8.933
13943WAT     H142071   6.662   8.383   8.910
13943WAT     H242072   6.697   8.486   9.032
13944WAT      O42073   0.974   7.018   1.267
13944WAT     H142074   0.958   6.997   1.171
13944WAT     H242075   1.052   6.964   1.300
13945WAT      O42076   2.562   5.348   2.349
13945WAT     H142077   2.622   5.368   2.426
13945WAT     H242078   2.502   5.426   2.332
13946WAT      O42079   8.051   0.984   1.602
13946WAT     H142080   7.976   0.920   1.619
13946WAT     H242081   8.137   0.933   1.593
13947WAT      O42082   3.906   7.379   3.383
13947WAT     H142083   3.942   7.302   3.435
13947WAT     H242084   3.878   7.348   3.292
13948WAT      O42085   0.333   0.755   1.042
13948WAT     H142086   0.252   0.808   1.066
13948WAT     H242087   0.306   0.675   0.989
13949WAT      O42088   7.227   0.941   3.465
13949WAT     H142089   7.264   0.998   3.391
13949WAT     H242090   7.131   0.923   3.447
13950WAT      O42091   5.101   9.465   7.996
13950WAT     H142092   5.070   9.391   8.055
13950WAT     H242093   5.168   9.521   8.044
13951WAT      O42094   9.182   7.603   3.188
13951WAT     H142095   9.271   7.567   3.158
13951WAT     H242096   9.196   7.669   3.262
13952WAT      O42097   9.365   8.364   3.693
13952WAT     H142098   9.420   8.304   3.635
13952WAT     H242099   9.425   8.431   3.737
13953WAT      O42100   1.355   2.038   8.349
13953WAT     H142101   1.417   2.041   8.270
13953WAT     H242102   1.266   2.004   8.320
13954WAT      O42103   0.615   0.158   2.746
13954WAT     H142104   0.641   0.240   2.797
13954WAT     H242105   0.615   0.079   2.807
13955WAT      O42106   5.954   9.497   2.847
13955WAT     H142107   6.049   9.498   2.817
13955WAT     H242108   5.945   9.445   2.931
13956WAT      O42109   4.366   7.775   4.128
13956WAT     H142110   4.398   7.693   4.082
13956WAT     H242111   4.287   7.752   4.186
13957WAT      O42112   3.588   3.664   7.231
13957WAT     H142113   3.536   3.618   7.159
13957WAT     H242114   3.555   3.632   7.320
13958WAT      O42115   4.329   5.886   0.192
13958WAT     H142116   4.257   5.849   0.250
13958WAT     H242117   4.293   5.962   0.138
13959WAT      O42118   6.111   0.229   8.539
13959WAT     H142119   6.109   0.248   8.638
13959WAT     H242120   6.064   0.143   8.521
13960WAT      O42121   8.398   4.786   3.917
13960WAT     H142122   8.408   4.772   4.016
13960WAT     H242123   8.452   4.865   3.889
13961WAT      O42124   8.534   1.767   2.339
13961WAT     H142125   8.633   1.779   2.330
13961WAT     H242126   8.508   1.680   2.296
13962WAT      O42127   6.281   1.221   1.282
13962WAT     H142128   6.239   1.133   1.307
13962WAT     H242129   6.210   1.292   1.278
13963WAT      O42130   3.245   9.159   7.108
13963WAT     H142131   3.333   9.190   7.072
13963WAT     H242132   3.256   9.069   7.151
13964WAT      O42133   2.657   0.472   4.879
13964WAT     H142134   2.673   0.441   4.973
13964WAT     H242135   2.667   0.572   4.875
13965WAT      O42136   3.477   5.104   9.184
13965WAT     H142137   3.448   5.088   9.089
13965WAT     H242138   3.396   5.107   9.243
13966WAT      O42139   7.703   8.437   6.281
13966WAT     H142140   7.625   8.447   6.218
13966WAT     H242141   7.750   8.351   6.263
13967WAT      O42142   7.348   5.213   6.136
13967WAT     H142143   7.366   5.285   6.203
13967WAT     H242144   7.293   5.249   6.061
13968WAT      O42145   9.700   2.408   8.725
13968WAT     H142146   9.757   2.391   8.646
13968WAT     H242147   9.631   2.477   8.702
13969WAT      O42148   5.561   2.831   7.849
13969WAT     H142149   5.531   2.921   7.881
13969WAT     H242150   5.486   2.787   7.799
13970WAT      O42151   6.681   7.159   5.451
13970WAT     H142152   6.705   7.243   5.500
13970WAT     H242153   6.765   7.115   5.417
13971WAT      O42154   8.324   0.158   3.128
13971WAT     H142155   8.267   0.076   3.120
13971WAT     H242156   8.309   0.200   3.218
13972WAT      O42157   4.440   7.504   4.084
13972WAT     H142158   4.373   7.465   4.021
13972WAT     H242159   4.526   7.454   4.077
13973WAT      O42160   5.744   3.734   5.570
13973WAT     H142161   5.799   3.653   5.591
13973WAT     H242162   5.788   3.815   5.607
13974WAT      O42163   5.189   5.589   8.372
13974WAT     H142164   5.252   5.531   8.320
13974WAT     H242165   5.128   5.637   8.309
13975WAT      O42166   8.476   0.925   5.323
13975WAT     H142167   8.496   0.942   5.420
13975WAT     H242168   8.446   0.831   5.310
13976WAT      O42169   7.021   2.283   0.865
13976WAT     H142170   7.020   2.295   0.964
13976WAT     H242171   7.109   2.315   0.828
13977WAT      O42172   5.530   5.324   5.173
13977WAT     H142173   5.517   5.389   5.248
13977WAT     H242174   5.628   5.311   5.157
13978WAT      O42175   8.799   4.481   7.178
13978WAT     H142176   8.823   4.486   7.275
13978WAT     H242177   8.880   4.500   7.122
13979WAT      O42178   6.895   8.325   1.869
13979WAT     H142179   6.845   8.341   1.954
13979WAT     H242180   6.951   8.242   1.877
13980WAT      O42181   9.790   9.432   0.863
13980WAT     H142182   9.731   9.390   0.931
13980WAT     H242183   9.814   9.364   0.793
13981WAT      O42184   9.011   7.971   7.050
13981WAT     H142185   8.979   7.989   6.957
13981WAT     H242186   9.111   7.971   7.051
13982WAT      O42187   3.788   2.739   2.454
13982WAT     H142188   3.872   2.752   2.401
13982WAT     H242189   3.752   2.828   2.481
13983WAT      O42190   1.290   5.203   4.494
13983WAT     H142191   1.263   5.263   4.419
13983WAT     H242192   1.317   5.259   4.573
13984WAT      O42193   6.037   4.895   9.455
13984WAT     H142194   6.107   4.830   9.483
13984WAT     H242195   6.068   4.988   9.473
13985WAT      O42196   9.629   8.927   4.306
13985WAT     H142197   9.543   8.894   4.346
13985WAT     H242198   9.706   8.877   4.346
13986WAT      O42199   5.748   6.981   5.503
13986WAT     H142200   5.687   6.905   5.525
13986WAT     H242201   5.706   7.067   5.531
13987WAT      O42202   6.260   2.655   3.906
13987WAT     H142203   6.341   2.689   3.858
13987WAT     H242204   6.289   2.593   3.979
13988WAT      O42205   8.819   9.293   7.299
13988WAT     H142206   8.881   9.217   7.319
13988WAT     H242207   8.849   9.339   7.216
13989WAT      O42208   0.926   1.131   4.386
13989WAT     H142209   0.895   1.223   4.364
13989WAT     H242210   0.855   1.084   4.440
13990WAT      O42211   2.448   4.401   5.072
13990WAT     H142212   2.467   4.340   5.150
13990WAT     H242213   2.470   4.354   4.987
13991WAT      O42214   5.881   2.398   9.247
13991WAT     H142215   5.821   2.476   9.233
13991WAT     H242216   5.901   2.388   9.345
13992WAT      O42217   1.603   2.457   6.932
13992WAT     H142218   1.689   2.450   6.882
13992WAT     H242219   1.611   2.525   7.004
13993WAT      O42220   3.088   5.096   8.437
13993WAT     H142221   3.085   5.188   8.398
13993WAT     H242222   2.995   5.064   8.455
13994WAT      O42223   9.123   0.734   8.772
13994WAT     H142224   9.205   0.791   8.776
13994WAT     H242225   9.059   0.774   8.705
13995WAT      O42226   4.299   2.794   3.155
13995WAT     H142227   4.393   2.824   3.143
13995WAT     H242228   4.295   2.694   3.151
13996WAT      O42229   1.698   5.730   1.910
13996WAT     H142230   1.640   5.696   1.836
13996WAT     H242231   1.644   5.788   1.970
13997WAT      O42232   8.499   0.186   2.635
13997WAT     H142233   8.564   0.258   2.614
13997WAT     H242234   8.474   0.190   2.732
13998WAT      O42235   9.392   6.947   2.431
13998WAT     H142236   9.404   6.939   2.332
13998WAT     H242237   9.355   7.037   2.454
13999WAT      O42238   7.702   7.220   6.244
13999WAT     H142239   7.690   7.296   6.307
13999WAT     H242240   7.656   7.240   6.158
14000WAT      O42241   3.385   5.063   0.087
14000WAT     H142242   3.337   4.981   0.117
14000WAT     H242243   3.413   5.053  -0.008
14001WAT      O42244   9.622   6.235   3.243
14001WAT     H142245   9.681   6.315   3.249
14001WAT     H242246   9.601   6.216   3.147
14002WAT      O42247   3.645   1.279   0.959
14002WAT     H142248   3.663   1.259   0.863
14002WAT     H242249   3.728   1.317   1.002
14003WAT      O42250   6.091   6.506   2.703
14003WAT     H142251   6.076   6.476   2.798
14003WAT     H242252   6.166   6.452   2.663
14004WAT      O42253   7.617   1.008   2.641
14004WAT     H142254   7.567   1.047   2.718
14004WAT     H242255   7.555   0.955   2.584
14005WAT      O42256   1.925   3.068   3.959
14005WAT     H142257   2.011   3.019   3.975
14005WAT     H242258   1.943   3.148   3.901
14006WAT      O42259   7.056   1.161   3.018
14006WAT     H142260   7.038   1.074   3.064
14006WAT     H242261   7.154   1.179   3.017
14007WAT      O42262   8.541   0.686   8.638
14007WAT     H142263   8.521   0.593   8.671
14007WAT     H242264   8.455   0.736   8.627
14008WAT      O42265   0.621   0.717   6.262
14008WAT     H142266   0.706   0.667   6.278
14008WAT     H242267   0.639   0.815   6.262
14009WAT      O42268   3.411   6.850   7.063
14009WAT     H142269   3.470   6.883   7.137
14009WAT     H242270   3.448   6.880   6.975
14010WAT      O42271   0.320   9.620   6.633
14010WAT     H142272   0.253   9.642   6.563
14010WAT     H242273   0.407   9.597   6.590
14011WAT      O42274   2.975   5.226   2.256
14011WAT     H142275   3.048   5.202   2.192
14011WAT     H242276   2.991   5.319   2.291
14012WAT      O42277   9.007   6.257   2.354
14012WAT     H142278   9.013   6.182   2.289
14012WAT     H242279   9.048   6.230   2.441
14013WAT      O42280   2.117   5.275   5.197
14013WAT     H142281   2.160   5.306   5.112
14013WAT     H242282   2.114   5.351   5.263
14014WAT      O42283   2.188   7.960   8.297
14014WAT     H142284   2.151   7.935   8.387
14014WAT     H242285   2.263   8.024   8.309
14015WAT      O42286   3.362   3.223   1.633
14015WAT     H142287   3.393   3.225   1.538
14015WAT     H242288   3.298   3.298   1.649
14016WAT      O42289   4.831   9.798   2.267
14016WAT     H142290   4.820   9.810   2.366
14016WAT     H242291   4.781   9.717   2.237
14017WAT      O42292   7.355   1.519   1.593
14017WAT     H142293   7.274   1.464   1.615
14017WAT     H242294   7.337   1.614   1.618
14018WAT      O42295   6.804   1.714   7.708
14018WAT     H142296   6.730   1.654   7.739
14018WAT     H242297   6.852   1.672   7.631
14019WAT      O42298   3.470   1.265   5.618
14019WAT     H142299   3.426   1.338   5.565
14019WAT     H242300   3.437   1.176   5.587
14020WAT      O42301   1.278   9.659   7.211
14020WAT     H142302   1.330   9.743   7.198
14020WAT     H242303   1.315   9.608   7.289
14021WAT      O42304   3.345   9.188   5.603
14021WAT     H142305   3.344   9.287   5.593
14021WAT     H242306   3.252   9.155   5.618
14022WAT      O42307   7.719   7.065   7.298
14022WAT     H142308   7.769   7.096   7.217
14022WAT     H242309   7.782   7.020   7.361
14023WAT      O42310   5.269   0.280   5.281
14023WAT     H142311   5.341   0.212   5.291
14023WAT     H242312   5.258   0.303   5.185
14024WAT      O42313   3.980   6.242   8.579
14024WAT     H142314   3.922   6.196   8.511
14024WAT     H242315   4.029   6.173   8.633
14025WAT      O42316   5.930   3.892   9.085
14025WAT     H142317   5.862   3.963   9.066
14025WAT     H242318   6.021   3.934   9.091
14026WAT      O42319   6.595   7.377   9.312
14026WAT     H142320   6.569   7.297   9.258
14026WAT     H242321   6.668   7.426   9.265
14027WAT      O42322   2.202   7.683   6.622
14027WAT     H142323   2.301   7.685   6.637
14027WAT     H242324   2.174   7.591   6.595
14028WAT      O42325   4.141   5.445   4.376
14028WAT     H142326   4.140   5.539   4.411
14028WAT     H242327   4.050   5.405   4.385
14029WAT      O42328   4.148   7.232   6.106
14029WAT     H142329   4.194   7.143   6.116
14029WAT     H242330   4.208   7.295   6.058
14030WAT      O42331   5.884   4.560   3.554
14030WAT     H142332   5.851   4.479   3.601
14030WAT     H242333   5.806   4.620   3.533
14031WAT      O42334   1.070   4.316   2.592
14031WAT     H142335   1.040   4.232   2.637
14031WAT     H242336   1.064   4.305   2.493
14032WAT      O42337   0.203   7.278   7.461
14032WAT     H142338   0.180   7.256   7.555
14032WAT     H242339   0.239   7.196   7.415
14033WAT      O42340   3.260   2.690   1.517
14033WAT     H142341   3.216   2.767   1.564
14033WAT     H242342   3.220   2.680   1.425
14034WAT      O42343   1.201   6.957   0.601
14034WAT     H142344   1.150   7.036   0.566
14034WAT     H242345   1.237   6.978   0.692
14035WAT      O42346   0.666   9.516   1.577
14035WAT     H142347   0.699   9.608   1.600
14035WAT     H242348   0.702   9.450   1.642
14036WAT      O42349   1.470   0.818   4.648
14036WAT     H142350   1.516   0.825   4.560
14036WAT     H242351   1.491   0.729   4.690
14037WAT      O42352   4.119   3.238   4.975
14037WAT     H142353   4.126   3.159   5.036
14037WAT     H242354   4.029   3.239   4.931
14038WAT      O42355   7.393   2.271   8.731
14038WAT     H142356   7.413   2.315   8.819
14038WAT     H242357   7.303   2.300   8.699
14039WAT      O42358   7.108   6.233   3.541
14039WAT     H142359   7.196   6.278   3.556
14039WAT     H242360   7.055   6.233   3.626
14040WAT      O42361   6.583   7.363   5.862
14040WAT     H142362   6.535   7.369   5.949
14040WAT     H242363   6.539   7.422   5.794
14041WAT      O42364   9.462   6.861   5.624
14041WAT     H142365   9.400   6.894   5.696
14041WAT     H242366   9.490   6.937   5.567
14042WAT      O42367   0.346   5.504   8.265
14042WAT     H142368   0.418   5.564   8.230
14042WAT     H242369   0.261   5.555   8.274
14043WAT      O42370   4.491   4.820   2.233
14043WAT     H142371   4.437   4.798   2.313
14043WAT     H242372   4.496   4.920   2.222
14044WAT      O42373   7.003   2.043   0.026
14044WAT     H142374   7.082   1.982   0.021
14044WAT     H242375   6.921   1.993  -0.003
14045WAT      O42376   0.367   4.540   9.289
14045WAT     H142377   0.299   4.609   9.314
14045WAT     H242378   0.326   4.449   9.295
14046WAT      O42379   0.120   6.757   1.764
14046WAT     H142380   0.197   6.709   1.721
14046WAT     H242381   0.043   6.759   1.701
14047WAT      O42382   6.797   6.923   7.990
14047WAT     H142383   6.837   6.945   7.901
14047WAT     H242384   6.749   7.003   8.026
14048WAT      O42385   2.678   9.832   4.652
14048WAT     H142386   2.667   9.777   4.734
14048WAT     H242387   2.775   9.851   4.637
14049WAT      O42388   6.214   3.902   2.987
14049WAT     H142389   6.162   3.978   2.949
14049WAT     H242390   6.259   3.931   3.072
14050WAT      O42391   6.741   1.529   5.365
14050WAT     H142392   6.711   1.600   5.302
14050WAT     H242393   6.813   1.565   5.425
14051WAT      O42394   7.835   6.631   6.597
14051WAT     H142395   7.912   6.663   6.541
14051WAT     H242396   7.866   6.556   6.656
14052WAT      O42397   9.607   6.879   0.517
14052WAT     H142398   9.631   6.813   0.445
14052WAT     H242399   9.681   6.884   0.584
14053WAT      O42400   2.189   7.572   3.887
14053WAT     H142401   2.148   7.575   3.796
14053WAT     H242402   2.132   7.518   3.948
14054WAT      O42403   2.382   3.401   4.338
14054WAT     H142404   2.325   3.472   4.380
14054WAT     H242405   2.450   3.369   4.403
14055WAT      O42406   6.404   4.239   3.420
14055WAT     H142407   6.473   4.194   3.364
14055WAT     H242408   6.313   4.216   3.385
14056WAT      O42409   7.782   7.955   6.845
14056WAT     H142410   7.833   8.040   6.841
14056WAT     H242411   7.809   7.903   6.926
14057WAT      O42412   5.376   0.273   9.314
14057WAT     H142413   5.376   0.173   9.316
14057WAT     H242414   5.333   0.305   9.229
14058WAT      O42415   6.596   9.711   1.393
14058WAT     H142416   6.543   9.626   1.401
14058WAT     H242417   6.637   9.717   1.302
14059WAT      O42418   8.229   5.598   7.104
14059WAT     H142419   8.164   5.641   7.041
14059WAT     H242420   8.183   5.577   7.190
14060WAT      O42421   8.024   9.409   0.099
14060WAT     H142422   7.971   9.447   0.175
14060WAT     H242423   8.121   9.425   0.115
14061WAT      O42424   2.903   6.057   4.156
14061WAT     H142425   2.947   6.117   4.222
14061WAT     H242426   2.835   6.000   4.203
14062WAT      O42427   1.876   3.293   2.960
14062WAT     H142428   1.965   3.329   2.987
14062WAT     H242429   1.804   3.359   2.983
14063WAT      O42430   7.823   1.737   0.914
14063WAT     H142431   7.829   1.639   0.931
14063WAT     H242432   7.793   1.784   0.998
14064WAT      O42433   4.560   1.131   4.168
14064WAT     H142434   4.509   1.131   4.082
14064WAT     H242435   4.572   1.226   4.199
14065WAT      O42436   2.167   5.127   2.898
14065WAT     H142437   2.138   5.040   2.938
14065WAT     H242438   2.125   5.138   2.808
14066WAT      O42439   7.508   4.437   6.628
14066WAT     H142440   7.449   4.445   6.708
14066WAT     H242441   7.585   4.378   6.649
14067WAT      O42442   4.433   9.120   3.261
14067WAT     H142443   4.372   9.072   3.325
14067WAT     H242444   4.492   9.053   3.216
14068WAT      O42445   5.315   5.568   6.817
14068WAT     H142446   5.381   5.561   6.743
14068WAT     H242447   5.319   5.486   6.874
14069WAT      O42448   5.757   1.719   7.279
14069WAT     H142449   5.691   1.777   7.231
14069WAT     H242450   5.750   1.736   7.378
14070WAT      O42451   4.192   2.469   8.409
14070WAT     H142452   4.179   2.375   8.443
14070WAT     H242453   4.124   2.488   8.338
14071WAT      O42454   1.873   8.818   6.058
14071WAT     H142455   1.803   8.863   6.113
14071WAT     H242456   1.849   8.824   5.961
14072WAT      O42457   7.229   5.142   7.220
14072WAT     H142458   7.177   5.225   7.198
14072WAT     H242459   7.179   5.089   7.288
14073WAT      O42460   3.453   0.148   5.455
14073WAT     H142461   3.536   0.151   5.400
14073WAT     H242462   3.473   0.179   5.548
14074WAT      O42463   1.405   2.095   7.730
14074WAT     H142464   1.448   2.171   7.778
14074WAT     H242465   1.457   2.011   7.748
14075WAT      O42466   4.833   4.379   7.339
14075WAT     H142467   4.902   4.408   7.273
14075WAT     H242468   4.755   4.442   7.336
14076WAT      O42469   5.570   4.998   3.361
14076WAT     H142470   5.520   4.981   3.446
14076WAT     H242471   5.506   5.028   3.291
14077WAT      O42472   8.848   0.344   8.580
14077WAT     H142473   8.938   0.314   8.611
14077WAT     H242474   8.858   0.424   8.520
14078WAT      O42475   2.694   4.905   2.293
14078WAT     H142476   2.706   4.998   2.258
14078WAT     H242477   2.618   4.861   2.244
14079WAT      O42478   9.381   9.537   3.681
14079WAT     H142479   9.399   9.519   3.778
14079WAT     H242480   9.303   9.483   3.652
14080WAT      O42481   0.082   0.009   2.257
14080WAT     H142482   0.148  -0.026   2.191
14080WAT     H242483   0.099  -0.032   2.346
14081WAT      O42484   6.527   6.677   4.639
14081WAT     H142485   6.566   6.672   4.731
14081WAT     H242486   6.450   6.741   4.640
14082WAT      O42487   9.383   1.442   2.247
14082WAT     H142488   9.345   1.469   2.159
14082WAT     H242489   9.472   1.487   2.261
14083WAT      O42490   0.269   6.067   5.271
14083WAT     H142491   0.233   6.143   5.217
14083WAT     H242492   0.343   6.100   5.330
14084WAT      O42493   1.068   0.437   6.156
14084WAT     H142494   0.969   0.431   6.146
14084WAT     H242495   1.099   0.528   6.127
14085WAT      O42496   0.436   5.196   4.365
14085WAT     H142497   0.494   5.254   4.307
14085WAT     H242498   0.341   5.226   4.357
14086WAT      O42499   3.010   4.234   2.215
14086WAT     H142500   3.092   4.248   2.159
14086WAT     H242501   3.003   4.307   2.283
14087WAT      O42502   1.695   9.781   3.495
14087WAT     H142503   1.725   9.687   3.476
14087WAT     H242504   1.760   9.824   3.558
14088WAT      O42505   5.987   3.608   7.028
14088WAT     H142506   5.933   3.680   6.986
14088WAT     H242507   6.060   3.581   6.965
14089WAT      O42508   1.414   7.243   1.501
14089WAT     H142509   1.391   7.289   1.415
14089WAT     H242510   1.496   7.188   1.488
14090WAT      O42511   5.807   5.348   2.825
14090WAT     H142512   5.883   5.371   2.885
14090WAT     H242513   5.733   5.413   2.839
14091WAT      O42514   1.810   2.519   5.269
14091WAT     H142515   1.908   2.507   5.286
14091WAT     H242516   1.796   2.586   5.196
14092WAT      O42517   3.298   2.112   1.917
14092WAT     H142518   3.288   2.016   1.943
14092WAT     H242519   3.365   2.156   1.976
14093WAT      O42520   5.134   3.551   0.513
14093WAT     H142521   5.182   3.486   0.573
14093WAT     H242522   5.199   3.620   0.481
14094WAT      O42523   1.423   0.477   3.812
14094WAT     H142524   1.481   0.451   3.890
14094WAT     H242525   1.352   0.407   3.799
14095WAT      O42526   9.730   6.865   6.461
14095WAT     H142527   9.639   6.895   6.490
14095WAT     H242528   9.721   6.801   6.384
14096WAT      O42529   8.491   7.890   5.094
14096WAT     H142530   8.514   7.972   5.042
14096WAT     H242531   8.509   7.905   5.191
14097WAT      O42532   4.768   0.242   1.086
14097WAT     H142533   4.801   0.192   1.167
14097WAT     H242534   4.813   0.206   1.004
14098WAT      O42535   4.548   1.882   2.199
14098WAT     H142536   4.639   1.841   2.203
14098WAT     H242537   4.515   1.899   2.292
14099WAT      O42538   1.627   1.106   3.976
14099WAT     H142539   1.599   1.127   4.070
14099WAT     H242540   1.647   1.009   3.969
14100WAT      O42541   2.513   4.583   7.988
14100WAT     H142542   2.598   4.583   8.040
14100WAT     H242543   2.473   4.675   7.990
14101WAT      O42544   2.200   5.429   8.664
14101WAT     H142545   2.106   5.400   8.682
14101WAT     H242546   2.249   5.354   8.618
14102WAT      O42547   0.617   5.379   5.349
14102WAT     H142548   0.650   5.448   5.413
14102WAT     H242549   0.589   5.297   5.400
14103WAT      O42550   0.757   4.851   6.714
14103WAT     H142551   0.795   4.759   6.699
14103WAT     H242552   0.819   4.919   6.675
14104WAT      O42553   8.119   3.152   8.102
14104WAT     H142554   8.043   3.169   8.164
14104WAT     H242555   8.086   3.109   8.019
14105WAT      O42556   6.351   8.316   0.536
14105WAT     H142557   6.347   8.277   0.444
14105WAT     H242558   6.297   8.400   0.539
14106WAT      O42559   4.814   9.625   4.136
14106WAT     H142560   4.750   9.548   4.141
14106WAT     H242561   4.816   9.673   4.224
14107WAT      O42562   7.456   8.269   6.358
14107WAT     H142563   7.458   8.295   6.455
14107WAT     H242564   7.460   8.169   6.351
14108WAT      O42565   7.713   2.783   1.868
14108WAT     H142566   7.638   2.735   1.913
14108WAT     H242567   7.732   2.868   1.918
14109WAT      O42568   5.114   4.547   4.132
14109WAT     H142569   5.149   4.504   4.215
14109WAT     H242570   5.118   4.646   4.141
14110WAT      O42571   2.871   3.613   8.533
14110WAT     H142572   2.810   3.635   8.609
14110WAT     H242573   2.835   3.653   8.448
14111WAT      O42574   2.907   0.776   3.822
14111WAT     H142575   3.000   0.810   3.827
14111WAT     H242576   2.897   0.696   3.881
14112WAT      O42577   8.550   2.259   8.908
14112WAT     H142578   8.578   2.163   8.898
14112WAT     H242579   8.590   2.296   8.992
14113WAT      O42580   7.208   0.675   7.372
14113WAT     H142581   7.120   0.721   7.357
14113WAT     H242582   7.192   0.580   7.398
14114WAT      O42583   4.461   1.567   2.426
14114WAT     H142584   4.483   1.638   2.493
14114WAT     H242585   4.425   1.487   2.473
14115WAT      O42586   8.580   8.431   1.787
14115WAT     H142587   8.638   8.507   1.758
14115WAT     H242588   8.509   8.415   1.719
14116WAT      O42589   2.045   5.805   0.122
14116WAT     H142590   2.117   5.808   0.191
14116WAT     H242591   2.057   5.724   0.064
14117WAT      O42592   3.636   4.183   9.418
14117WAT     H142593   3.661   4.280   9.409
14117WAT     H242594   3.693   4.128   9.357
14118WAT      O42595   9.344   5.926   1.487
14118WAT     H142596   9.363   5.973   1.574
14118WAT     H242597   9.327   5.829   1.505
14119WAT      O42598   4.512   3.496   2.018
14119WAT     H142599   4.448   3.456   1.952
14119WAT     H242600   4.556   3.576   1.978
14120WAT      O42601   8.851   9.397   8.334
14120WAT     H142602   8.880   9.372   8.242
14120WAT     H242603   8.827   9.315   8.385
14121WAT      O42604   6.433   3.198   4.918
14121WAT     H142605   6.496   3.160   4.850
14121WAT     H242606   6.452   3.295   4.930
14122WAT      O42607   9.594   5.950   6.168
14122WAT     H142608   9.629   5.885   6.099
14122WAT     H242609   9.520   6.003   6.129
14123WAT      O42610   2.444   7.963   5.945
14123WAT     H142611   2.423   7.973   6.043
14123WAT     H242612   2.470   8.052   5.907
14124WAT      O42613   2.882   9.480   1.490
14124WAT     H142614   2.801   9.532   1.514
14124WAT     H242615   2.933   9.457   1.574
14125WAT      O42616   0.173   4.861   9.656
14125WAT     H142617   0.074   4.869   9.658
14125WAT     H242618   0.207   4.879   9.563
14126WAT      O42619   0.574   2.027   1.074
14126WAT     H142620   0.562   1.964   0.997
14126WAT     H242621   0.622   1.980   1.148
14127WAT      O42622   4.196   9.509   3.584
14127WAT     H142623   4.144   9.448   3.524
14127WAT     H242624   4.142   9.528   3.666
14128WAT      O42625   2.824   1.679   1.448
14128WAT     H142626   2.916   1.716   1.443
14128WAT     H242627   2.796   1.671   1.544
14129WAT      O42628   7.484   4.887   6.855
14129WAT     H142629   7.575   4.869   6.819
14129WAT     H242630   7.489   4.953   6.930
14130WAT      O42631   6.970   6.044   3.838
14130WAT     H142632   6.922   5.975   3.784
14130WAT     H242633   6.953   6.135   3.798
14131WAT      O42634   8.669   9.598   4.259
14131WAT     H142635   8.629   9.506   4.253
14131WAT     H242636   8.601   9.663   4.291
14132WAT      O42637   9.668   9.829   1.359
14132WAT     H142638   9.610   9.886   1.417
14132WAT     H242639   9.751   9.804   1.409
14133WAT      O42640   1.370   8.590   4.025
14133WAT     H142641   1.419   8.663   3.978
14133WAT     H242642   1.318   8.629   4.101
14134WAT      O42643   0.146   8.566   5.619
14134WAT     H142644   0.182   8.499   5.684
14134WAT     H242645   0.052   8.589   5.643
14135WAT      O42646   1.253   1.130   7.213
14135WAT     H142647   1.172   1.169   7.258
14135WAT     H242648   1.265   1.173   7.124
14136WAT      O42649   7.008   4.444   3.925
14136WAT     H142650   7.015   4.540   3.951
14136WAT     H242651   6.959   4.394   3.996
14137WAT      O42652   1.736   4.767   3.657
14137WAT     H142653   1.748   4.858   3.618
14137WAT     H242654   1.642   4.757   3.690
14138WAT      O42655   7.515   5.605   8.180
14138WAT     H142656   7.587   5.629   8.244
14138WAT     H242657   7.427   5.639   8.214
14139WAT      O42658   1.373   3.211   2.097
14139WAT     H142659   1.325   3.188   2.013
14139WAT     H242660   1.464   3.246   2.076
14140WAT      O42661   5.171   4.139   8.063
14140WAT     H142662   5.191   4.046   8.095
14140WAT     H242663   5.205   4.149   7.969
14141WAT      O42664   7.628   0.182   6.894
14141WAT     H142665   7.635   0.082   6.892
14141WAT     H242666   7.595   0.212   6.983
14142WAT      O42667   5.152   2.447   6.708
14142WAT     H142668   5.077   2.391   6.674
14142WAT     H242669   5.189   2.406   6.791
14143WAT      O42670   7.279   2.680   7.507
14143WAT     H142671   7.216   2.755   7.487
14143WAT     H242672   7.229   2.593   7.505
14144WAT      O42673   8.959   5.726   6.058
14144WAT     H142674   9.044   5.676   6.044
14144WAT     H242675   8.979   5.822   6.077
14145WAT      O42676   1.612   6.596   9.614
14145WAT     H142677   1.569   6.510   9.588
14145WAT     H242678   1.589   6.619   9.708
14146WAT      O42679   1.973   4.779   9.231
14146WAT     H142680   2.018   4.695   9.262
14146WAT     H242681   1.878   4.760   9.209
14147WAT      O42682   7.467   7.334   5.490
14147WAT     H142683   7.453   7.291   5.401
14147WAT     H242684   7.395   7.403   5.506
14148WAT      O42685   0.978   6.061   1.422
14148WAT     H142686   0.917   6.091   1.496
14148WAT     H242687   1.009   5.968   1.440
14149WAT      O42688   0.227   9.395   1.389
14149WAT     H142689   0.252   9.326   1.457
14149WAT     H242690   0.311   9.436   1.352
14150WAT      O42691   8.638   3.152   5.974
14150WAT     H142692   8.627   3.068   6.026
14150WAT     H242693   8.613   3.230   6.032
14151WAT      O42694   1.563   9.129   1.952
14151WAT     H142695   1.566   9.033   1.922
14151WAT     H242696   1.468   9.157   1.964
14152WAT      O42697   1.085   3.723   5.817
14152WAT     H142698   1.035   3.770   5.744
14152WAT     H242699   1.157   3.667   5.777
14153WAT      O42700   9.586   1.631   8.224
14153WAT     H142701   9.631   1.719   8.237
14153WAT     H242702   9.534   1.608   8.306
14154WAT      O42703   5.129   0.699   4.323
14154WAT     H142704   5.161   0.657   4.408
14154WAT     H242705   5.031   0.684   4.313
14155WAT      O42706   8.198   9.036   3.435
14155WAT     H142707   8.204   8.964   3.505
14155WAT     H242708   8.231   9.000   3.348
14156WAT      O42709   1.703   5.113   2.632
14156WAT     H142710   1.704   5.117   2.732
14156WAT     H242711   1.651   5.190   2.596
14157WAT      O42712   0.382   4.966   6.585
14157WAT     H142713   0.374   5.066   6.588
14157WAT     H242714   0.462   4.941   6.532
14158WAT      O42715   8.248   4.149   7.479
14158WAT     H142716   8.230   4.104   7.392
14158WAT     H242717   8.168   4.205   7.504
14159WAT      O42718   9.363   8.209   0.857
14159WAT     H142719   9.327   8.120   0.884
14159WAT     H242720   9.442   8.231   0.914
14160WAT      O42721   4.139   8.279   1.892
14160WAT     H142722   4.053   8.283   1.841
14160WAT     H242723   4.204   8.344   1.851
14161WAT      O42724   9.364   2.295   0.074
14161WAT     H142725   9.347   2.233  -0.002
14161WAT     H242726   9.454   2.275   0.113
14162WAT      O42727   3.267   7.087   7.044
14162WAT     H142728   3.308   6.999   7.065
14162WAT     H242729   3.173   7.090   7.080
14163WAT      O42730   4.825   6.110   5.203
14163WAT     H142731   4.867   6.087   5.115
14163WAT     H242732   4.737   6.061   5.211
14164WAT      O42733   5.781   8.466   4.970
14164WAT     H142734   5.707   8.529   4.949
14164WAT     H242735   5.864   8.494   4.922
14165WAT      O42736   6.119   3.635   2.081
14165WAT     H142737   6.218   3.624   2.076
14165WAT     H242738   6.097   3.703   2.151
14166WAT      O42739   5.295   5.101   6.744
14166WAT     H142740   5.217   5.070   6.799
14166WAT     H242741   5.333   5.024   6.692
14167WAT      O42742   5.104   7.100   0.704
14167WAT     H142743   5.060   7.015   0.733
14167WAT     H242744   5.139   7.148   0.785
14168WAT      O42745   6.434   2.550   2.586
14168WAT     H142746   6.425   2.459   2.628
14168WAT     H242747   6.516   2.595   2.622
14169WAT      O42748   8.486   6.829   1.670
14169WAT     H142749   8.567   6.811   1.614
14169WAT     H242750   8.514   6.866   1.759
14170WAT      O42751   9.762   7.100   8.245
14170WAT     H142752   9.791   7.188   8.206
14170WAT     H242753   9.777   7.028   8.177
14171WAT      O42754   3.412   0.704   1.424
14171WAT     H142755   3.332   0.740   1.472
14171WAT     H242756   3.484   0.683   1.491
14172WAT      O42757   3.741   7.178   0.712
14172WAT     H142758   3.749   7.245   0.786
14172WAT     H242759   3.650   7.137   0.715
14173WAT      O42760   0.384   3.526   7.531
14173WAT     H142761   0.477   3.488   7.526
14173WAT     H242762   0.337   3.486   7.610
14174WAT      O42763   1.680   3.696   7.494
14174WAT     H142764   1.753   3.738   7.441
14174WAT     H242765   1.618   3.767   7.527
14175WAT      O42766   0.484   4.824   1.473
14175WAT     H142767   0.462   4.798   1.567
14175WAT     H242768   0.399   4.846   1.424
14176WAT      O42769   1.088   8.228   7.998
14176WAT     H142770   0.993   8.202   8.015
14176WAT     H242771   1.148   8.176   8.058
14177WAT      O42772   2.007   5.144   9.852
14177WAT     H142773   2.031   5.223   9.909
14177WAT     H242774   1.908   5.129   9.857
14178WAT      O42775   2.390   3.986   4.329
14178WAT     H142776   2.310   4.038   4.300
14178WAT     H242777   2.401   3.905   4.271
14179WAT      O42778   7.015   4.679   9.225
14179WAT     H142779   7.072   4.630   9.291
14179WAT     H242780   7.066   4.690   9.140
14180WAT      O42781   2.946   7.920   3.483
14180WAT     H142782   2.927   8.017   3.499
14180WAT     H242783   2.989   7.880   3.564
14181WAT      O42784   3.287   3.377   7.348
14181WAT     H142785   3.229   3.342   7.274
14181WAT     H242786   3.244   3.357   7.436
14182WAT      O42787   2.897   5.394   4.872
14182WAT     H142788   2.839   5.454   4.816
14182WAT     H242789   2.841   5.343   4.936
14183WAT      O42790   9.169   5.689   4.327
14183WAT     H142791   9.241   5.665   4.262
14183WAT     H242792   9.132   5.780   4.304
14184WAT      O42793   2.965   5.171   5.240
14184WAT     H142794   2.931   5.209   5.326
14184WAT     H242795   3.065   5.181   5.236
14185WAT      O42796   2.893   2.163   3.836
14185WAT     H142797   2.831   2.094   3.799
14185WAT     H242798   2.840   2.231   3.886
14186WAT      O42799   3.291   7.465   5.225
14186WAT     H142800   3.255   7.375   5.251
14186WAT     H242801   3.219   7.534   5.238
14187WAT      O42802   2.954   3.237   6.209
14187WAT     H142803   3.029   3.267   6.148
14187WAT     H242804   2.969   3.274   6.300
14188WAT      O42805   9.855   7.941   3.024
14188WAT     H142806   9.813   7.895   2.945
14188WAT     H242807   9.946   7.902   3.040
14189WAT      O42808   3.089   6.775   8.429
14189WAT     H142809   2.999   6.805   8.396
14189WAT     H242810   3.080   6.685   8.471
14190WAT      O42811   4.449   5.741   4.237
14190WAT     H142812   4.370   5.753   4.177
14190WAT     H242813   4.440   5.655   4.287
14191WAT      O42814   7.550   0.582   5.032
14191WAT     H142815   7.452   0.559   5.028
14191WAT     H242816   7.603   0.512   4.985
14192WAT      O42817   6.165   6.488   4.211
14192WAT     H142818   6.209   6.407   4.248
14192WAT     H242819   6.141   6.550   4.286
14193WAT      O42820   1.662   1.884   1.400
14193WAT     H142821   1.676   1.841   1.489
14193WAT     H242822   1.726   1.845   1.334
14194WAT      O42823   1.132   8.648   0.423
14194WAT     H142824   1.091   8.561   0.395
14194WAT     H242825   1.101   8.721   0.362
14195WAT      O42826   2.869   9.154   1.590
14195WAT     H142827   2.966   9.157   1.611
14195WAT     H242828   2.856   9.125   1.495
14196WAT      O42829   1.650   7.637   9.464
14196WAT     H142830   1.566   7.584   9.468
14196WAT     H242831   1.633   7.730   9.496
14197WAT      O42832   7.592   1.551   5.081
14197WAT     H142833   7.647   1.503   5.012
14197WAT     H242834   7.617   1.519   5.172
14198WAT      O42835   2.067   3.689   7.444
14198WAT     H142836   2.046   3.594   7.467
14198WAT     H242837   1.986   3.732   7.404
14199WAT      O42838   9.466   9.386   6.687
14199WAT     H142839   9.485   9.484   6.677
14199WAT     H242840   9.480   9.360   6.783
14200WAT      O42841   5.303   6.117   5.697
14200WAT     H142842   5.266   6.060   5.770
14200WAT     H242843   5.363   6.062   5.639
14201WAT      O42844   9.356   4.094   7.632
14201WAT     H142845   9.420   4.032   7.677
14201WAT     H242846   9.302   4.143   7.700
14202WAT      O42847   6.753   8.712   7.004
14202WAT     H142848   6.763   8.614   7.022
14202WAT     H242849   6.703   8.755   7.079
14203WAT      O42850   1.246   1.783   1.908
14203WAT     H142851   1.285   1.699   1.945
14203WAT     H242852   1.274   1.794   1.813
14204WAT      O42853   7.166   6.145   7.177
14204WAT     H142854   7.078   6.097   7.174
14204WAT     H242855   7.234   6.087   7.220
14205WAT      O42856   3.737   6.634   9.721
14205WAT     H142857   3.701   6.711   9.774
14205WAT     H242858   3.754   6.664   9.627
14206WAT      O42859   4.764   0.424   7.467
14206WAT     H142860   4.704   0.391   7.395
14206WAT     H242861   4.744   0.375   7.552
14207WAT      O42862   8.745   5.163   7.158
14207WAT     H142863   8.782   5.082   7.113
14207WAT     H242864   8.653   5.143   7.192
14208WAT      O42865   0.040   0.601   4.374
14208WAT     H142866   0.077   0.510   4.354
14208WAT     H242867   0.023   0.609   4.472
14209WAT      O42868   0.728   5.313   4.571
14209WAT     H142869   0.808   5.337   4.627
14209WAT     H242870   0.649   5.366   4.601
14210WAT      O42871   4.656   0.793   7.862
14210WAT     H142872   4.695   0.871   7.912
14210WAT     H242873   4.700   0.709   7.892
14211WAT      O42874   6.102   2.386   1.687
14211WAT     H142875   6.014   2.341   1.700
14211WAT     H242876   6.093   2.483   1.712
14212WAT      O42877   3.811   5.332   6.726
14212WAT     H142878   3.884   5.359   6.664
14212WAT     H242879   3.780   5.240   6.703
14213WAT      O42880   4.882   5.738   7.688
14213WAT     H142881   4.830   5.736   7.774
14213WAT     H242882   4.935   5.653   7.680
14214WAT      O42883   3.458   4.079   7.511
14214WAT     H142884   3.430   4.033   7.427
14214WAT     H242885   3.500   4.167   7.488
14215WAT      O42886   8.649   6.244   4.476
14215WAT     H142887   8.660   6.214   4.381
14215WAT     H242888   8.737   6.236   4.523
14216WAT      O42889   3.357   8.691   1.884
14216WAT     H142890   3.358   8.789   1.865
14216WAT     H242891   3.356   8.676   1.983
14217WAT      O42892   8.676   4.814   6.931
14217WAT     H142893   8.749   4.880   6.913
14217WAT     H242894   8.680   4.786   7.027
14218WAT      O42895   7.773   7.120   0.609
14218WAT     H142896   7.847   7.119   0.677
14218WAT     H242897   7.731   7.029   0.606
14219WAT      O42898   5.217   8.147   4.122
14219WAT     H142899   5.218   8.224   4.058
14219WAT     H242900   5.224   8.062   4.070
14220WAT      O42901   6.601   2.151   3.250
14220WAT     H142902   6.696   2.120   3.259
14220WAT     H242903   6.589   2.238   3.298
14221WAT      O42904   5.312   2.994   4.875
14221WAT     H142905   5.401   2.950   4.866
14221WAT     H242906   5.276   2.978   4.967
14222WAT      O42907   0.378   1.023   8.123
14222WAT     H142908   0.309   1.090   8.150
14222WAT     H242909   0.468   1.057   8.150
14223WAT      O42910   7.333   5.026   9.090
14223WAT     H142911   7.261   5.091   9.066
14223WAT     H242912   7.389   5.064   9.164
14224WAT      O42913   6.135   2.861   9.747
14224WAT     H142914   6.166   2.870   9.842
14224WAT     H242915   6.075   2.782   9.739
14225WAT      O42916   5.699   8.687   5.672
14225WAT     H142917   5.632   8.613   5.664
14225WAT     H242918   5.737   8.707   5.582
14226WAT      O42919   3.223   4.914   7.671
14226WAT     H142920   3.157   4.977   7.711
14226WAT     H242921   3.265   4.859   7.743
14227WAT      O42922   5.523   4.743   6.988
14227WAT     H142923   5.604   4.768   7.042
14227WAT     H242924   5.545   4.745   6.891
14228WAT      O42925   2.925   4.323   0.693
14228WAT     H142926   2.866   4.400   0.666
14228WAT     H242927   2.972   4.288   0.612
14229WAT      O42928   6.687   5.570   9.214
14229WAT     H142929   6.710   5.511   9.291
14229WAT     H242930   6.594   5.605   9.227
14230WAT      O42931   3.246   5.132   5.283
14230WAT     H142932   3.256   5.131   5.383
14230WAT     H242933   3.332   5.162   5.242
14231WAT      O42934   6.468   2.495   4.614
14231WAT     H142935   6.396   2.565   4.615
14231WAT     H242936   6.531   2.511   4.690
14232WAT      O42937   9.761   3.680   6.862
14232WAT     H142938   9.857   3.656   6.846
14232WAT     H242939   9.727   3.627   6.940
14233WAT      O42940   8.078   8.467   0.509
14233WAT     H142941   8.165   8.421   0.491
14233WAT     H242942   8.052   8.522   0.430
14234WAT      O42943   2.130   7.874   9.749
14234WAT     H142944   2.059   7.819   9.707
14234WAT     H242945   2.194   7.905   9.678
14235WAT      O42946   4.137   3.846   2.325
14235WAT     H142947   4.197   3.923   2.344
14235WAT     H242948   4.064   3.843   2.394
14236WAT      O42949   9.496   7.763   9.742
14236WAT     H142950   9.505   7.791   9.838
14236WAT     H242951   9.504   7.664   9.735
14237WAT      O42952   4.697   4.741   7.848
14237WAT     H142953   4.701   4.813   7.778
14237WAT     H242954   4.761   4.668   7.824
14238WAT      O42955   3.279   5.407   4.047
14238WAT     H142956   3.194   5.355   4.053
14238WAT     H242957   3.307   5.416   3.951
14239WAT      O42958   6.544   9.727   8.207
14239WAT     H142959   6.576   9.654   8.266
14239WAT     H242960   6.602   9.730   8.125
14240WAT      O42961   1.837   8.006   9.685
14240WAT     H142962   1.869   7.912   9.681
14240WAT     H242963   1.908   8.064   9.726
14241WAT      O42964   2.917   5.987   5.826
14241WAT     H142965   2.876   6.012   5.739
14241WAT     H242966   3.014   6.011   5.826
14242WAT      O42967   1.253   6.075   0.291
14242WAT     H142968   1.219   6.128   0.213
14242WAT     H242969   1.194   5.995   0.306
14243WAT      O42970   5.145   6.748   9.140
14243WAT     H142971   5.127   6.668   9.197
14243WAT     H242972   5.239   6.779   9.155
14244WAT      O42973   2.592   9.209   7.565
14244WAT     H142974   2.648   9.268   7.624
14244WAT     H242975   2.592   9.245   7.472
14245WAT      O42976   6.921   9.059   1.576
14245WAT     H142977   6.988   8.989   1.554
14245WAT     H242978   6.918   9.127   1.502
14246WAT      O42979   6.958   0.256   6.690
14246WAT     H142980   7.027   0.296   6.630
14246WAT     H242981   6.907   0.185   6.641
14247WAT      O42982   3.316   3.947   7.686
14247WAT     H142983   3.233   3.999   7.708
14247WAT     H242984   3.365   3.992   7.611
14248WAT      O42985   0.256   6.999   1.204
14248WAT     H142986   0.287   7.091   1.179
14248WAT     H242987   0.260   6.940   1.124
14249WAT      O42988   7.569   5.172   2.949
14249WAT     H142989   7.631   5.168   2.870
14249WAT     H242990   7.617   5.211   3.027
14250WAT      O42991   0.897   4.157   2.741
14250WAT     H142992   0.856   4.138   2.652
14250WAT     H242993   0.833   4.210   2.796
14251WAT      O42994   5.245   8.852   0.920
14251WAT     H142995   5.211   8.944   0.900
14251WAT     H242996   5.333   8.859   0.969
14252WAT      O42997   3.841   5.443   3.271
14252WAT     H142998   3.925   5.495   3.255
14252WAT     H242999   3.824   5.437   3.369
14253WAT      O43000   3.918   4.741   3.690
14253WAT     H143001   3.899   4.701   3.600
14253WAT     H243002   3.959   4.672   3.749
14254WAT      O43003   2.226   5.032   4.063
14254WAT     H143004   2.271   4.946   4.040
14254WAT     H243005   2.294   5.104   4.076
14255WAT      O43006   6.265   8.123   9.833
14255WAT     H143007   6.267   8.053   9.762
14255WAT     H243008   6.303   8.208   9.797
14256WAT      O43009   7.226   7.336   5.733
14256WAT     H143010   7.320   7.357   5.760
14256WAT     H243011   7.195   7.255   5.781
14257WAT      O43012   0.136   9.287   4.516
14257WAT     H143013   0.138   9.208   4.577
14257WAT     H243014   0.193   9.360   4.555
14258WAT      O43015   6.859   2.098   3.215
14258WAT     H143016   6.835   2.005   3.242
14258WAT     H243017   6.895   2.098   3.122
14259WAT      O43018   1.455   8.646   8.480
14259WAT     H143019   1.489   8.673   8.571
14259WAT     H243020   1.405   8.723   8.440
14260WAT      O43021   8.952   9.538   1.211
14260WAT     H143022   8.892   9.523   1.132
14260WAT     H243023   8.900   9.526   1.295
14261WAT      O43024   0.949   4.511   6.995
14261WAT     H143025   0.979   4.604   7.016
14261WAT     H243026   1.029   4.451   6.988
14262WAT      O43027   3.363   8.786   0.845
14262WAT     H143028   3.377   8.881   0.872
14262WAT     H243029   3.367   8.778   0.746
14263WAT      O43030   2.509   3.252   3.332
14263WAT     H143031   2.546   3.262   3.240
14263WAT     H243032   2.526   3.335   3.384
14264WAT      O43033   8.873   5.397   9.103
14264WAT     H143034   8.801   5.387   9.172
14264WAT     H243035   8.902   5.493   9.100
14265WAT      O43036   8.848   1.931   3.807
14265WAT     H143037   8.837   1.868   3.885
14265WAT     H243038   8.944   1.959   3.801
14266WAT      O43039   3.126   1.712   4.000
14266WAT     H143040   3.034   1.738   4.031
14266WAT     H243041   3.193   1.744   4.067
14267WAT      O43042   7.810   4.132   1.031
14267WAT     H143043   7.870   4.166   0.959
14267WAT     H243044   7.715   4.143   1.003
14268WAT      O43045   7.200   7.848   8.741
14268WAT     H143046   7.218   7.943   8.715
14268WAT     H243047   7.222   7.836   8.838
14269WAT      O43048   7.113   3.385   4.478
14269WAT     H143049   7.157   3.298   4.458
14269WAT     H243050   7.073   3.422   4.394
14270WAT      O43051   8.633   8.097   3.324
14270WAT     H143052   8.540   8.067   3.345
14270WAT     H243053   8.694   8.019   3.325
14271WAT      O43054   3.967   9.832   5.346
14271WAT     H143055   4.050   9.781   5.364
14271WAT     H243056   3.906   9.778   5.288
14272WAT      O43057   6.906   1.635   8.228
14272WAT     H143058   7.000   1.656   8.255
14272WAT     H243059   6.907   1.564   8.157
14273WAT      O43060   7.092   8.787   3.678
14273WAT     H143061   7.087   8.847   3.759
14273WAT     H243062   7.175   8.732   3.684
14274WAT      O43063   9.205   4.094   3.214
14274WAT     H143064   9.119   4.139   3.190
14274WAT     H243065   9.245   4.052   3.133
14275WAT      O43066   7.772   4.060   7.666
14275WAT     H143067   7.835   4.118   7.718
14275WAT     H243068   7.693   4.114   7.637
14276WAT      O43069   0.385   7.559   6.097
14276WAT     H143070   0.337   7.619   6.162
14276WAT     H243071   0.341   7.566   6.007
14277WAT      O43072   4.029   7.929   2.905
14277WAT     H143073   4.023   7.889   2.996
14277WAT     H243074   4.121   7.914   2.868
14278WAT      O43075   4.969   5.017   5.522
14278WAT     H143076   4.994   5.109   5.552
14278WAT     H243077   4.878   5.019   5.482
14279WAT      O43078   9.791   2.096   3.974
14279WAT     H143079   9.760   2.087   4.068
14279WAT     H243080   9.805   2.005   3.934
14280WAT      O43081   0.786   8.696   2.625
14280WAT     H143082   0.849   8.710   2.701
14280WAT     H243083   0.798   8.604   2.588
14281WAT      O43084   0.025   8.771   8.743
14281WAT     H143085  -0.025   8.688   8.768
14281WAT     H243086   0.102   8.747   8.684
14282WAT      O43087   0.078   2.388   3.641
14282WAT     H143088   0.012   2.388   3.716
14282WAT     H243089   0.128   2.301   3.639
14283WAT      O43090   7.738   5.697   0.876
14283WAT     H143091   7.733   5.789   0.914
14283WAT     H243092   7.723   5.701   0.777
14284WAT      O43093   0.513   4.762   1.867
14284WAT     H143094   0.474   4.844   1.826
14284WAT     H243095   0.523   4.691   1.796
14285WAT      O43096   5.736   0.950   6.430
14285WAT     H143097   5.747   0.894   6.348
14285WAT     H243098   5.797   0.917   6.502
14286WAT      O43099   3.029   4.115   5.960
14286WAT     H143100   2.946   4.068   5.930
14286WAT     H243101   3.109   4.060   5.936
14287WAT      O43102   7.009   2.839   7.135
14287WAT     H143103   6.996   2.742   7.117
14287WAT     H243104   6.948   2.893   7.076
14288WAT      O43105   8.559   0.139   7.759
14288WAT     H143106   8.642   0.095   7.794
14288WAT     H243107   8.560   0.138   7.659
14289WAT      O43108   0.635   2.992   6.666
14289WAT     H143109   0.667   2.954   6.579
14289WAT     H243110   0.646   2.923   6.738
14290WAT      O43111   1.754   5.933   4.207
14290WAT     H143112   1.710   5.902   4.123
14290WAT     H243113   1.690   5.922   4.284
14291WAT      O43114   1.267   7.021   0.851
14291WAT     H143115   1.204   7.070   0.911
14291WAT     H243116   1.328   6.964   0.906
14292WAT      O43117   0.125   7.221   5.815
14292WAT     H143118   0.078   7.176   5.891
14292WAT     H243119   0.178   7.153   5.764
14293WAT      O43120   0.644   6.170   2.606
14293WAT     H143121   0.677   6.264   2.593
14293WAT     H243122   0.718   6.114   2.645
14294WAT      O43123   8.624   8.675   8.438
14294WAT     H143124   8.639   8.627   8.524
14294WAT     H243125   8.698   8.654   8.374
14295WAT      O43126   2.274   1.012   3.649
14295WAT     H143127   2.291   0.990   3.553
14295WAT     H243128   2.340   0.963   3.706
14296WAT      O43129   7.503   8.731   6.522
14296WAT     H143130   7.558   8.649   6.539
14296WAT     H243131   7.426   8.708   6.464
14297WAT      O43132   2.345   6.226   6.740
14297WAT     H143133   2.254   6.265   6.755
14297WAT     H243134   2.411   6.300   6.722
14298WAT      O43135   7.935   3.063   2.185
14298WAT     H143136   7.849   3.080   2.232
14298WAT     H243137   7.985   3.150   2.174
14299WAT      O43138   3.541   1.580   6.512
14299WAT     H143139   3.474   1.654   6.517
14299WAT     H243140   3.546   1.546   6.418
14300WAT      O43141   3.969   3.433   0.436
14300WAT     H143142   3.950   3.335   0.427
14300WAT     H243143   3.929   3.482   0.358
14301WAT      O43144   4.184   1.771   6.368
14301WAT     H143145   4.186   1.755   6.467
14301WAT     H243146   4.112   1.715   6.327
14302WAT      O43147   8.098   5.488   8.907
14302WAT     H143148   8.020   5.442   8.864
14302WAT     H243149   8.131   5.433   8.983
14303WAT      O43150   8.576   4.742   5.042
14303WAT     H143151   8.478   4.755   5.026
14303WAT     H243152   8.627   4.781   4.965
14304WAT      O43153   5.953   0.209   9.880
14304WAT     H143154   6.022   0.236   9.813
14304WAT     H243155   5.981   0.124   9.924
14305WAT      O43156   9.114   4.499   1.346
14305WAT     H143157   9.122   4.399   1.342
14305WAT     H243158   9.037   4.524   1.405
14306WAT      O43159   6.018   1.650   6.741
14306WAT     H143160   6.103   1.652   6.689
14306WAT     H243161   6.000   1.739   6.782
14307WAT      O43162   6.531   5.141   0.500
14307WAT     H143163   6.438   5.170   0.519
14307WAT     H243164   6.538   5.114   0.404
14308WAT      O43165   3.024   7.256   7.337
14308WAT     H143166   2.960   7.260   7.414
14308WAT     H243167   3.080   7.339   7.336
14309WAT      O43168   5.493   5.441   1.134
14309WAT     H143169   5.514   5.363   1.193
14309WAT     H243170   5.575   5.465   1.082
14310WAT      O43171   4.355   5.110   2.197
14310WAT     H143172   4.319   5.132   2.288
14310WAT     H243173   4.452   5.135   2.193
14311WAT      O43174   5.012   9.028   1.776
14311WAT     H143175   5.026   9.030   1.875
14311WAT     H243176   4.921   8.994   1.755
14312WAT      O43177   6.816   3.186   7.441
14312WAT     H143178   6.806   3.222   7.533
14312WAT     H243179   6.820   3.086   7.445
14313WAT      O43180   6.810   3.903   3.503
14313WAT     H143181   6.756   3.953   3.571
14313WAT     H243182   6.875   3.843   3.550
14314WAT      O43183   6.067   7.042   5.669
14314WAT     H143184   6.082   6.998   5.581
14314WAT     H243185   6.118   6.993   5.740
14315WAT      O43186   2.860   0.265   3.551
14315WAT     H143187   2.787   0.254   3.483
14315WAT     H243188   2.833   0.221   3.636
14316WAT      O43189   7.231   8.491   1.698
14316WAT     H143190   7.241   8.413   1.636
14316WAT     H243191   7.134   8.514   1.707
14317WAT      O43192   5.097   0.649   3.002
14317WAT     H143193   5.000   0.627   3.007
14317WAT     H243194   5.108   0.742   2.967
14318WAT      O43195   8.700   0.734   1.044
14318WAT     H143196   8.749   0.817   1.070
14318WAT     H243197   8.664   0.689   1.126
14319WAT      O43198   7.028   8.955   7.140
14319WAT     H143199   7.119   8.994   7.151
14319WAT     H243200   6.973   8.974   7.221
14320WAT      O43201   5.885   0.753   6.535
14320WAT     H143202   5.943   0.686   6.490
14320WAT     H243203   5.815   0.706   6.590
14321WAT      O43204   5.649   8.603   7.745
14321WAT     H143205   5.683   8.661   7.819
14321WAT     H243206   5.596   8.527   7.783
14322WAT      O43207   6.817   3.650   1.665
14322WAT     H143208   6.884   3.616   1.599
14322WAT     H243209   6.734   3.594   1.662
14323WAT      O43210   4.057   7.802   9.462
14323WAT     H143211   4.048   7.884   9.406
14323WAT     H243212   3.996   7.731   9.427
14324WAT      O43213   1.695   8.050   7.688
14324WAT     H143214   1.672   8.025   7.782
14324WAT     H243215   1.662   8.143   7.669
14325WAT      O43216   4.578   3.258   2.585
14325WAT     H143217   4.650   3.260   2.654
14325WAT     H243218   4.617   3.285   2.497
14326WAT      O43219   0.410   6.301   9.861
14326WAT     H143220   0.400   6.306   9.961
14326WAT     H243221   0.462   6.219   9.837
14327WAT      O43222   4.081   8.544   7.963
14327WAT     H143223   4.060   8.632   8.005
14327WAT     H243224   4.001   8.485   7.969
14328WAT      O43225   8.699   3.658   1.632
14328WAT     H143226   8.759   3.643   1.711
14328WAT     H243227   8.724   3.596   1.558
14329WAT      O43228   4.805   3.757   2.307
14329WAT     H143229   4.891   3.723   2.270
14329WAT     H243230   4.746   3.788   2.233
14330WAT      O43231   2.074   6.203   8.809
14330WAT     H143232   2.146   6.163   8.865
14330WAT     H243233   2.107   6.287   8.766
14331WAT      O43234   8.118   2.024   6.354
14331WAT     H143235   8.182   1.948   6.350
14331WAT     H243236   8.037   1.996   6.406
14332WAT      O43237   1.418   0.058   7.158
14332WAT     H143238   1.439   0.115   7.079
14332WAT     H243239   1.443   0.106   7.242
14333WAT      O43240   1.502   2.739   6.672
14333WAT     H143241   1.553   2.666   6.627
14333WAT     H243242   1.423   2.700   6.720
14334WAT      O43243   5.325   6.071   7.408
14334WAT     H143244   5.372   6.017   7.339
14334WAT     H243245   5.391   6.131   7.454
14335WAT      O43246   0.244   4.594   1.251
14335WAT     H143247   0.296   4.580   1.166
14335WAT     H243248   0.229   4.692   1.265
14336WAT      O43249   5.084   7.100   4.213
14336WAT     H143250   5.169   7.146   4.239
14336WAT     H243251   5.015   7.114   4.285
14337WAT      O43252   9.303   9.775   3.555
14337WAT     H143253   9.313   9.710   3.630
14337WAT     H243254   9.208   9.776   3.523
14338WAT      O43255   0.144   3.348   0.470
14338WAT     H143256   0.065   3.364   0.529
14338WAT     H243257   0.201   3.277   0.510
14339WAT      O43258   4.102   5.394   0.963
14339WAT     H143259   4.034   5.338   1.010
14339WAT     H243260   4.056   5.471   0.917
14340WAT      O43261   3.853   8.222   8.762
14340WAT     H143262   3.921   8.286   8.797
14340WAT     H243263   3.898   8.137   8.734
14341WAT      O43264   0.129   2.553   0.262
14341WAT     H143265   0.101   2.647   0.238
14341WAT     H243266   0.229   2.548   0.263
14342WAT      O43267   7.218   8.238   7.443
14342WAT     H143268   7.242   8.199   7.355
14342WAT     H243269   7.275   8.319   7.461
14343WAT      O43270   1.750   4.946   1.415
14343WAT     H143271   1.680   5.011   1.389
14343WAT     H243272   1.727   4.855   1.379
14344WAT      O43273   0.841   7.739   7.692
14344WAT     H143274   0.769   7.713   7.755
14344WAT     H243275   0.930   7.718   7.731
14345WAT      O43276   3.631   6.013   8.039
14345WAT     H143277   3.566   5.993   8.112
14345WAT     H243278   3.722   6.026   8.078
14346WAT      O43279   1.914   0.205   4.188
14346WAT     H143280   1.909   0.110   4.218
14346WAT     H243281   1.914   0.209   4.088
14347WAT      O43282   1.860   9.753   9.058
14347WAT     H143283   1.919   9.679   9.023
14347WAT     H243284   1.916   9.820   9.106
14348WAT      O43285   2.399   5.542   4.566
14348WAT     H143286   2.475   5.539   4.630
14348WAT     H243287   2.394   5.633   4.524
14349WAT      O43288   8.534   4.274   4.609
14349WAT     H143289   8.582   4.235   4.688
14349WAT     H243290   8.544   4.213   4.530
14350WAT      O43291   2.864   4.347   5.966
14350WAT     H143292   2.903   4.433   5.999
14350WAT     H243293   2.933   4.276   5.970
14351WAT      O43294   0.128   2.302   7.751
14351WAT     H143295   0.105   2.237   7.678
14351WAT     H243296   0.160   2.252   7.831
14352WAT      O43297   3.409   5.319   8.402
14352WAT     H143298   3.400   5.332   8.501
14352WAT     H243299   3.477   5.383   8.366
14353WAT      O43300   5.471   6.434   4.036
14353WAT     H143301   5.465   6.464   3.941
14353WAT     H243302   5.487   6.512   4.095
14354WAT      O43303   7.982   3.588   7.270
14354WAT     H143304   7.898   3.636   7.245
14354WAT     H243305   7.966   3.489   7.267
14355WAT      O43306   4.426   7.503   9.803
14355WAT     H143307   4.520   7.493   9.834
14355WAT     H243308   4.409   7.437   9.729
14356WAT      O43309   7.152   4.270   9.224
14356WAT     H143310   7.130   4.229   9.313
14356WAT     H243311   7.218   4.344   9.237
14357WAT      O43312   5.316   3.939   2.621
14357WAT     H143313   5.237   3.922   2.680
14357WAT     H243314   5.397   3.896   2.661
14358WAT      O43315   3.151   3.673   6.972
14358WAT     H143316   3.169   3.624   6.886
14358WAT     H243317   3.235   3.713   7.006
14359WAT      O43318   0.998   5.392   2.550
14359WAT     H143319   1.095   5.372   2.537
14359WAT     H243320   0.944   5.345   2.481
14360WAT      O43321   1.232   5.887   6.584
14360WAT     H143322   1.241   5.935   6.671
14360WAT     H243323   1.306   5.821   6.574
14361WAT      O43324   9.407   9.161   7.389
14361WAT     H143325   9.461   9.097   7.336
14361WAT     H243326   9.365   9.228   7.328
14362WAT      O43327   8.580   9.238   8.745
14362WAT     H143328   8.603   9.215   8.839
14362WAT     H243329   8.639   9.186   8.682
14363WAT      O43330   3.390   7.647   2.736
14363WAT     H143331   3.453   7.687   2.671
14363WAT     H243332   3.371   7.712   2.810
14364WAT      O43333   3.840   5.512   5.848
14364WAT     H143334   3.747   5.498   5.882
14364WAT     H243335   3.837   5.531   5.749
14365WAT      O43336   3.438   3.681   7.980
14365WAT     H143337   3.502   3.750   8.015
14365WAT     H243338   3.401   3.628   8.057
14366WAT      O43339   5.252   1.523   0.532
14366WAT     H143340   5.284   1.456   0.466
14366WAT     H243341   5.330   1.568   0.576
14367WAT      O43342   5.228   4.893   7.524
14367WAT     H143343   5.187   4.817   7.574
14367WAT     H243344   5.219   4.977   7.577
14368WAT      O43345   1.143   8.027   1.268
14368WAT     H143346   1.103   7.971   1.196
14368WAT     H243347   1.169   7.969   1.345
14369WAT      O43348   8.751   6.993   7.966
14369WAT     H143349   8.846   7.002   7.938
14369WAT     H243350   8.695   6.970   7.887
14370WAT      O43351   2.944   8.648   6.570
14370WAT     H143352   2.865   8.594   6.598
14370WAT     H243353   3.019   8.586   6.544
14371WAT      O43354   8.442   7.635   3.366
14371WAT     H143355   8.491   7.594   3.443
14371WAT     H243356   8.388   7.712   3.400
14372WAT      O43357   6.992   0.422   0.122
14372WAT     H143358   6.905   0.416   0.074
14372WAT     H243359   7.005   0.341   0.179
14373WAT      O43360   0.856   5.619   5.333
14373WAT     H143361   0.897   5.585   5.248
14373WAT     H243362   0.815   5.709   5.317
14374WAT      O43363   4.127   2.696   6.562
14374WAT     H143364   4.215   2.654   6.538
14374WAT     H243365   4.088   2.649   6.641
14375WAT      O43366   3.684   7.855   4.460
14375WAT     H143367   3.608   7.818   4.513
14375WAT     H243368   3.656   7.942   4.419
14376WAT      O43369   1.561   7.972   7.907
14376WAT     H143370   1.474   7.999   7.866
14376WAT     H243371   1.545   7.930   7.996
14377WAT      O43372   9.091   0.857   4.698
14377WAT     H143373   9.183   0.878   4.732
14377WAT     H243374   9.024   0.882   4.767
14378WAT      O43375   8.191   2.280   8.032
14378WAT     H143376   8.184   2.327   7.943
14378WAT     H243377   8.103   2.239   8.054
14379WAT      O43378   2.982   8.030   1.534
14379WAT     H143379   3.065   8.075   1.501
14379WAT     H243380   2.958   8.066   1.624
14380WAT      O43381   5.956   9.173   1.243
14380WAT     H143382   5.956   9.210   1.149
14380WAT     H243383   6.034   9.211   1.293
14381WAT      O43384   2.705   8.146   4.899
14381WAT     H143385   2.760   8.179   4.822
14381WAT     H243386   2.766   8.120   4.974
14382WAT      O43387   6.377   3.294   9.452
14382WAT     H143388   6.475   3.287   9.474
14382WAT     H243389   6.366   3.339   9.363
14383WAT      O43390   8.071   3.025   5.696
14383WAT     H143391   8.121   2.942   5.721
14383WAT     H243392   8.005   3.004   5.624
14384WAT      O43393   5.219   1.868   5.335
14384WAT     H143394   5.173   1.806   5.397
14384WAT     H243395   5.311   1.834   5.315
14385WAT      O43396   7.652   5.007   0.393
14385WAT     H143397   7.664   5.001   0.492
14385WAT     H243398   7.691   4.926   0.349
14386WAT      O43399   9.717   2.910   5.137
14386WAT     H143400   9.643   2.937   5.198
14386WAT     H243401   9.796   2.969   5.152
14387WAT      O43402   4.746   2.306   4.385
14387WAT     H143403   4.788   2.371   4.321
14387WAT     H243404   4.817   2.269   4.445
14388WAT      O43405   9.861   5.117   7.562
14388WAT     H143406   9.883   5.069   7.477
14388WAT     H243407   9.946   5.151   7.604
14389WAT      O43408   9.527   2.733   7.838
14389WAT     H143409   9.620   2.704   7.859
14389WAT     H243410   9.506   2.817   7.888
14390WAT      O43411   5.260   4.725   1.424
14390WAT     H143412   5.266   4.815   1.467
14390WAT     H243413   5.284   4.654   1.491
14391WAT      O43414   2.845   4.336   9.339
14391WAT     H143415   2.893   4.339   9.427
14391WAT     H243416   2.779   4.411   9.335
14392WAT      O43417   1.568   7.273   3.316
14392WAT     H143418   1.617   7.266   3.229
14392WAT     H243419   1.618   7.332   3.379
14393WAT      O43420   6.822   3.557   0.761
14393WAT     H143421   6.892   3.521   0.699
14393WAT     H243422   6.747   3.596   0.707
14394WAT      O43423   4.091   7.334   0.870
14394WAT     H143424   4.123   7.386   0.792
14394WAT     H243425   4.141   7.247   0.875
14395WAT      O43426   0.404   8.720   6.131
14395WAT     H143427   0.414   8.621   6.118
14395WAT     H243428   0.413   8.766   6.043
14396WAT      O43429   6.699   8.996   1.752
14396WAT     H143430   6.786   9.018   1.707
14396WAT     H243431   6.659   9.079   1.788
14397WAT      O43432   3.235   9.561   5.358
14397WAT     H143433   3.216   9.659   5.359
14397WAT     H243434   3.267   9.532   5.449
14398WAT      O43435   4.905   9.700   1.203
14398WAT     H143436   4.868   9.632   1.140
14398WAT     H243437   5.000   9.678   1.224
14399WAT      O43438   1.928   7.742   2.425
14399WAT     H143439   1.973   7.695   2.501
14399WAT     H243440   1.835   7.767   2.453
14400WAT      O43441   9.127   8.347   0.089
14400WAT     H143442   9.119   8.302   0.000
14400WAT     H243443   9.112   8.445   0.078
14401WAT      O43444   3.860   6.711   3.764
14401WAT     H143445   3.871   6.616   3.735
14401WAT     H243446   3.915   6.728   3.846
14402WAT      O43447   6.413   2.593   8.363
14402WAT     H143448   6.414   2.604   8.263
14402WAT     H243449   6.425   2.682   8.406
14403WAT      O43450   4.918   2.107   3.387
14403WAT     H143451   4.904   2.116   3.288
14403WAT     H243452   4.911   2.198   3.429
14404WAT      O43453   7.492   2.100   7.477
14404WAT     H143454   7.582   2.059   7.488
14404WAT     H243455   7.478   2.125   7.381
14405WAT      O43456   3.427   2.270   2.761
14405WAT     H143457   3.409   2.212   2.840
14405WAT     H243458   3.492   2.225   2.700
14406WAT      O43459   3.319   8.548   8.337
14406WAT     H143460   3.306   8.635   8.290
14406WAT     H243461   3.411   8.545   8.377
14407WAT      O43462   8.091   0.834   3.892
14407WAT     H143463   8.124   0.901   3.827
14407WAT     H243464   7.992   0.838   3.898
14408WAT      O43465   4.109   1.298   2.083
14408WAT     H143466   4.054   1.309   2.001
14408WAT     H243467   4.120   1.201   2.103
14409WAT      O43468   0.548   0.024   7.308
14409WAT     H143469   0.503  -0.046   7.252
14409WAT     H243470   0.576   0.101   7.250
14410WAT      O43471   0.359   3.393   1.144
14410WAT     H143472   0.392   3.474   1.096
14410WAT     H243473   0.267   3.369   1.112
14411WAT      O43474   4.960   4.194   4.153
14411WAT     H143475   4.949   4.121   4.085
14411WAT     H243476   5.057   4.206   4.174
14412WAT      O43477   8.159   2.366   5.549
14412WAT     H143478   8.121   2.358   5.641
14412WAT     H243479   8.256   2.342   5.550
14413WAT      O43480   4.669   4.519   8.281
14413WAT     H143481   4.762   4.547   8.303
14413WAT     H243482   4.634   4.578   8.207
14414WAT      O43483   1.907   6.736   3.096
14414WAT     H143484   1.832   6.738   3.029
14414WAT     H243485   1.917   6.826   3.137
14415WAT      O43486   8.319   7.470   2.182
14415WAT     H143487   8.311   7.569   2.175
14415WAT     H243488   8.304   7.441   2.276
14416WAT      O43489   0.897   9.131   5.956
14416WAT     H143490   0.972   9.066   5.943
14416WAT     H243491   0.812   9.091   5.921
14417WAT      O43492   3.586   0.336   4.878
14417WAT     H143493   3.682   0.318   4.900
14417WAT     H243494   3.580   0.406   4.808
14418WAT      O43495   6.484   8.838   7.890
14418WAT     H143496   6.428   8.921   7.886
14418WAT     H243497   6.579   8.862   7.912
14419WAT      O43498   3.333   5.485   6.766
14419WAT     H143499   3.353   5.583   6.760
14419WAT     H243500   3.258   5.471   6.831
14420WAT      O43501   7.515   4.637   8.680
14420WAT     H143502   7.518   4.609   8.584
14420WAT     H243503   7.500   4.557   8.738
14421WAT      O43504   9.663   1.003   1.097
14421WAT     H143505   9.585   0.945   1.121
14421WAT     H243506   9.702   1.043   1.180
14422WAT      O43507   6.835   4.755   4.271
14422WAT     H143508   6.840   4.750   4.171
14422WAT     H243509   6.893   4.830   4.303
14423WAT      O43510   8.450   6.097   9.875
14423WAT     H143511   8.436   6.000   9.856
14423WAT     H243512   8.433   6.114   9.972
14424WAT      O43513   5.036   1.804   2.588
14424WAT     H143514   5.060   1.887   2.538
14424WAT     H243515   4.959   1.759   2.544
14425WAT      O43516   5.249   9.373   3.269
14425WAT     H143517   5.296   9.352   3.355
14425WAT     H243518   5.261   9.297   3.205
14426WAT      O43519   7.610   9.173   4.626
14426WAT     H143520   7.555   9.206   4.549
14426WAT     H243521   7.693   9.229   4.633
14427WAT      O43522   2.397   0.408   9.133
14427WAT     H143523   2.341   0.337   9.177
14427WAT     H243524   2.343   0.491   9.123
14428WAT      O43525   6.234   8.143   4.621
14428WAT     H143526   6.208   8.223   4.566
14428WAT     H243527   6.214   8.059   4.570
14429WAT      O43528   0.858   7.934   4.008
14429WAT     H143529   0.806   8.007   3.962
14429WAT     H243530   0.864   7.954   4.106
14430WAT      O43531   7.046   4.361   4.286
14430WAT     H143532   6.969   4.400   4.236
14430WAT     H243533   7.108   4.316   4.222
14431WAT      O43534   1.229   4.623   3.754
14431WAT     H143535   1.243   4.542   3.697
14431WAT     H243536   1.316   4.671   3.765
14432WAT      O43537   9.503   1.083   0.110
14432WAT     H143538   9.440   1.046   0.179
14432WAT     H243539   9.584   1.120   0.156
14433WAT      O43540   7.093   5.736   6.470
14433WAT     H143541   7.032   5.782   6.534
14433WAT     H243542   7.186   5.770   6.482
14434WAT      O43543   1.418   7.538   9.492
14434WAT     H143544   1.409   7.482   9.574
14434WAT     H243545   1.347   7.513   9.426
14435WAT      O43546   7.205   8.528   2.727
14435WAT     H143547   7.135   8.523   2.655
14435WAT     H243548   7.195   8.449   2.788
14436WAT      O43549   4.272   8.186   7.783
14436WAT     H143550   4.208   8.109   7.786
14436WAT     H243551   4.252   8.250   7.857
14437WAT      O43552   6.720   4.091   3.697
14437WAT     H143553   6.731   4.173   3.642
14437WAT     H243554   6.624   4.079   3.722
14438WAT      O43555   2.637   6.695   2.209
14438WAT     H143556   2.673   6.620   2.265
14438WAT     H243557   2.620   6.662   2.116
14439WAT      O43558   2.173   8.047   6.302
14439WAT     H143559   2.269   8.045   6.275
14439WAT     H243560   2.142   8.142   6.309
14440WAT      O43561   0.609   9.677   6.116
14440WAT     H143562   0.707   9.657   6.114
14440WAT     H243563   0.594   9.773   6.093
14441WAT      O43564   5.875   1.588   5.071
14441WAT     H143565   5.966   1.621   5.099
14441WAT     H243566   5.870   1.587   4.971
14442WAT      O43567   8.449   6.466   9.131
14442WAT     H143568   8.427   6.438   9.224
14442WAT     H243569   8.548   6.468   9.119
14443WAT      O43570   3.404   0.308   7.661
14443WAT     H143571   3.481   0.244   7.667
14443WAT     H243572   3.319   0.257   7.645
14444WAT      O43573   6.358   8.160   8.341
14444WAT     H143574   6.443   8.136   8.295
14444WAT     H243575   6.376   8.232   8.408
14445WAT      O43576   1.869   3.840   6.973
14445WAT     H143577   1.834   3.934   6.969
14445WAT     H243578   1.891   3.809   6.881
14446WAT      O43579   5.605   4.935   1.636
14446WAT     H143580   5.674   4.864   1.654
14446WAT     H243581   5.643   5.024   1.660
14447WAT      O43582   6.327   0.608   8.942
14447WAT     H143583   6.286   0.582   9.029
14447WAT     H243584   6.255   0.633   8.877
14448WAT      O43585   1.898   3.110   6.874
14448WAT     H143586   1.836   3.033   6.892
14448WAT     H243587   1.854   3.195   6.901
14449WAT      O43588   6.196   2.740   9.491
14449WAT     H143589   6.166   2.777   9.579
14449WAT     H243590   6.257   2.805   9.446
14450WAT      O43591   2.824   2.699   9.053
14450WAT     H143592   2.797   2.621   8.997
14450WAT     H243593   2.787   2.688   9.145
14451WAT      O43594   6.603   4.061   2.742
14451WAT     H143595   6.617   3.971   2.783
14451WAT     H243596   6.660   4.070   2.660
14452WAT      O43597   4.235   5.640   5.589
14452WAT     H143598   4.330   5.609   5.584
14452WAT     H243599   4.208   5.654   5.684
14453WAT      O43600   6.960   6.122   5.371
14453WAT     H143601   7.021   6.044   5.380
14453WAT     H243602   6.977   6.187   5.446
14454WAT      O43603   9.439   7.157   9.075
14454WAT     H143604   9.443   7.191   9.169
14454WAT     H243605   9.520   7.102   9.055
14455WAT      O43606   0.167   7.423   4.999
14455WAT     H143607   0.123   7.335   5.016
14455WAT     H243608   0.265   7.408   4.984
14456WAT      O43609   6.512   0.664   1.046
14456WAT     H143610   6.498   0.609   0.963
14456WAT     H243611   6.586   0.729   1.032
14457WAT      O43612   9.750   9.243   8.057
14457WAT     H143613   9.800   9.301   7.992
14457WAT     H243614   9.765   9.276   8.150
14458WAT      O43615   3.037   4.542   0.855
14458WAT     H143616   3.109   4.514   0.918
14458WAT     H243617   3.020   4.468   0.789
14459WAT      O43618   9.059   1.580   2.999
14459WAT     H143619   9.143   1.633   2.997
14459WAT     H243620   9.072   1.494   2.949
14460WAT      O43621   6.288   9.278   4.389
14460WAT     H143622   6.337   9.191   4.379
14460WAT     H243623   6.337   9.349   4.340
14461WAT      O43624   9.034   1.166   2.594
14461WAT     H143625   9.008   1.222   2.515
14461WAT     H243626   9.130   1.139   2.585
14462WAT      O43627   6.021   6.158   2.298
14462WAT     H143628   5.992   6.160   2.394
14462WAT     H243629   6.048   6.250   2.269
14463WAT      O43630   4.864   3.285   9.355
14463WAT     H143631   4.952   3.239   9.371
14463WAT     H243632   4.872   3.382   9.381
14464WAT      O43633   0.332   1.542   4.145
14464WAT     H143634   0.304   1.608   4.076
14464WAT     H243635   0.251   1.511   4.195
14465WAT      O43636   6.044   3.924   5.779
14465WAT     H143637   5.962   3.945   5.726
14465WAT     H243638   6.020   3.919   5.876
14466WAT      O43639   5.269   7.191   2.027
14466WAT     H143640   5.300   7.189   1.932
14466WAT     H243641   5.240   7.284   2.051
14467WAT      O43642   5.851   9.793   4.911
14467WAT     H143643   5.775   9.837   4.864
14467WAT     H243644   5.825   9.773   5.006
14468WAT      O43645   2.446   1.435   8.028
14468WAT     H143646   2.358   1.481   8.039
14468WAT     H243647   2.431   1.340   8.003
14469WAT      O43648   4.955   8.983   5.926
14469WAT     H143649   5.021   9.032   5.869
14469WAT     H243650   4.865   9.023   5.915
14470WAT      O43651   5.223   6.382   9.134
14470WAT     H143652   5.159   6.428   9.195
14470WAT     H243653   5.274   6.451   9.081
14471WAT      O43654   9.194   2.469   9.148
14471WAT     H143655   9.224   2.512   9.233
14471WAT     H243656   9.101   2.499   9.126
14472WAT      O43657   3.899   0.846   5.218
14472WAT     H143658   3.870   0.758   5.254
14472WAT     H243659   3.955   0.832   5.137
14473WAT      O43660   9.304   3.567   7.955
14473WAT     H143661   9.359   3.579   7.873
14473WAT     H243662   9.214   3.609   7.942
14474WAT      O43663   0.886   1.373   0.911
14474WAT     H143664   0.788   1.379   0.932
14474WAT     H243665   0.910   1.278   0.892
14475WAT      O43666   8.628   8.277   1.013
14475WAT     H143667   8.701   8.317   1.068
14475WAT     H243668   8.552   8.342   1.005
14476WAT      O43669   9.425   4.766   8.471
14476WAT     H143670   9.330   4.767   8.442
14476WAT     H243671   9.433   4.721   8.559
14477WAT      O43672   5.395   1.580   3.245
14477WAT     H143673   5.477   1.557   3.297
14477WAT     H243674   5.411   1.664   3.192
14478WAT      O43675   5.668   2.715   3.847
14478WAT     H143676   5.571   2.738   3.842
14478WAT     H243677   5.722   2.798   3.863
14479WAT      O43678   0.370   4.274   1.545
14479WAT     H143679   0.366   4.184   1.502
14479WAT     H243680   0.284   4.293   1.592
14480WAT      O43681   1.484   8.682   1.094
14480WAT     H143682   1.440   8.642   1.014
14480WAT     H243683   1.524   8.610   1.150
14481WAT      O43684   3.968   9.725   8.410
14481WAT     H143685   4.018   9.811   8.421
14481WAT     H243686   3.870   9.742   8.419
14482WAT      O43687   7.957   5.114   2.986
14482WAT     H143688   8.020   5.050   3.030
14482WAT     H243689   7.937   5.190   3.048
14483WAT      O43690   7.660   6.958   3.237
14483WAT     H143691   7.599   6.899   3.290
14483WAT     H243692   7.755   6.937   3.261
14484WAT      O43693   3.197   4.127   0.108
14484WAT     H143694   3.120   4.078   0.148
14484WAT     H243695   3.241   4.069   0.039
14485WAT      O43696   7.312   5.331   8.212
14485WAT     H143697   7.400   5.306   8.173
14485WAT     H243698   7.239   5.314   8.145
14486WAT      O43699   9.612   0.504   4.342
14486WAT     H143700   9.543   0.461   4.284
14486WAT     H243701   9.569   0.537   4.426
14487WAT      O43702   0.260   1.534   0.514
14487WAT     H143703   0.316   1.530   0.432
14487WAT     H243704   0.170   1.494   0.496
14488WAT      O43705   4.253   1.835   8.862
14488WAT     H143706   4.345   1.843   8.899
14488WAT     H243707   4.187   1.834   8.936
14489WAT      O43708   4.006   5.948   5.729
14489WAT     H143709   4.085   5.958   5.789
14489WAT     H243710   4.019   5.869   5.670
14490WAT      O43711   8.100   4.749   5.997
14490WAT     H143712   8.071   4.837   6.036
14490WAT     H243713   8.198   4.752   5.979
14491WAT      O43714   6.178   2.562   8.482
14491WAT     H143715   6.243   2.567   8.406
14491WAT     H243716   6.224   2.531   8.564
14492WAT      O43717   9.641   7.086   9.293
14492WAT     H143718   9.715   7.145   9.261
14492WAT     H243719   9.559   7.141   9.311
14493WAT      O43720   0.043   4.572   3.117
14493WAT     H143721   0.029   4.568   3.018
14493WAT     H243722   0.119   4.635   3.138
14494WAT      O43723   7.130   3.877   1.881
14494WAT     H143724   7.140   3.953   1.817
14494WAT     H243725   7.041   3.882   1.927
14495WAT      O43726   2.362   2.217   0.274
14495WAT     H143727   2.334   2.144   0.212
14495WAT     H243728   2.370   2.181   0.367
14496WAT      O43729   5.219   1.783   6.759
14496WAT     H143730   5.156   1.707   6.773
14496WAT     H243731   5.190   1.837   6.680
14497WAT      O43732   6.618   1.736   0.105
14497WAT     H143733   6.620   1.769   0.199
14497WAT     H243734   6.574   1.646   0.102
14498WAT      O43735   8.302   5.334   0.820
14498WAT     H143736   8.347   5.417   0.852
14498WAT     H243737   8.342   5.305   0.734
14499WAT      O43738   6.579   7.648   1.215
14499WAT     H143739   6.669   7.656   1.172
14499WAT     H243740   6.536   7.562   1.187
14500WAT      O43741   1.877   3.683   1.616
14500WAT     H143742   1.799   3.711   1.672
14500WAT     H243743   1.856   3.697   1.520
14501WAT      O43744   9.554   0.467   2.238
14501WAT     H143745   9.568   0.512   2.326
14501WAT     H243746   9.638   0.475   2.183
14502WAT      O43747   0.161   7.318   3.627
14502WAT     H143748   0.121   7.228   3.613
14502WAT     H243749   0.165   7.338   3.725
14503WAT      O43750   9.598   9.814   8.948
14503WAT     H143751   9.558   9.833   9.038
14503WAT     H243752   9.689   9.774   8.960
14504WAT      O43753   5.573   3.920   7.815
14504WAT     H143754   5.617   3.875   7.737
14504WAT     H243755   5.521   3.998   7.784
14505WAT      O43756   2.315   8.347   4.909
14505WAT     H143757   2.412   8.341   4.935
14505WAT     H243758   2.268   8.412   4.968
14506WAT      O43759   4.172   9.626   8.264
14506WAT     H143760   4.144   9.548   8.209
14506WAT     H243761   4.097   9.652   8.326
14507WAT      O43762   7.045   5.592   7.533
14507WAT     H143763   6.973   5.602   7.601
14507WAT     H243764   7.005   5.600   7.441
14508WAT      O43765   5.490   8.838   3.469
14508WAT     H143766   5.576   8.872   3.431
14508WAT     H243767   5.487   8.854   3.567
14509WAT      O43768   7.562   6.839   0.893
14509WAT     H143769   7.549   6.741   0.907
14509WAT     H243770   7.547   6.862   0.796
14510WAT      O43771   2.772   1.403   6.104
14510WAT     H143772   2.748   1.380   6.198
14510WAT     H243773   2.872   1.401   6.094
14511WAT      O43774   4.612   7.046   3.910
14511WAT     H143775   4.629   6.977   3.980
14511WAT     H243776   4.547   7.113   3.945
14512WAT      O43777   9.553   9.648   9.845
14512WAT     H143778   9.547   9.748   9.846
14512WAT     H243779   9.474   9.611   9.797
14513WAT      O43780   9.208   1.378   3.895
14513WAT     H143781   9.227   1.326   3.811
14513WAT     H243782   9.191   1.314   3.970
14514WAT      O43783   9.869   7.989   9.622
14514WAT     H143784   9.770   7.993   9.636
14514WAT     H243785   9.897   7.895   9.603
14515WAT      O43786   8.338   5.001   9.173
14515WAT     H143787   8.354   4.909   9.138
14515WAT     H243788   8.246   5.006   9.212
14516WAT      O43789   5.976   3.946   7.947
14516WAT     H143790   5.985   3.854   7.909
14516WAT     H243791   6.030   4.009   7.891
14517WAT      O43792   4.009   7.257   0.020
14517WAT     H143793   4.018   7.355   0.033
14517WAT     H243794   3.922   7.237  -0.027
14518WAT      O43795   7.690   5.692   8.340
14518WAT     H143796   7.658   5.786   8.347
14518WAT     H243797   7.780   5.690   8.297
14519WAT      O43798   3.101   0.435   1.340
14519WAT     H143799   3.190   0.452   1.296
14519WAT     H243800   3.115   0.425   1.439
14520WAT      O43801   6.477   5.948   2.218
14520WAT     H143802   6.552   5.934   2.153
14520WAT     H243803   6.433   6.036   2.199
14521WAT      O43804   3.676   8.192   3.531
14521WAT     H143805   3.748   8.248   3.489
14521WAT     H243806   3.598   8.250   3.553
14522WAT      O43807   7.909   6.569   0.822
14522WAT     H143808   7.896   6.513   0.740
14522WAT     H243809   7.891   6.665   0.801
14523WAT      O43810   8.267   5.544   8.305
14523WAT     H143811   8.228   5.621   8.255
14523WAT     H243812   8.340   5.503   8.250
14524WAT      O43813   2.647   5.354   7.778
14524WAT     H143814   2.611   5.270   7.739
14524WAT     H243815   2.640   5.350   7.878
14525WAT      O43816   5.160   0.877   8.999
14525WAT     H143817   5.222   0.911   9.070
14525WAT     H243818   5.188   0.912   8.910
14526WAT      O43819   6.118   0.935   5.361
14526WAT     H143820   6.191   0.919   5.294
14526WAT     H243821   6.067   0.850   5.375
14527WAT      O43822   7.273   2.724   3.231
14527WAT     H143823   7.206   2.649   3.232
14527WAT     H243824   7.365   2.686   3.221
14528WAT      O43825   7.553   0.125   3.223
14528WAT     H143826   7.526   0.036   3.187
14528WAT     H243827   7.552   0.122   3.323
14529WAT      O43828   7.871   0.206   5.099
14529WAT     H143829   7.951   0.208   5.039
14529WAT     H243830   7.792   0.244   5.051
14530WAT      O43831   4.014   4.220   8.729
14530WAT     H143832   3.925   4.181   8.753
14530WAT     H243833   4.083   4.191   8.796
14531WAT      O43834   0.192   7.610   5.215
14531WAT     H143835   0.141   7.694   5.199
14531WAT     H243836   0.201   7.559   5.129
14532WAT      O43837   6.446   6.687   7.975
14532WAT     H143838   6.374   6.645   7.920
14532WAT     H243839   6.472   6.625   8.048
14533WAT      O43840   9.003   8.986   6.166
14533WAT     H143841   8.949   8.948   6.091
14533WAT     H243842   9.077   9.042   6.128
14534WAT      O43843   4.686   4.750   5.346
14534WAT     H143844   4.781   4.782   5.349
14534WAT     H243845   4.675   4.686   5.270
14535WAT      O43846   5.904   2.579   4.027
14535WAT     H143847   5.807   2.604   4.032
14535WAT     H243848   5.914   2.481   4.043
14536WAT      O43849   3.228   2.743   0.952
14536WAT     H143850   3.315   2.781   0.922
14536WAT     H243851   3.171   2.723   0.873
14537WAT      O43852   6.044   4.432   3.242
14537WAT     H143853   5.964   4.468   3.194
14537WAT     H243854   6.108   4.507   3.261
14538WAT      O43855   4.729   6.479   7.289
14538WAT     H143856   4.661   6.550   7.305
14538WAT     H243857   4.805   6.516   7.236
14539WAT      O43858   1.528   8.994   6.025
14539WAT     H143859   1.448   8.975   5.969
14539WAT     H243860   1.533   8.927   6.099
14540WAT      O43861   5.772   5.625   1.425
14540WAT     H143862   5.786   5.532   1.392
14540WAT     H243863   5.732   5.680   1.352
14541WAT      O43864   4.381   4.272   3.007
14541WAT     H143865   4.312   4.218   3.056
14541WAT     H243866   4.337   4.352   2.965
14542WAT      O43867   4.812   6.234   6.509
14542WAT     H143868   4.736   6.229   6.444
14542WAT     H243869   4.783   6.198   6.597
14543WAT      O43870   5.632   8.244   5.354
14543WAT     H143871   5.546   8.246   5.302
14543WAT     H243872   5.629   8.169   5.420
14544WAT      O43873   5.114   9.719   6.769
14544WAT     H143874   5.032   9.715   6.826
14544WAT     H243875   5.087   9.717   6.673
14545WAT      O43876   5.621   8.375   6.595
14545WAT     H143877   5.575   8.391   6.682
14545WAT     H243878   5.672   8.289   6.600
14546WAT      O43879   5.959   3.119   0.142
14546WAT     H143880   5.985   3.198   0.086
14546WAT     H243881   6.041   3.070   0.172
14547WAT      O43882   3.174   6.349   6.164
14547WAT     H143883   3.259   6.342   6.112
14547WAT     H243884   3.096   6.345   6.102
14548WAT      O43885   7.010   3.289   5.973
14548WAT     H143886   6.956   3.251   5.897
14548WAT     H243887   7.066   3.364   5.939
14549WAT      O43888   3.475   0.532   6.414
14549WAT     H143889   3.539   0.456   6.398
14549WAT     H243890   3.392   0.497   6.456
14550WAT      O43891   7.107   8.276   7.948
14550WAT     H143892   7.113   8.299   7.851
14550WAT     H243893   7.013   8.286   7.979
14551WAT      O43894   3.582   3.030   7.293
14551WAT     H143895   3.532   3.100   7.241
14551WAT     H243896   3.621   2.963   7.231
14552WAT      O43897   1.795   1.593   1.884
14552WAT     H143898   1.726   1.521   1.889
14552WAT     H243899   1.876   1.565   1.936
14553WAT      O43900   4.186   0.751   4.403
14553WAT     H143901   4.262   0.715   4.457
14553WAT     H243902   4.108   0.769   4.464
14554WAT      O43903   4.056   9.172   1.157
14554WAT     H143904   4.112   9.090   1.169
14554WAT     H243905   4.036   9.185   1.060
14555WAT      O43906   7.957   1.270   0.743
14555WAT     H143907   7.885   1.258   0.676
14555WAT     H243908   7.977   1.182   0.787
14556WAT      O43909   5.368   5.753   0.105
14556WAT     H143910   5.270   5.734   0.118
14556WAT     H243911   5.394   5.831   0.160
14557WAT      O43912   2.450   6.025   5.375
14557WAT     H143913   2.487   6.112   5.344
14557WAT     H243914   2.462   6.017   5.474
14558WAT      O43915   0.993   1.524   1.300
14558WAT     H143916   0.962   1.618   1.313
14558WAT     H243917   1.063   1.503   1.368
14559WAT      O43918   6.132   8.885   6.157
14559WAT     H143919   6.105   8.928   6.243
14559WAT     H243920   6.224   8.914   6.132
14560WAT      O43921   3.859   1.265   0.346
14560WAT     H143922   3.825   1.303   0.260
14560WAT     H243923   3.788   1.208   0.387
14561WAT      O43924   8.510   2.690   3.905
14561WAT     H143925   8.480   2.599   3.878
14561WAT     H243926   8.575   2.683   3.980
14562WAT      O43927   5.768   7.823   0.494
14562WAT     H143928   5.816   7.908   0.475
14562WAT     H243929   5.675   7.843   0.524
14563WAT      O43930   3.676   9.190   2.252
14563WAT     H143931   3.764   9.228   2.224
14563WAT     H243932   3.688   9.093   2.277
14564WAT      O43933   8.432   6.649   7.528
14564WAT     H143934   8.381   6.721   7.577
14564WAT     H243935   8.403   6.648   7.433
14565WAT      O43936   3.990   4.980   0.839
14565WAT     H143937   4.054   4.986   0.916
14565WAT     H243938   3.932   5.061   0.837
14566WAT      O43939   3.285   2.789   4.401
14566WAT     H143940   3.287   2.757   4.496
14566WAT     H243941   3.227   2.871   4.395
14567WAT      O43942   9.244   7.075   0.098
14567WAT     H143943   9.318   7.010   0.083
14567WAT     H243944   9.178   7.036   0.163
14568WAT      O43945   3.130   2.584   7.235
14568WAT     H143946   3.185   2.606   7.315
14568WAT     H243947   3.095   2.491   7.243
14569WAT      O43948   0.111   9.139   4.781
14569WAT     H143949   0.096   9.062   4.844
14569WAT     H243950   0.143   9.218   4.832
14570WAT      O43951   9.442   7.945   9.054
14570WAT     H143952   9.404   7.875   8.995
14570WAT     H243953   9.379   7.963   9.130
14571WAT      O43954   9.370   4.110   4.107
14571WAT     H143955   9.434   4.134   4.180
14571WAT     H243956   9.419   4.108   4.019
14572WAT      O43957   9.173   1.643   4.018
14572WAT     H143958   9.176   1.569   3.950
14572WAT     H243959   9.134   1.608   4.103
14573WAT      O43960   2.838   1.328   7.838
14573WAT     H143961   2.932   1.306   7.865
14573WAT     H243962   2.835   1.349   7.740
14574WAT      O43963   5.302   7.497   2.191
14574WAT     H143964   5.369   7.478   2.119
14574WAT     H243965   5.349   7.519   2.276
14575WAT      O43966   2.125   4.679   0.360
14575WAT     H143967   2.027   4.698   0.366
14575WAT     H243968   2.160   4.656   0.450
14576WAT      O43969   1.010   6.357   8.900
14576WAT     H143970   0.920   6.323   8.925
14576WAT     H243971   1.058   6.288   8.846
14577WAT      O43972   0.036   4.298   3.427
14577WAT     H143973  -0.038   4.348   3.383
14577WAT     H243974   0.027   4.305   3.526
14578WAT      O43975   5.882   1.457   8.825
14578WAT     H143976   5.814   1.520   8.788
14578WAT     H243977   5.961   1.508   8.859
14579WAT      O43978   4.000   6.872   4.271
14579WAT     H143979   4.091   6.833   4.269
14579WAT     H243980   3.943   6.830   4.200
14580WAT      O43981   3.108   3.951   1.758
14580WAT     H143982   3.195   3.995   1.734
14580WAT     H243983   3.099   3.948   1.858
14581WAT      O43984   1.720   2.126   4.309
14581WAT     H143985   1.724   2.039   4.359
14581WAT     H243986   1.635   2.173   4.331
14582WAT      O43987   2.765   7.531   3.685
14582WAT     H143988   2.766   7.507   3.782
14582WAT     H243989   2.734   7.626   3.675
14583WAT      O43990   3.649   2.071   3.385
14583WAT     H143991   3.691   2.022   3.461
14583WAT     H243992   3.701   2.053   3.302
14584WAT      O43993   5.265   5.801   1.471
14584WAT     H143994   5.225   5.891   1.491
14584WAT     H243995   5.192   5.735   1.453
14585WAT      O43996   2.211   2.147   2.075
14585WAT     H143997   2.250   2.229   2.033
14585WAT     H243998   2.225   2.150   2.174
14586WAT      O43999   9.713   8.430   4.942
14586WAT     H144000   9.650   8.462   5.013
14586WAT     H244001   9.676   8.454   4.852
14587WAT      O44002   5.846   6.622   9.136
14587WAT     H144003   5.840   6.680   9.217
14587WAT     H244004   5.939   6.626   9.099
14588WAT      O44005   7.980   5.937   4.433
14588WAT     H144006   7.996   6.032   4.406
14588WAT     H244007   8.010   5.875   4.361
14589WAT      O44008   1.225   2.230   9.664
14589WAT     H144009   1.285   2.309   9.669
14589WAT     H244010   1.279   2.146   9.677
14590WAT      O44011   2.888   2.237   5.548
14590WAT     H144012   2.950   2.271   5.476
14590WAT     H244013   2.875   2.309   5.617
14591WAT      O44014   2.923   2.830   1.161
14591WAT     H144015   2.994   2.900   1.156
14591WAT     H244016   2.834   2.873   1.177
14592WAT      O44017   6.229   8.095   9.536
14592WAT     H144018   6.184   8.006   9.541
14592WAT     H244019   6.162   8.165   9.510
14593WAT      O44020   1.352   9.042   2.265
14593WAT     H144021   1.303   9.099   2.199
14593WAT     H244022   1.432   9.091   2.299
14594WAT      O44023   1.407   9.338   7.101
14594WAT     H144024   1.408   9.322   7.200
14594WAT     H244025   1.452   9.425   7.081
14595WAT      O44026   3.227   7.038   5.628
14595WAT     H144027   3.282   7.051   5.545
14595WAT     H244028   3.211   7.126   5.672
14596WAT      O44029   6.808   1.590   4.643
14596WAT     H144030   6.842   1.620   4.732
14596WAT     H244031   6.884   1.576   4.580
14597WAT      O44032   3.589   8.062   4.328
14597WAT     H144033   3.524   8.002   4.283
14597WAT     H244034   3.616   8.135   4.266
14598WAT      O44035   2.967   7.895   4.642
14598WAT     H144036   3.035   7.922   4.710
14598WAT     H244037   3.010   7.833   4.575
14599WAT      O44038   9.417   8.810   4.541
14599WAT     H144039   9.333   8.783   4.588
14599WAT     H244040   9.430   8.752   4.461
14600WAT      O44041   5.075   9.104   5.105
14600WAT     H144042   5.028   9.098   5.016
14600WAT     H244043   5.069   9.016   5.152
14601WAT      O44044   3.688   8.248   0.697
14601WAT     H144045   3.718   8.184   0.626
14601WAT     H244046   3.766   8.271   0.755
14602WAT      O44047   8.638   5.135   4.920
14602WAT     H144048   8.726   5.131   4.966
14602WAT     H244049   8.620   5.048   4.875
14603WAT      O44050   1.797   7.898   1.108
14603WAT     H144051   1.808   7.799   1.123
14603WAT     H244052   1.873   7.932   1.052
14604WAT      O44053   9.194   8.374   7.342
14604WAT     H144054   9.114   8.314   7.340
14604WAT     H244055   9.195   8.426   7.428
14605WAT      O44056   9.053   6.578   4.675
14605WAT     H144057   9.089   6.503   4.729
14605WAT     H244058   9.117   6.600   4.601
14606WAT      O44059   4.123   0.166   0.501
14606WAT     H144060   4.166   0.140   0.415
14606WAT     H244061   4.032   0.125   0.507
14607WAT      O44062   4.804   2.430   0.478
14607WAT     H144063   4.799   2.374   0.395
14607WAT     H244064   4.809   2.369   0.558
14608WAT      O44065   5.476   8.375   6.857
14608WAT     H144066   5.466   8.417   6.948
14608WAT     H244067   5.452   8.278   6.863
14609WAT      O44068   6.606   7.001   9.613
14609WAT     H144069   6.516   6.999   9.657
14609WAT     H244070   6.634   7.096   9.600
14610WAT      O44071   7.192   8.783   5.923
14610WAT     H144072   7.109   8.823   5.963
14610WAT     H244073   7.221   8.838   5.845
14611WAT      O44074   2.038   0.618   9.833
14611WAT     H144075   2.097   0.647   9.758
14611WAT     H244076   1.973   0.550   9.799
14612WAT      O44077   5.754   4.781   6.441
14612WAT     H144078   5.811   4.850   6.394
14612WAT     H244079   5.683   4.827   6.493
14613WAT      O44080   8.435   6.098   2.857
14613WAT     H144081   8.370   6.035   2.815
14613WAT     H244082   8.385   6.168   2.908
14614WAT      O44083   5.083   6.449   9.545
14614WAT     H144084   5.024   6.383   9.497
14614WAT     H244085   5.142   6.400   9.609
14615WAT      O44086   0.352   1.798   4.372
14615WAT     H144087   0.310   1.853   4.300
14615WAT     H244088   0.445   1.774   4.345
14616WAT      O44089   6.127   4.179   1.637
14616WAT     H144090   6.061   4.110   1.667
14616WAT     H244091   6.081   4.266   1.623
14617WAT      O44092   3.147   1.833   2.516
14617WAT     H144093   3.117   1.747   2.473
14617WAT     H244094   3.096   1.909   2.477
14618WAT      O44095   8.398   8.696   0.912
14618WAT     H144096   8.469   8.726   0.848
14618WAT     H244097   8.330   8.643   0.863
14619WAT      O44098   6.795   9.511   1.396
14619WAT     H144099   6.886   9.478   1.371
14619WAT     H244100   6.787   9.608   1.374
14620WAT      O44101   3.938   9.226   2.785
14620WAT     H144102   3.885   9.142   2.795
14620WAT     H244103   3.883   9.304   2.814
14621WAT      O44104   8.339   3.549   7.826
14621WAT     H144105   8.265   3.601   7.785
14621WAT     H244106   8.406   3.612   7.866
14622WAT      O44107   5.749   6.419   7.028
14622WAT     H144108   5.678   6.466   6.975
14622WAT     H244109   5.810   6.370   6.966
14623WAT      O44110   3.671   6.704   9.461
14623WAT     H144111   3.576   6.732   9.456
14623WAT     H244112   3.685   6.622   9.406
14624WAT      O44113   5.562   2.713   3.127
14624WAT     H144114   5.572   2.766   3.043
14624WAT     H244115   5.473   2.668   3.128
14625WAT      O44116   8.014   5.377   1.493
14625WAT     H144117   8.072   5.309   1.447
14625WAT     H244118   8.052   5.469   1.477
14626WAT      O44119   1.051   2.554   0.876
14626WAT     H144120   1.141   2.595   0.862
14626WAT     H244121   0.987   2.591   0.808
14627WAT      O44122   8.345   6.734   3.188
14627WAT     H144123   8.328   6.823   3.232
14627WAT     H244124   8.320   6.740   3.091
14628WAT      O44125   6.470   4.312   6.317
14628WAT     H144126   6.474   4.412   6.324
14628WAT     H244127   6.457   4.286   6.222
14629WAT      O44128   9.532   2.552   9.645
14629WAT     H144129   9.526   2.452   9.639
14629WAT     H244130   9.607   2.577   9.706
14630WAT      O44131   1.556   5.497   4.607
14630WAT     H144132   1.472   5.461   4.648
14630WAT     H244133   1.559   5.474   4.510
14631WAT      O44134   6.600   0.460   4.729
14631WAT     H144135   6.578   0.374   4.683
14631WAT     H244136   6.546   0.468   4.813
14632WAT      O44137   8.226   2.687   2.653
14632WAT     H144138   8.220   2.787   2.650
14632WAT     H244139   8.261   2.658   2.742
14633WAT      O44140   6.669   0.844   1.448
14633WAT     H144141   6.730   0.904   1.501
14633WAT     H244142   6.689   0.852   1.351
14634WAT      O44143   4.864   3.751   4.555
14634WAT     H144144   4.852   3.828   4.493
14634WAT     H244145   4.867   3.785   4.649
14635WAT      O44146   4.010   4.739   4.807
14635WAT     H144147   4.109   4.747   4.796
14635WAT     H244148   3.965   4.762   4.721
14636WAT      O44149   0.337   6.013   7.063
14636WAT     H144150   0.377   5.952   7.131
14636WAT     H244151   0.297   5.959   6.989
14637WAT      O44152   0.287   6.045   5.946
14637WAT     H144153   0.339   5.972   5.991
14637WAT     H244154   0.198   6.054   5.991
14638WAT      O44155   4.811   6.816   2.355
14638WAT     H144156   4.766   6.882   2.294
14638WAT     H244157   4.746   6.785   2.424
14639WAT      O44158   4.065   3.169   3.364
14639WAT     H144159   4.013   3.184   3.448
14639WAT     H244160   4.003   3.171   3.286
14640WAT      O44161   0.034   6.613   9.382
14640WAT     H144162   0.057   6.537   9.321
14640WAT     H244163   0.041   6.700   9.332
14641WAT      O44164   8.982   1.254   1.631
14641WAT     H144165   8.981   1.346   1.669
14641WAT     H244166   9.067   1.208   1.656
14642WAT      O44167   4.870   8.431   7.814
14642WAT     H144168   4.806   8.499   7.849
14642WAT     H244169   4.911   8.380   7.890
14643WAT      O44170   5.650   8.730   1.237
14643WAT     H144171   5.628   8.748   1.333
14643WAT     H244172   5.627   8.635   1.215
14644WAT      O44173   9.582   2.192   5.609
14644WAT     H144174   9.597   2.254   5.685
14644WAT     H244175   9.484   2.185   5.590
14645WAT      O44176   1.631   3.712   1.105
14645WAT     H144177   1.722   3.703   1.144
14645WAT     H244178   1.638   3.750   1.013
14646WAT      O44179   2.402   1.276   9.079
14646WAT     H144180   2.347   1.347   9.125
14646WAT     H244181   2.416   1.199   9.142
14647WAT      O44182   1.134   1.890   9.375
14647WAT     H144183   1.175   1.925   9.291
14647WAT     H244184   1.042   1.856   9.356
14648WAT      O44185   5.111   4.344   0.809
14648WAT     H144186   5.022   4.333   0.764
14648WAT     H244187   5.153   4.429   0.778
14649WAT      O44188   8.203   5.417   9.421
14649WAT     H144189   8.159   5.472   9.492
14649WAT     H244190   8.135   5.357   9.379
14650WAT      O44191   8.982   7.245   6.622
14650WAT     H144192   8.898   7.232   6.673
14650WAT     H244193   9.048   7.296   6.678
14651WAT      O44194   9.584   3.256   2.442
14651WAT     H144195   9.494   3.250   2.485
14651WAT     H244196   9.642   3.318   2.496
14652WAT      O44197   1.144   9.474   3.171
14652WAT     H144198   1.082   9.404   3.207
14652WAT     H244199   1.203   9.507   3.246
14653WAT      O44200   2.181   4.783   6.124
14653WAT     H144201   2.149   4.862   6.177
14653WAT     H244202   2.103   4.741   6.077
14654WAT      O44203   6.801   8.226   7.673
14654WAT     H144204   6.872   8.158   7.658
14654WAT     H244205   6.842   8.310   7.708
14655WAT      O44206   4.824   8.771   4.301
14655WAT     H144207   4.744   8.747   4.247
14655WAT     H244208   4.865   8.854   4.263
14656WAT      O44209   1.466   6.445   3.370
14656WAT     H144210   1.467   6.348   3.343
14656WAT     H244211   1.545   6.464   3.427
14657WAT      O44212   7.226   6.674   9.046
14657WAT     H144213   7.281   6.716   9.117
14657WAT     H244214   7.131   6.666   9.077
14658WAT      O44215   1.078   8.618   9.104
14658WAT     H144216   1.061   8.548   9.173
14658WAT     H244217   0.992   8.663   9.080
14659WAT      O44218   3.624   3.703   1.905
14659WAT     H144219   3.684   3.624   1.887
14659WAT     H244220   3.639   3.736   1.998
14660WAT      O44221   1.387   0.036   5.908
14660WAT     H144222   1.367   0.023   6.006
14660WAT     H244223   1.310   0.081   5.864
14661WAT      O44224   8.910   7.876   6.247
14661WAT     H144225   8.894   7.944   6.319
14661WAT     H244226   8.856   7.794   6.266
14662WAT      O44227   1.137   4.381   5.778
14662WAT     H144228   1.186   4.297   5.753
14662WAT     H244229   1.153   4.402   5.874
14663WAT      O44230   7.736   4.285   5.807
14663WAT     H144231   7.762   4.301   5.902
14663WAT     H244232   7.817   4.293   5.749
14664WAT      O44233   4.716   9.234   5.602
14664WAT     H144234   4.633   9.220   5.548
14664WAT     H244235   4.755   9.324   5.581
14665WAT      O44236   8.990   3.148   8.111
14665WAT     H144237   9.037   3.163   8.198
14665WAT     H244238   8.987   3.050   8.092
14666WAT      O44239   2.158   4.023   1.031
14666WAT     H144240   2.203   4.037   0.943
14666WAT     H244241   2.093   4.097   1.047
14667WAT      O44242   1.337   0.744   1.545
14667WAT     H144243   1.404   0.815   1.565
14667WAT     H244244   1.257   0.785   1.501
14668WAT      O44245   7.981   6.334   5.673
14668WAT     H144246   7.976   6.412   5.737
14668WAT     H244247   7.905   6.338   5.609
14669WAT      O44248   2.772   8.318   6.887
14669WAT     H144249   2.807   8.236   6.842
14669WAT     H244250   2.840   8.351   6.953
14670WAT      O44251   8.740   6.608   8.224
14670WAT     H144252   8.702   6.589   8.134
14670WAT     H244253   8.733   6.526   8.281
14671WAT      O44254   1.927   8.531   6.314
14671WAT     H144255   1.994   8.604   6.332
14671WAT     H244256   1.889   8.498   6.401
14672WAT      O44257   0.389   9.689   7.747
14672WAT     H144258   0.316   9.730   7.802
14672WAT     H244259   0.418   9.753   7.677
14673WAT      O44260   7.142   7.788   1.155
14673WAT     H144261   7.166   7.847   1.232
14673WAT     H244262   7.198   7.705   1.156
14674WAT      O44263   0.497   8.725   8.109
14674WAT     H144264   0.434   8.741   8.185
14674WAT     H244265   0.588   8.703   8.144
14675WAT      O44266   0.818   8.931   8.221
14675WAT     H144267   0.749   8.946   8.292
14675WAT     H244268   0.839   9.019   8.177
14676WAT      O44269   1.378   5.684   8.899
14676WAT     H144270   1.408   5.771   8.938
14676WAT     H244271   1.415   5.675   8.807
14677WAT      O44272   0.214   9.806   3.981
14677WAT     H144273   0.288   9.849   4.034
14677WAT     H244274   0.141   9.873   3.966
14678WAT      O44275   4.371   7.846   0.146
14678WAT     H144276   4.332   7.758   0.175
14678WAT     H244277   4.396   7.899   0.227
14679WAT      O44278   1.551   5.577   1.323
14679WAT     H144279   1.545   5.651   1.391
14679WAT     H244280   1.643   5.575   1.284
14680WAT      O44281   8.791   1.051   7.087
14680WAT     H144282   8.727   1.115   7.044
14680WAT     H244283   8.822   0.984   7.020
14681WAT      O44284   7.194   0.341   0.921
14681WAT     H144285   7.126   0.305   0.986
14681WAT     H244286   7.286   0.316   0.952
14682WAT      O44287   9.113   9.108   2.189
14682WAT     H144288   9.195   9.095   2.246
14682WAT     H244289   9.091   9.021   2.144
14683WAT      O44290   4.144   2.166   8.039
14683WAT     H144291   4.222   2.105   8.023
14683WAT     H244292   4.171   2.260   8.019
14684WAT      O44293   1.862   6.298   1.276
14684WAT     H144294   1.766   6.278   1.257
14684WAT     H244295   1.908   6.215   1.307
14685WAT      O44296   0.046   1.174   9.101
14685WAT     H144297   0.034   1.100   9.168
14685WAT     H244298   0.036   1.137   9.009
14686WAT      O44299   0.920   6.280   0.655
14686WAT     H144300   0.924   6.289   0.555
14686WAT     H244301   0.841   6.331   0.690
14687WAT      O44302   5.996   6.053   6.577
14687WAT     H144303   5.927   5.986   6.605
14687WAT     H244304   5.957   6.113   6.507
14688WAT      O44305   5.476   8.635   6.766
14688WAT     H144306   5.490   8.539   6.790
14688WAT     H244307   5.563   8.685   6.778
14689WAT      O44308   2.516   5.993   0.576
14689WAT     H144309   2.536   6.087   0.549
14689WAT     H244310   2.577   5.931   0.528
14690WAT      O44311   8.879   6.322   5.065
14690WAT     H144312   8.963   6.274   5.090
14690WAT     H244313   8.810   6.309   5.136
14691WAT      O44314   6.452   4.986   9.053
14691WAT     H144315   6.378   4.973   8.988
14691WAT     H244316   6.519   4.912   9.043
14692WAT      O44317   8.115   8.132   0.313
14692WAT     H144318   8.033   8.075   0.312
14692WAT     H244319   8.151   8.140   0.220
14693WAT      O44320   6.407   1.750   4.738
14693WAT     H144321   6.455   1.835   4.760
14693WAT     H244322   6.408   1.737   4.639
14694WAT      O44323   6.253   5.156   4.589
14694WAT     H144324   6.236   5.240   4.639
14694WAT     H244325   6.349   5.153   4.560
14695WAT      O44326   6.648   0.030   7.197
14695WAT     H144327   6.624  -0.067   7.201
14695WAT     H244328   6.677   0.061   7.288
14696WAT      O44329   3.038   9.289   2.270
14696WAT     H144330   3.053   9.328   2.361
14696WAT     H244331   3.080   9.348   2.202
14697WAT      O44332   2.760   3.933   3.649
14697WAT     H144333   2.681   3.904   3.597
14697WAT     H244334   2.753   4.031   3.669
14698WAT      O44335   1.672   1.603   2.326
14698WAT     H144336   1.659   1.504   2.328
14698WAT     H244337   1.586   1.647   2.298
14699WAT      O44338   3.330   9.106   6.231
14699WAT     H144339   3.313   9.204   6.219
14699WAT     H244340   3.312   9.081   6.326
14700WAT      O44341   8.746   6.887   8.195
14700WAT     H144342   8.737   6.788   8.208
14700WAT     H244343   8.737   6.908   8.097
14701WAT      O44344   5.131   7.985   0.200
14701WAT     H144345   5.155   7.977   0.103
14701WAT     H244346   5.208   7.954   0.256
14702WAT      O44347   0.662   0.517   7.189
14702WAT     H144348   0.737   0.452   7.197
14702WAT     H244349   0.651   0.566   7.276
14703WAT      O44350   2.574   2.330   9.448
14703WAT     H144351   2.517   2.331   9.365
14703WAT     H244352   2.538   2.397   9.514
14704WAT      O44353   3.990   2.467   8.783
14704WAT     H144354   4.029   2.543   8.731
14704WAT     H244355   3.916   2.426   8.731
14705WAT      O44356   9.324   2.905   3.066
14705WAT     H144357   9.286   2.957   3.142
14705WAT     H244358   9.400   2.957   3.026
14706WAT      O44359   8.687   8.034   7.026
14706WAT     H144360   8.662   8.104   6.960
14706WAT     H244361   8.737   7.961   6.980
14707WAT      O44362   5.959   4.270   3.936
14707WAT     H144363   6.056   4.278   3.912
14707WAT     H244364   5.944   4.312   4.026
14708WAT      O44365   9.561   4.524   2.083
14708WAT     H144366   9.476   4.497   2.038
14708WAT     H244367   9.562   4.623   2.094
14709WAT      O44368   8.434   3.185   1.700
14709WAT     H144369   8.457   3.188   1.797
14709WAT     H244370   8.423   3.278   1.665
14710WAT      O44371   6.386   2.964   3.334
14710WAT     H144372   6.429   2.973   3.244
14710WAT     H244373   6.372   2.867   3.355
14711WAT      O44374   1.594   2.123   9.598
14711WAT     H144375   1.578   2.025   9.591
14711WAT     H244376   1.535   2.172   9.534
14712WAT      O44377   7.702   5.508   8.558
14712WAT     H144378   7.693   5.580   8.627
14712WAT     H244379   7.687   5.547   8.467
14713WAT      O44380   0.632   5.713   4.741
14713WAT     H144381   0.722   5.736   4.778
14713WAT     H244382   0.561   5.742   4.805
14714WAT      O44383   3.790   1.958   1.376
14714WAT     H144384   3.783   1.863   1.345
14714WAT     H244385   3.704   2.006   1.355
14715WAT      O44386   7.977   3.920   7.135
14715WAT     H144387   7.943   4.010   7.109
14715WAT     H244388   7.912   3.877   7.198
14716WAT      O44389   3.037   0.266   9.365
14716WAT     H144390   3.024   0.363   9.382
14716WAT     H244391   3.135   0.246   9.361
14717WAT      O44392   6.421   6.968   1.009
14717WAT     H144393   6.467   7.032   0.948
14717WAT     H244394   6.325   6.994   1.020
14718WAT      O44395   8.860   0.105   1.964
14718WAT     H144396   8.841   0.021   2.016
14718WAT     H244397   8.782   0.167   1.972
14719WAT      O44398   6.021   2.638   7.201
14719WAT     H144399   6.044   2.553   7.155
14719WAT     H244400   6.029   2.714   7.136
14720WAT      O44401   1.761   7.506   6.310
14720WAT     H144402   1.823   7.583   6.325
14720WAT     H244403   1.730   7.507   6.215
14721WAT      O44404   9.298   5.438   8.111
14721WAT     H144405   9.296   5.490   8.025
14721WAT     H244406   9.238   5.483   8.178
14722WAT      O44407   0.580   9.105   6.215
14722WAT     H144408   0.644   9.174   6.249
14722WAT     H244409   0.526   9.144   6.140
14723WAT      O44410   0.618   3.742   7.828
14723WAT     H144411   0.675   3.824   7.824
14723WAT     H244412   0.676   3.661   7.830
14724WAT      O44413   5.148   9.307   5.945
14724WAT     H144414   5.203   9.389   5.926
14724WAT     H244415   5.206   9.238   5.988
14725WAT      O44416   6.683   2.516   6.410
14725WAT     H144417   6.754   2.469   6.462
14725WAT     H244418   6.702   2.506   6.312
14726WAT      O44419   9.008   7.363   3.213
14726WAT     H144420   8.932   7.378   3.277
14726WAT     H244421   9.061   7.448   3.205
14727WAT      O44422   5.405   6.186   1.768
14727WAT     H144423   5.328   6.175   1.705
14727WAT     H244424   5.485   6.216   1.717
14728WAT      O44425   4.833   0.311   4.671
14728WAT     H144426   4.918   0.265   4.697
14728WAT     H244427   4.854   0.401   4.634
14729WAT      O44428   2.046   7.584   2.605
14729WAT     H144429   2.033   7.495   2.562
14729WAT     H244430   2.084   7.572   2.697
14730WAT      O44431   9.612   3.896   1.232
14730WAT     H144432   9.537   3.914   1.296
14730WAT     H244433   9.674   3.829   1.272
14731WAT      O44434   4.708   4.138   2.617
14731WAT     H144435   4.644   4.071   2.577
14731WAT     H244436   4.657   4.200   2.677
14732WAT      O44437   2.030   6.633   4.303
14732WAT     H144438   2.123   6.596   4.308
14732WAT     H244439   2.033   6.728   4.275
14733WAT      O44440   4.728   7.052   6.096
14733WAT     H144441   4.687   6.962   6.110
14733WAT     H244442   4.753   7.062   6.000
14734WAT      O44443   6.075   3.954   7.056
14734WAT     H144444   6.043   4.027   7.116
14734WAT     H244445   5.997   3.909   7.013
14735WAT      O44446   1.280   7.635   1.469
14735WAT     H144447   1.227   7.604   1.390
14735WAT     H244448   1.276   7.735   1.474
14736WAT      O44449   5.923   6.752   1.300
14736WAT     H144450   5.870   6.716   1.376
14736WAT     H244451   6.009   6.790   1.334
14737WAT      O44452   6.165   7.452   2.061
14737WAT     H144453   6.256   7.412   2.054
14737WAT     H244454   6.133   7.478   1.970
14738WAT      O44455   3.830   2.744   8.886
14738WAT     H144456   3.805   2.838   8.909
14738WAT     H244457   3.903   2.745   8.818
14739WAT      O44458   5.855   8.318   7.086
14739WAT     H144459   5.812   8.273   7.165
14739WAT     H244460   5.807   8.403   7.065
14740WAT      O44461   8.812   1.327   4.553
14740WAT     H144462   8.780   1.255   4.615
14740WAT     H244463   8.808   1.294   4.458
14741WAT      O44464   4.032   7.507   1.414
14741WAT     H144465   4.113   7.547   1.456
14741WAT     H244466   4.057   7.468   1.325
14742WAT      O44467   6.046   0.406   0.689
14742WAT     H144468   5.954   0.376   0.664
14742WAT     H244469   6.045   0.439   0.783
14743WAT      O44470   1.087   7.984   9.280
14743WAT     H144471   1.025   7.966   9.204
14743WAT     H244472   1.133   7.900   9.307
14744WAT      O44473   5.743   7.680   9.096
14744WAT     H144474   5.746   7.714   9.002
14744WAT     H244475   5.805   7.735   9.153
14745WAT      O44476   6.081   5.833   6.368
14745WAT     H144477   6.091   5.759   6.434
14745WAT     H244478   5.987   5.868   6.372
14746WAT      O44479   1.368   1.287   3.657
14746WAT     H144480   1.313   1.205   3.673
14746WAT     H244481   1.465   1.263   3.662
14747WAT      O44482   5.755   8.743   7.958
14747WAT     H144483   5.778   8.770   8.051
14747WAT     H244484   5.785   8.815   7.895
14748WAT      O44485   2.617   0.856   9.709
14748WAT     H144486   2.650   0.805   9.788
14748WAT     H244487   2.687   0.855   9.638
14749WAT      O44488   2.754   2.881   4.748
14749WAT     H144489   2.809   2.963   4.764
14749WAT     H244490   2.808   2.813   4.699
14750WAT      O44491   6.762   3.926   0.919
14750WAT     H144492   6.743   3.842   0.970
14750WAT     H244493   6.717   4.003   0.965
14751WAT      O44494   4.408   1.882   9.289
14751WAT     H144495   4.335   1.944   9.262
14751WAT     H244496   4.369   1.804   9.338
14752WAT      O44497   0.920   5.587   8.270
14752WAT     H144498   0.843   5.593   8.333
14752WAT     H244499   0.949   5.680   8.244
14753WAT      O44500   9.876   5.123   9.875
14753WAT     H144501   9.792   5.071   9.890
14753WAT     H244502   9.853   5.214   9.839
14754WAT      O44503   1.695   0.635   3.408
14754WAT     H144504   1.661   0.608   3.318
14754WAT     H244505   1.774   0.696   3.397
14755WAT      O44506   0.389   4.549   2.346
14755WAT     H144507   0.327   4.518   2.418
14755WAT     H244508   0.483   4.549   2.380
14756WAT      O44509   2.560   0.647   1.511
14756WAT     H144510   2.646   0.624   1.558
14756WAT     H244511   2.571   0.733   1.462
14757WAT      O44512   1.852   5.449   0.177
14757WAT     H144513   1.950   5.434   0.162
14757WAT     H244514   1.835   5.469   0.273
14758WAT      O44515   8.229   0.371   1.372
14758WAT     H144516   8.296   0.442   1.395
14758WAT     H244517   8.179   0.344   1.454
14759WAT      O44518   4.167   0.390   2.865
14759WAT     H144519   4.074   0.355   2.852
14759WAT     H244520   4.215   0.334   2.933
14760WAT      O44521   5.604   1.570   9.319
14760WAT     H144522   5.516   1.537   9.353
14760WAT     H244523   5.671   1.566   9.393
14761WAT      O44524   2.569   1.557   3.621
14761WAT     H144525   2.569   1.460   3.599
14761WAT     H244526   2.589   1.570   3.718
14762WAT      O44527   3.292   3.467   2.649
14762WAT     H144528   3.198   3.488   2.622
14762WAT     H244529   3.321   3.530   2.721
14763WAT      O44530   6.680   7.092   7.519
14763WAT     H144531   6.663   6.997   7.491
14763WAT     H244532   6.614   7.152   7.474
14764WAT      O44533   7.733   8.242   4.800
14764WAT     H144534   7.735   8.247   4.900
14764WAT     H244535   7.737   8.335   4.763
14765WAT      O44536   5.239   2.837   7.113
14765WAT     H144537   5.183   2.766   7.070
14765WAT     H244538   5.335   2.813   7.104
14766WAT      O44539   2.666   6.355   0.236
14766WAT     H144540   2.590   6.397   0.187
14766WAT     H244541   2.645   6.259   0.254
14767WAT      O44542   3.555   7.719   0.811
14767WAT     H144543   3.608   7.770   0.744
14767WAT     H244544   3.493   7.781   0.859
14768WAT      O44545   0.551   2.652   6.032
14768WAT     H144546   0.564   2.594   6.112
14768WAT     H244547   0.623   2.721   6.028
14769WAT      O44548   3.362   4.897   0.310
14769WAT     H144549   3.447   4.848   0.292
14769WAT     H244550   3.349   4.906   0.409
14770WAT      O44551   2.909   2.080   2.737
14770WAT     H144552   2.920   2.064   2.639
14770WAT     H244553   2.812   2.073   2.761
14771WAT      O44554   6.218   3.070   0.525
14771WAT     H144555   6.280   3.007   0.573
14771WAT     H244556   6.210   3.155   0.578
14772WAT      O44557   4.847   2.148   7.587
14772WAT     H144558   4.927   2.183   7.538
14772WAT     H244559   4.791   2.225   7.616
14773WAT      O44560   5.424   0.152   8.402
14773WAT     H144561   5.417   0.198   8.491
14773WAT     H244562   5.404   0.217   8.329
14774WAT      O44563   4.749   3.333   1.745
14774WAT     H144564   4.724   3.425   1.714
14774WAT     H244565   4.761   3.274   1.665
14775WAT      O44566   8.394   5.840   4.400
14775WAT     H144567   8.395   5.934   4.366
14775WAT     H244568   8.319   5.789   4.356
14776WAT      O44569   7.122   4.626   1.683
14776WAT     H144570   7.038   4.682   1.681
14776WAT     H244571   7.202   4.686   1.683
14777WAT      O44572   9.789   1.610   1.846
14777WAT     H144573   9.749   1.691   1.889
14777WAT     H244574   9.885   1.603   1.872
14778WAT      O44575   6.437   6.347   3.062
14778WAT     H144576   6.444   6.430   3.118
14778WAT     H244577   6.375   6.282   3.106
14779WAT      O44578   8.112   1.885   1.247
14779WAT     H144579   8.065   1.907   1.333
14779WAT     H244580   8.074   1.800   1.210
14780WAT      O44581   9.578   8.165   5.328
14780WAT     H144582   9.575   8.165   5.428
14780WAT     H244583   9.502   8.220   5.293
14781WAT      O44584   2.962   8.364   4.947
14781WAT     H144585   2.893   8.415   4.998
14781WAT     H244586   2.957   8.267   4.973
14782WAT      O44587   7.726   6.991   5.927
14782WAT     H144588   7.661   6.949   5.990
14782WAT     H244589   7.684   7.001   5.837
14783WAT      O44590   7.081   0.566   3.593
14783WAT     H144591   7.121   0.538   3.506
14783WAT     H244592   7.031   0.490   3.633
14784WAT      O44593   8.447   5.280   1.772
14784WAT     H144594   8.427   5.379   1.772
14784WAT     H244595   8.368   5.231   1.735
14785WAT      O44596   9.050   5.067   2.371
14785WAT     H144597   8.991   5.029   2.442
14785WAT     H244598   9.089   5.153   2.401
14786WAT      O44599   3.397   7.338   4.193
14786WAT     H144600   3.353   7.378   4.274
14786WAT     H244601   3.402   7.407   4.121
14787WAT      O44602   9.355   8.175   0.123
14787WAT     H144603   9.301   8.260   0.122
14787WAT     H244604   9.295   8.097   0.110
14788WAT      O44605   1.688   1.428   7.342
14788WAT     H144606   1.771   1.462   7.386
14788WAT     H244607   1.699   1.432   7.242
14789WAT      O44608   2.417   4.096   2.317
14789WAT     H144609   2.493   4.162   2.316
14789WAT     H244610   2.374   4.095   2.407
14790WAT      O44611   9.264   6.290   5.618
14790WAT     H144612   9.290   6.385   5.608
14790WAT     H244613   9.333   6.231   5.574
14791WAT      O44614   7.533   5.650   4.359
14791WAT     H144615   7.482   5.578   4.406
14791WAT     H244616   7.498   5.739   4.388
14792WAT      O44617   6.749   0.955   3.093
14792WAT     H144618   6.844   0.976   3.116
14792WAT     H244619   6.744   0.865   3.050
14793WAT      O44620   1.849   8.739   0.861
14793WAT     H144621   1.803   8.754   0.948
14793WAT     H244622   1.939   8.783   0.862
14794WAT      O44623   7.977   3.786   6.276
14794WAT     H144624   8.015   3.693   6.278
14794WAT     H244625   8.009   3.834   6.194
14795WAT      O44626   1.474   3.183   4.051
14795WAT     H144627   1.571   3.172   4.074
14795WAT     H244628   1.438   3.097   4.016
14796WAT      O44629   2.579   1.178   1.168
14796WAT     H144630   2.656   1.228   1.207
14796WAT     H244631   2.529   1.237   1.105
14797WAT      O44632   2.012   2.881   6.228
14797WAT     H144633   2.050   2.965   6.192
14797WAT     H244634   2.083   2.830   6.278
14798WAT      O44635   1.179   8.950   6.922
14798WAT     H144636   1.157   8.854   6.943
14798WAT     H244637   1.123   8.981   6.845
14799WAT      O44638   7.140   4.520   9.734
14799WAT     H144639   7.204   4.447   9.756
14799WAT     H244640   7.048   4.494   9.764
14800WAT      O44641   5.532   2.988   9.697
14800WAT     H144642   5.561   3.011   9.604
14800WAT     H244643   5.448   2.934   9.693
14801WAT      O44644   9.523   1.480   1.486
14801WAT     H144645   9.455   1.533   1.436
14801WAT     H244646   9.590   1.542   1.526
14802WAT      O44647   5.559   8.937   1.407
14802WAT     H144648   5.634   8.980   1.356
14802WAT     H244649   5.489   9.006   1.427
14803WAT      O44650   5.113   2.405   0.487
14803WAT     H144651   5.050   2.430   0.413
14803WAT     H244652   5.061   2.392   0.571
14804WAT      O44653   4.240   0.154   3.306
14804WAT     H144654   4.326   0.202   3.326
14804WAT     H244655   4.168   0.191   3.364
14805WAT      O44656   3.825   0.421   7.885
14805WAT     H144657   3.735   0.446   7.849
14805WAT     H244658   3.821   0.330   7.926
14806WAT      O44659   4.903   0.240   2.919
14806WAT     H144660   4.826   0.178   2.927
14806WAT     H244661   4.905   0.279   2.827
14807WAT      O44662   4.995   1.489   7.400
14807WAT     H144663   4.938   1.570   7.387
14807WAT     H244664   5.078   1.497   7.345
14808WAT      O44665   5.728   3.090   3.879
14808WAT     H144666   5.703   3.186   3.865
14808WAT     H244667   5.799   3.083   3.948
14809WAT      O44668   0.071   6.923   7.137
14809WAT     H144669  -0.023   6.900   7.111
14809WAT     H244670   0.090   7.018   7.112
14810WAT      O44671   6.246   3.751   3.392
14810WAT     H144672   6.161   3.742   3.341
14810WAT     H244673   6.293   3.663   3.394
14811WAT      O44674   5.084   6.045   1.462
14811WAT     H144675   5.036   6.101   1.395
14811WAT     H244676   5.064   6.079   1.554
14812WAT      O44677   5.922   7.799   1.554
14812WAT     H144678   5.866   7.847   1.488
14812WAT     H244679   5.897   7.827   1.647
14813WAT      O44680   2.375   6.087   7.919
14813WAT     H144681   2.336   6.145   7.847
14813WAT     H244682   2.356   6.127   8.009
14814WAT      O44683   5.977   0.208   7.578
14814WAT     H144684   6.069   0.242   7.558
14814WAT     H244685   5.967   0.116   7.541
14815WAT      O44686   2.529   0.399   7.252
14815WAT     H144687   2.541   0.449   7.167
14815WAT     H244688   2.559   0.456   7.329
14816WAT      O44689   8.827   9.825   1.726
14816WAT     H144690   8.849   9.898   1.790
14816WAT     H244691   8.873   9.741   1.753
14817WAT      O44692   9.027   4.213   5.038
14817WAT     H144693   8.950   4.153   5.018
14817WAT     H244694   9.002   4.308   5.017
14818WAT      O44695   7.461   9.698   3.178
14818WAT     H144696   7.553   9.667   3.155
14818WAT     H244697   7.433   9.660   3.266
14819WAT      O44698   1.477   2.248   4.337
14819WAT     H144699   1.426   2.207   4.261
14819WAT     H244700   1.426   2.235   4.422
14820WAT      O44701   7.141   7.508   9.034
14820WAT     H144702   7.188   7.454   9.105
14820WAT     H244703   7.056   7.463   9.009
14821WAT      O44704   9.302   0.682   8.144
14821WAT     H144705   9.221   0.661   8.091
14821WAT     H244706   9.276   0.727   8.230
14822WAT      O44707   4.288   2.081   8.400
14822WAT     H144708   4.358   2.012   8.379
14822WAT     H244709   4.199   2.038   8.406
14823WAT      O44710   3.182   7.262   1.945
14823WAT     H144711   3.195   7.212   1.859
14823WAT     H244712   3.164   7.198   2.019
14824WAT      O44713   9.567   9.726   8.235
14824WAT     H144714   9.469   9.727   8.218
14824WAT     H244715   9.596   9.815   8.271
14825WAT      O44716   9.666   4.697   6.390
14825WAT     H144717   9.647   4.601   6.407
14825WAT     H244718   9.764   4.714   6.404
14826WAT      O44719   5.734   1.742   4.529
14826WAT     H144720   5.690   1.739   4.618
14826WAT     H244721   5.797   1.665   4.521
14827WAT      O44722   2.933   4.380   8.776
14827WAT     H144723   2.958   4.307   8.840
14827WAT     H244724   2.838   4.367   8.747
14828WAT      O44725   4.475   5.217   5.739
14828WAT     H144726   4.564   5.190   5.704
14828WAT     H244727   4.407   5.214   5.666
14829WAT      O44728   5.625   8.588   3.660
14829WAT     H144729   5.570   8.671   3.652
14829WAT     H244730   5.721   8.610   3.642
14830WAT      O44731   3.393   1.044   0.230
14830WAT     H144732   3.459   1.000   0.291
14830WAT     H244733   3.364   0.978   0.160
14831WAT      O44734   1.253   0.088   0.766
14831WAT     H144735   1.308   0.017   0.721
14831WAT     H244736   1.219   0.053   0.853
14832WAT      O44737   0.592   6.544   8.083
14832WAT     H144738   0.675   6.511   8.037
14832WAT     H244739   0.512   6.517   8.030
14833WAT      O44740   5.596   8.460   2.381
14833WAT     H144741   5.665   8.389   2.388
14833WAT     H244742   5.641   8.550   2.380
14834WAT      O44743   8.799   4.432   0.201
14834WAT     H144744   8.817   4.365   0.129
14834WAT     H244745   8.878   4.493   0.210
14835WAT      O44746   2.459   2.378   8.013
14835WAT     H144747   2.519   2.404   8.088
14835WAT     H244748   2.372   2.426   8.021
14836WAT      O44749   2.644   8.404   5.963
14836WAT     H144750   2.592   8.477   6.008
14836WAT     H244751   2.583   8.326   5.946
14837WAT      O44752   2.503   5.766   0.842
14837WAT     H144753   2.471   5.819   0.763
14837WAT     H244754   2.561   5.691   0.810
14838WAT      O44755   4.012   9.709   0.508
14838WAT     H144756   3.964   9.770   0.571
14838WAT     H244757   3.947   9.669   0.444
14839WAT      O44758   6.587   3.530   1.591
14839WAT     H144759   6.541   3.577   1.515
14839WAT     H244760   6.518   3.497   1.656
14840WAT      O44761   9.751   8.752   3.096
14840WAT     H144762   9.656   8.782   3.083
14840WAT     H244763   9.752   8.653   3.115
14841WAT      O44764   7.687   0.549   5.283
14841WAT     H144765   7.631   0.598   5.350
14841WAT     H244766   7.655   0.570   5.191
14842WAT      O44767   1.342   8.377   8.088
14842WAT     H144768   1.347   8.344   8.182
14842WAT     H244769   1.246   8.381   8.059
14843WAT      O44770   3.241   1.128   5.194
14843WAT     H144771   3.246   1.046   5.251
14843WAT     H244772   3.209   1.205   5.249
14844WAT      O44773   7.844   7.086   3.729
14844WAT     H144774   7.907   7.047   3.663
14844WAT     H244775   7.896   7.128   3.804
14845WAT      O44776   6.140   2.647   4.163
14845WAT     H144777   6.051   2.643   4.119
14845WAT     H244778   6.186   2.559   4.156
14846WAT      O44779   9.248   0.616   9.616
14846WAT     H144780   9.186   0.688   9.583
14846WAT     H244781   9.299   0.577   9.540
14847WAT      O44782   8.180   3.570   2.035
14847WAT     H144783   8.140   3.638   2.096
14847WAT     H244784   8.278   3.586   2.027
14848WAT      O44785   3.301   0.098   5.744
14848WAT     H144786   3.258   0.172   5.693
14848WAT     H244787   3.277   0.106   5.841
14849WAT      O44788   5.135   8.549   6.505
14849WAT     H144789   5.176   8.640   6.507
14849WAT     H244790   5.204   8.481   6.530
14850WAT      O44791   4.129   1.422   7.291
14850WAT     H144792   4.222   1.405   7.258
14850WAT     H244793   4.133   1.477   7.374
14851WAT      O44794   2.530   8.007   9.621
14851WAT     H144795   2.506   7.969   9.711
14851WAT     H244796   2.582   8.091   9.634
14852WAT      O44797   7.422   3.624   6.020
14852WAT     H144798   7.477   3.611   5.938
14852WAT     H244799   7.405   3.721   6.034
14853WAT      O44800   3.525   6.832   8.749
14853WAT     H144801   3.577   6.760   8.703
14853WAT     H244802   3.569   6.921   8.733
14854WAT      O44803   6.880   1.469   1.545
14854WAT     H144804   6.781   1.463   1.552
14854WAT     H244805   6.911   1.416   1.466
14855WAT      O44806   1.849   7.408   9.594
14855WAT     H144807   1.904   7.361   9.525
14855WAT     H244808   1.753   7.411   9.564
14856WAT      O44809   3.036   0.903   2.244
14856WAT     H144810   3.061   0.939   2.154
14856WAT     H244811   3.029   0.803   2.239
14857WAT      O44812   4.644   6.437   0.832
14857WAT     H144813   4.654   6.354   0.777
14857WAT     H244814   4.703   6.508   0.794
14858WAT      O44815   0.015   2.307   6.885
14858WAT     H144816   0.010   2.261   6.796
14858WAT     H244817   0.057   2.397   6.874
14859WAT      O44818   2.867   9.353   3.039
14859WAT     H144819   2.836   9.372   2.946
14859WAT     H244820   2.811   9.405   3.103
14860WAT      O44821   3.031   6.484   8.459
14860WAT     H144822   2.986   6.475   8.371
14860WAT     H244823   3.024   6.398   8.510
14861WAT      O44824   1.538   5.695   7.179
14861WAT     H144825   1.451   5.720   7.220
14861WAT     H244826   1.560   5.758   7.104
14862WAT      O44827   0.360   8.487   4.758
14862WAT     H144828   0.396   8.526   4.673
14862WAT     H244829   0.312   8.402   4.738
14863WAT      O44830   4.236   4.598   3.150
14863WAT     H144831   4.284   4.561   3.071
14863WAT     H244832   4.284   4.678   3.185
14864WAT      O44833   7.610   0.940   4.290
14864WAT     H144834   7.542   1.013   4.288
14864WAT     H244835   7.650   0.935   4.382
14865WAT      O44836   4.803   8.515   9.846
14865WAT     H144837   4.821   8.592   9.908
14865WAT     H244838   4.863   8.520   9.767
14866WAT      O44839   7.852   9.686   2.469
14866WAT     H144840   7.753   9.694   2.459
14866WAT     H244841   7.892   9.656   2.383
14867WAT      O44842   9.488   6.109   4.728
14867WAT     H144843   9.509   6.059   4.644
14867WAT     H244844   9.449   6.046   4.795
14868WAT      O44845   7.934   8.825   8.843
14868WAT     H144846   7.979   8.775   8.769
14868WAT     H244847   7.977   8.800   8.930
14869WAT      O44848   5.217   0.497   0.570
14869WAT     H144849   5.162   0.468   0.649
14869WAT     H244850   5.205   0.595   0.556
14870WAT      O44851   2.662   0.876   4.417
14870WAT     H144852   2.688   0.780   4.433
14870WAT     H244853   2.598   0.905   4.488
14871WAT      O44854   8.283   5.136   2.668
14871WAT     H144855   8.221   5.212   2.650
14871WAT     H244856   8.256   5.057   2.613
14872WAT      O44857   2.389   9.361   7.909
14872WAT     H144858   2.293   9.361   7.937
14872WAT     H244859   2.446   9.390   7.986
14873WAT      O44860   9.370   5.460   9.030
14873WAT     H144861   9.350   5.557   9.040
14873WAT     H244862   9.330   5.426   8.945
14874WAT      O44863   9.833   0.731   6.000
14874WAT     H144864   9.910   0.668   5.996
14874WAT     H244865   9.861   0.815   6.048
14875WAT      O44866   6.209   5.892   0.101
14875WAT     H144867   6.300   5.876   0.138
14875WAT     H244868   6.141   5.886   0.174
14876WAT      O44869   4.089   5.573   7.486
14876WAT     H144870   4.054   5.479   7.483
14876WAT     H244871   4.181   5.575   7.448
14877WAT      O44872   4.164   8.993   6.195
14877WAT     H144873   4.229   8.933   6.240
14877WAT     H244874   4.087   8.939   6.160
14878WAT      O44875   6.530   7.854   2.041
14878WAT     H144876   6.580   7.793   1.980
14878WAT     H244877   6.510   7.940   1.993
14879WAT      O44878   8.439   5.200   3.683
14879WAT     H144879   8.355   5.147   3.669
14879WAT     H244880   8.419   5.278   3.743
14880WAT      O44881   7.611   4.036   7.164
14880WAT     H144882   7.659   3.958   7.205
14880WAT     H244883   7.539   4.067   7.225
14881WAT      O44884   2.074   2.794   7.150
14881WAT     H144885   2.050   2.876   7.201
14881WAT     H244886   1.990   2.747   7.121
14882WAT      O44887   1.919   3.455   4.537
14882WAT     H144888   1.979   3.512   4.481
14882WAT     H244889   1.974   3.407   4.606
14883WAT      O44890   0.657   5.986   5.801
14883WAT     H144891   0.678   5.951   5.709
14883WAT     H244892   0.742   6.002   5.851
14884WAT      O44893   3.519   9.001   5.813
14884WAT     H144894   3.467   8.927   5.856
14884WAT     H244895   3.457   9.056   5.756
14885WAT      O44896   8.557   9.531   9.405
14885WAT     H144897   8.535   9.602   9.471
14885WAT     H244898   8.482   9.521   9.341
14886WAT      O44899   0.500   4.547   5.167
14886WAT     H144900   0.594   4.546   5.199
14886WAT     H244901   0.482   4.464   5.115
14887WAT      O44902   5.006   3.086   3.253
14887WAT     H144903   5.050   3.164   3.298
14887WAT     H244904   4.971   3.023   3.323
14888WAT      O44905   1.929   0.929   0.469
14888WAT     H144906   1.839   0.892   0.494
14888WAT     H244907   1.998   0.857   0.477
14889WAT      O44908   1.313   8.024   7.843
14889WAT     H144909   1.260   7.967   7.780
14889WAT     H244910   1.269   8.113   7.852
14890WAT      O44911   3.773   4.123   7.187
14890WAT     H144912   3.754   4.143   7.091
14890WAT     H244913   3.870   4.100   7.198
14891WAT      O44914   2.376   7.286   9.020
14891WAT     H144915   2.414   7.360   8.965
14891WAT     H244916   2.445   7.255   9.085
14892WAT      O44917   9.805   1.480   8.228
14892WAT     H144918   9.727   1.540   8.214
14892WAT     H244919   9.782   1.410   8.295
14893WAT      O44920   8.359   1.079   7.574
14893WAT     H144921   8.453   1.054   7.599
14893WAT     H244922   8.319   1.006   7.518
14894WAT      O44923   2.144   1.220   3.789
14894WAT     H144924   2.145   1.289   3.716
14894WAT     H244925   2.181   1.134   3.754
14895WAT      O44926   5.786   1.664   3.313
14895WAT     H144927   5.710   1.600   3.327
14895WAT     H244928   5.773   1.744   3.373
14896WAT      O44929   3.544   5.485   1.861
14896WAT     H144930   3.522   5.416   1.792
14896WAT     H244931   3.639   5.472   1.890
14897WAT      O44932   5.269   9.628   8.696
14897WAT     H144933   5.182   9.676   8.683
14897WAT     H244934   5.333   9.655   8.624
14898WAT      O44935   3.998   8.891   6.617
14898WAT     H144936   3.980   8.970   6.559
14898WAT     H244937   3.919   8.830   6.616
14899WAT      O44938   1.275   8.446   8.526
14899WAT     H144939   1.321   8.528   8.492
14899WAT     H244940   1.322   8.413   8.608
14900WAT      O44941   2.853   7.211   5.436
14900WAT     H144942   2.875   7.187   5.530
14900WAT     H244943   2.813   7.132   5.389
14901WAT      O44944   7.037   6.020   1.600
14901WAT     H144945   6.971   5.982   1.535
14901WAT     H244946   7.049   5.958   1.677
14902WAT      O44947   4.415   6.385   7.016
14902WAT     H144948   4.401   6.350   7.109
14902WAT     H244949   4.368   6.473   7.007
14903WAT      O44950   1.362   6.966   9.211
14903WAT     H144951   1.329   6.994   9.121
14903WAT     H244952   1.349   6.868   9.223
14904WAT      O44953   0.377   2.440   0.286
14904WAT     H144954   0.357   2.379   0.363
14904WAT     H244955   0.476   2.445   0.271
14905WAT      O44956   7.006   2.171   0.281
14905WAT     H144957   7.059   2.125   0.352
14905WAT     H244958   7.007   2.116   0.197
14906WAT      O44959   8.771   5.824   7.529
14906WAT     H144960   8.701   5.801   7.597
14906WAT     H244961   8.792   5.922   7.535
14907WAT      O44962   8.081   1.463   4.285
14907WAT     H144963   8.091   1.454   4.384
14907WAT     H244964   8.023   1.542   4.264
14908WAT      O44965   1.125   6.777   6.432
14908WAT     H144966   1.085   6.867   6.446
14908WAT     H244967   1.105   6.745   6.339
14909WAT      O44968   1.303   6.645   6.853
14909WAT     H144969   1.322   6.636   6.951
14909WAT     H244970   1.205   6.638   6.837
14910WAT      O44971   6.249   9.586   5.987
14910WAT     H144972   6.165   9.638   5.975
14910WAT     H244973   6.308   9.633   6.053
14911WAT      O44974   7.711   4.515   2.085
14911WAT     H144975   7.676   4.475   2.000
14911WAT     H244976   7.780   4.583   2.064
14912WAT      O44977   4.706   2.716   5.791
14912WAT     H144978   4.743   2.664   5.869
14912WAT     H244979   4.776   2.780   5.759
14913WAT      O44980   0.370   5.286   8.796
14913WAT     H144981   0.273   5.278   8.820
14913WAT     H244982   0.379   5.311   8.699
14914WAT      O44983   5.404   4.648   8.438
14914WAT     H144984   5.426   4.561   8.394
14914WAT     H244985   5.487   4.703   8.445
14915WAT      O44986   3.435   9.433   8.152
14915WAT     H144987   3.338   9.455   8.154
14915WAT     H244988   3.466   9.430   8.057
14916WAT      O44989   1.068   6.655   0.847
14916WAT     H144990   1.162   6.678   0.822
14916WAT     H244991   1.061   6.650   0.947
14917WAT      O44992   6.672   3.812   2.841
14917WAT     H144993   6.612   3.788   2.918
14917WAT     H244994   6.756   3.854   2.875
14918WAT      O44995   6.023   1.689   3.544
14918WAT     H144996   6.028   1.667   3.447
14918WAT     H244997   5.946   1.641   3.586
14919WAT      O44998   4.700   5.157   6.160
14919WAT     H144999   4.695   5.135   6.063
14919WAT     H245000   4.745   5.245   6.173
14920WAT      O45001   0.985   9.497   3.574
14920WAT     H145002   0.963   9.594   3.588
14920WAT     H245003   0.934   9.461   3.496
14921WAT      O45004   8.924   9.706   9.217
14921WAT     H145005   8.939   9.795   9.173
14921WAT     H245006   8.829   9.700   9.248
14922WAT      O45007   3.820   7.613   5.346
14922WAT     H145008   3.818   7.568   5.257
14922WAT     H245009   3.740   7.672   5.356
14923WAT      O45010   6.160   5.714   9.783
14923WAT     H145011   6.186   5.759   9.869
14923WAT     H245012   6.120   5.625   9.803
14924WAT      O45013   7.996   1.505   9.293
14924WAT     H145014   7.975   1.408   9.279
14924WAT     H245015   7.949   1.538   9.375
14925WAT      O45016   2.443   1.063   7.616
14925WAT     H145017   2.410   1.102   7.701
14925WAT     H245018   2.504   1.128   7.570
14926WAT      O45019   0.382   4.712   8.495
14926WAT     H145020   0.389   4.625   8.544
14926WAT     H245021   0.315   4.704   8.421
14927WAT      O45022   8.317   7.171   7.602
14927WAT     H145023   8.281   7.228   7.528
14927WAT     H245024   8.405   7.133   7.576
14928WAT      O45025   4.062   6.700   0.119
14928WAT     H145026   4.134   6.649   0.165
14928WAT     H245027   4.032   6.775   0.179
14929WAT      O45028   0.428   2.521   8.747
14929WAT     H145029   0.468   2.577   8.674
14929WAT     H245030   0.381   2.443   8.706
14930WAT      O45031   4.030   1.209   6.890
14930WAT     H145032   4.025   1.165   6.800
14930WAT     H245033   4.065   1.143   6.957
14931WAT      O45034   5.582   5.230   1.272
14931WAT     H145035   5.515   5.227   1.347
14931WAT     H245036   5.592   5.138   1.233
14932WAT      O45037   3.528   1.829   8.001
14932WAT     H145038   3.459   1.766   8.036
14932WAT     H245039   3.619   1.792   8.017
14933WAT      O45040   4.162   5.132   5.764
14933WAT     H145041   4.105   5.204   5.803
14933WAT     H245042   4.109   5.047   5.760
14934WAT      O45043   5.349   7.554   9.659
14934WAT     H145044   5.362   7.596   9.749
14934WAT     H245045   5.299   7.468   9.670
14935WAT      O45046   6.099   5.179   1.938
14935WAT     H145047   6.173   5.194   2.004
14935WAT     H245048   6.019   5.233   1.965
14936WAT      O45049   0.936   6.566   2.938
14936WAT     H145050   0.918   6.514   2.854
14936WAT     H245051   0.995   6.512   2.999
14937WAT      O45052   5.015   9.157   7.253
14937WAT     H145053   5.042   9.141   7.348
14937WAT     H245054   5.092   9.193   7.202
14938WAT      O45055   3.755   7.599   1.260
14938WAT     H145056   3.827   7.561   1.317
14938WAT     H245057   3.790   7.680   1.211
14939WAT      O45058   8.578   0.694   6.629
14939WAT     H145059   8.519   0.649   6.562
14939WAT     H245060   8.616   0.778   6.588
14940WAT      O45061   0.864   1.674   6.560
14940WAT     H145062   0.774   1.630   6.558
14940WAT     H245063   0.852   1.773   6.571
14941WAT      O45064   6.318   6.796   4.984
14941WAT     H145065   6.261   6.723   5.022
14941WAT     H245066   6.267   6.882   4.984
14942WAT      O45067   7.737   4.080   5.474
14942WAT     H145068   7.761   3.999   5.420
14942WAT     H245069   7.734   4.160   5.414
14943WAT      O45070   9.502   0.238   3.038
14943WAT     H145071   9.567   0.220   2.964
14943WAT     H245072   9.451   0.155   3.059
14944WAT      O45073   4.417   1.941   1.654
14944WAT     H145074   4.396   1.948   1.751
14944WAT     H245075   4.478   1.863   1.639
14945WAT      O45076   6.434   9.539   4.032
14945WAT     H145077   6.497   9.466   4.058
14945WAT     H245078   6.342   9.502   4.023
14946WAT      O45079   1.681   7.954   7.361
14946WAT     H145080   1.764   7.940   7.308
14946WAT     H245081   1.655   7.869   7.406
14947WAT      O45082   6.020   9.409   7.704
14947WAT     H145083   5.968   9.379   7.624
14947WAT     H245084   6.092   9.472   7.674
14948WAT      O45085   3.559   7.437   0.396
14948WAT     H145086   3.514   7.500   0.332
14948WAT     H245087   3.512   7.440   0.484
14949WAT      O45088   6.812   2.022   6.735
14949WAT     H145089   6.892   2.028   6.794
14949WAT     H245090   6.734   2.067   6.778
14950WAT      O45091   9.526   2.511   1.411
14950WAT     H145092   9.613   2.528   1.457
14950WAT     H245093   9.543   2.482   1.317
14951WAT      O45094   1.396   0.763   7.013
14951WAT     H145095   1.354   0.765   7.104
14951WAT     H245096   1.377   0.849   6.966
14952WAT      O45097   3.768   7.490   8.188
14952WAT     H145098   3.722   7.577   8.205
14952WAT     H245099   3.720   7.416   8.235
14953WAT      O45100   9.450   4.910   3.060
14953WAT     H145101   9.415   4.825   3.099
14953WAT     H245102   9.503   4.959   3.129
14954WAT      O45103   2.648   3.678   8.383
14954WAT     H145104   2.624   3.606   8.448
14954WAT     H245105   2.643   3.642   8.290
14955WAT      O45106   6.896   4.952   6.866
14955WAT     H145107   6.877   5.016   6.792
14955WAT     H245108   6.992   4.924   6.862
14956WAT      O45109   5.257   0.132   0.582
14956WAT     H145110   5.157   0.134   0.576
14956WAT     H245111   5.293   0.224   0.562
14957WAT      O45112   1.029   1.248   8.485
14957WAT     H145113   0.969   1.308   8.538
14957WAT     H245114   1.010   1.153   8.509
14958WAT      O45115   6.940   1.013   8.057
14958WAT     H145116   6.935   0.995   8.155
14958WAT     H245117   6.848   1.005   8.017
14959WAT      O45118   2.076   9.074   1.773
14959WAT     H145119   2.078   9.168   1.738
14959WAT     H245120   2.000   9.025   1.732
14960WAT      O45121   0.611   8.031   5.779
14960WAT     H145122   0.653   7.965   5.841
14960WAT     H245123   0.674   8.052   5.704
14961WAT      O45124   0.487   1.254   4.394
14961WAT     H145125   0.388   1.246   4.390
14961WAT     H245126   0.524   1.263   4.301
14962WAT      O45127   7.911   0.744   2.008
14962WAT     H145128   7.914   0.673   1.937
14962WAT     H245129   7.964   0.823   1.979
14963WAT      O45130   9.079   0.014   1.024
14963WAT     H145131   9.087  -0.012   1.121
14963WAT     H245132   8.982   0.015   0.999
14964WAT      O45133   5.945   0.325   6.802
14964WAT     H145134   6.016   0.379   6.848
14964WAT     H245135   5.944   0.233   6.839
14965WAT      O45136   8.832   1.945   0.613
14965WAT     H145137   8.866   1.895   0.692
14965WAT     H245138   8.809   1.880   0.540
14966WAT      O45139   2.809   0.150   5.145
14966WAT     H145140   2.725   0.096   5.137
14966WAT     H245141   2.884   0.090   5.173
14967WAT      O45142   7.481   8.758   8.726
14967WAT     H145143   7.405   8.819   8.749
14967WAT     H245144   7.565   8.791   8.768
14968WAT      O45145   4.440   8.239   4.059
14968WAT     H145146   4.354   8.208   4.100
14968WAT     H245147   4.514   8.231   4.126
14969WAT      O45148   3.575   8.724   1.027
14969WAT     H145149   3.618   8.814   1.016
14969WAT     H245150   3.493   8.719   0.970
14970WAT      O45151   7.456   6.578   2.671
14970WAT     H145152   7.483   6.482   2.663
14970WAT     H245153   7.435   6.599   2.766
14971WAT      O45154   0.484   4.071   3.081
14971WAT     H145155   0.534   3.986   3.094
14971WAT     H245156   0.506   4.134   3.155
14972WAT      O45157   0.554   0.033   8.996
14972WAT     H145158   0.539  -0.029   8.919
14972WAT     H245159   0.503   0.118   8.981
14973WAT      O45160   4.129   0.113   0.237
14973WAT     H145161   4.052   0.072   0.189
14973WAT     H245162   4.174   0.180   0.177
14974WAT      O45163   7.273   5.147   5.585
14974WAT     H145164   7.294   5.051   5.605
14974WAT     H245165   7.177   5.165   5.604
14975WAT      O45166   5.186   5.988   5.888
14975WAT     H145167   5.204   6.058   5.957
14975WAT     H245168   5.250   5.912   5.899
14976WAT      O45169   2.213   0.785   4.737
14976WAT     H145170   2.272   0.716   4.695
14976WAT     H245171   2.201   0.861   4.673
14977WAT      O45172   7.413   4.648   7.507
14977WAT     H145173   7.397   4.555   7.476
14977WAT     H245174   7.507   4.676   7.484
14978WAT      O45175   6.005   7.128   4.157
14978WAT     H145176   6.032   7.069   4.081
14978WAT     H245177   5.912   7.105   4.185
14979WAT      O45178   9.478   6.635   8.762
14979WAT     H145179   9.412   6.648   8.836
14979WAT     H245180   9.566   6.607   8.800
14980WAT      O45181   0.740   8.583   5.773
14980WAT     H145182   0.721   8.652   5.703
14980WAT     H245183   0.778   8.628   5.854
14981WAT      O45184   5.482   0.126   5.345
14981WAT     H145185   5.544   0.089   5.276
14981WAT     H245186   5.524   0.119   5.436
14982WAT      O45187   9.145   5.424   0.495
14982WAT     H145188   9.108   5.431   0.403
14982WAT     H245189   9.176   5.330   0.512
14983WAT      O45190   5.569   2.549   7.363
14983WAT     H145191   5.668   2.537   7.371
14983WAT     H245192   5.525   2.459   7.360
14984WAT      O45193   0.773   8.512   1.336
14984WAT     H145194   0.715   8.591   1.354
14984WAT     H245195   0.746   8.468   1.250
14985WAT      O45196   5.976   3.834   8.637
14985WAT     H145197   6.040   3.844   8.561
14985WAT     H245198   5.939   3.741   8.637
14986WAT      O45199   0.429   8.170   6.817
14986WAT     H145200   0.374   8.120   6.750
14986WAT     H245201   0.400   8.266   6.818
14987WAT      O45202   6.295   1.005   6.892
14987WAT     H145203   6.210   1.058   6.894
14987WAT     H245204   6.307   0.957   6.979
14988WAT      O45205   7.125   2.934   4.841
14988WAT     H145206   7.137   3.033   4.838
14988WAT     H245207   7.124   2.903   4.936
14989WAT      O45208   3.095   4.127   7.733
14989WAT     H145209   3.015   4.186   7.725
14989WAT     H245210   3.101   4.090   7.826
14990WAT      O45211   8.555   9.424   1.536
14990WAT     H145212   8.565   9.492   1.608
14990WAT     H245213   8.634   9.428   1.475
14991WAT      O45214   1.256   8.680   2.950
14991WAT     H145215   1.188   8.735   2.900
14991WAT     H245216   1.318   8.636   2.885
14992WAT      O45217   8.813   1.371   8.735
14992WAT     H145218   8.803   1.470   8.749
14992WAT     H245219   8.752   1.341   8.663
14993WAT      O45220   5.774   3.984   3.181
14993WAT     H145221   5.683   3.969   3.219
14993WAT     H245222   5.774   3.963   3.083
14994WAT      O45223   1.350   7.878   5.957
14994WAT     H145224   1.318   7.860   6.050
14994WAT     H245225   1.322   7.970   5.929
14995WAT      O45226   2.476   7.092   9.785
14995WAT     H145227   2.395   7.113   9.730
14995WAT     H245228   2.544   7.165   9.773
14996WAT      O45229   5.228   4.135   4.325
14996WAT     H145230   5.172   4.055   4.345
14996WAT     H245231   5.325   4.109   4.323
14997WAT      O45232   2.838   5.851   2.591
14997WAT     H145233   2.864   5.911   2.515
14997WAT     H245234   2.842   5.902   2.677
14998WAT      O45235   8.960   3.269   2.612
14998WAT     H145236   9.059   3.277   2.604
14998WAT     H245237   8.926   3.210   2.539
14999WAT      O45238   8.769   8.248   6.676
14999WAT     H145239   8.681   8.240   6.723
14999WAT     H245240   8.803   8.341   6.686
15000WAT      O45241   6.007   7.636   7.676
15000WAT     H145242   6.042   7.550   7.639
15000WAT     H245243   6.020   7.637   7.775
15001WAT      O45244   4.182   5.347   4.702
15001WAT     H145245   4.255   5.318   4.639
15001WAT     H245246   4.219   5.354   4.795
15002WAT      O45247   2.203   0.269   6.893
15002WAT     H145248   2.124   0.279   6.954
15002WAT     H245249   2.208   0.175   6.861
15003WAT      O45250   0.592   0.379   9.007
15003WAT     H145251   0.589   0.473   9.042
15003WAT     H245252   0.499   0.341   9.003
15004WAT      O45253   4.474   2.569   3.933
15004WAT     H145254   4.549   2.600   3.875
15004WAT     H245255   4.395   2.630   3.921
15005WAT      O45256   7.041   9.570   7.799
15005WAT     H145257   6.969   9.634   7.770
15005WAT     H245258   7.120   9.580   7.739
15006WAT      O45259   0.656   9.745   2.308
15006WAT     H145260   0.680   9.835   2.345
15006WAT     H245261   0.556   9.738   2.299
15007WAT      O45262   8.792   4.005   5.702
15007WAT     H145263   8.768   3.916   5.743
15007WAT     H245264   8.737   4.077   5.745
15008WAT      O45265   9.590   7.068   4.604
15008WAT     H145266   9.558   7.054   4.511
15008WAT     H245267   9.663   7.137   4.605
15009WAT      O45268   1.724   5.434   7.461
15009WAT     H145269   1.696   5.527   7.440
15009WAT     H245270   1.683   5.371   7.395
15010WAT      O45271   2.342   6.659   1.753
15010WAT     H145272   2.338   6.571   1.800
15010WAT     H245273   2.270   6.719   1.789
15011WAT      O45274   2.407   2.265   2.231
15011WAT     H145275   2.338   2.248   2.301
15011WAT     H245276   2.378   2.342   2.173
15012WAT      O45277   6.566   9.064   0.275
15012WAT     H145278   6.488   9.123   0.254
15012WAT     H245279   6.560   9.035   0.371
15013WAT      O45280   0.972   6.083   7.849
15013WAT     H145281   0.885   6.102   7.896
15013WAT     H245282   0.984   5.984   7.840
15014WAT      O45283   4.010   0.937   1.046
15014WAT     H145284   3.955   0.857   1.019
15014WAT     H245285   4.047   0.981   0.964
15015WAT      O45286   6.518   8.547   6.431
15015WAT     H145287   6.484   8.470   6.377
15015WAT     H245288   6.559   8.514   6.515
15016WAT      O45289   9.788   7.043   7.496
15016WAT     H145290   9.695   7.058   7.528
15016WAT     H245291   9.852   7.062   7.571
15017WAT      O45292   5.392   0.754   9.664
15017WAT     H145293   5.332   0.759   9.583
15017WAT     H245294   5.410   0.658   9.686
15018WAT      O45295   0.949   6.776   0.128
15018WAT     H145296   0.971   6.840   0.201
15018WAT     H245297   0.952   6.823   0.040
15019WAT      O45298   8.622   5.437   5.499
15019WAT     H145299   8.662   5.406   5.585
15019WAT     H245300   8.657   5.382   5.423
15020WAT      O45301   0.370   9.096   8.346
15020WAT     H145302   0.277   9.116   8.375
15020WAT     H245303   0.370   9.067   8.250
15021WAT      O45304   0.950   3.409   2.287
15021WAT     H145305   1.040   3.382   2.253
15021WAT     H245306   0.894   3.328   2.303
15022WAT      O45307   9.717   0.877   7.664
15022WAT     H145308   9.717   0.779   7.646
15022WAT     H245309   9.666   0.895   7.748
15023WAT      O45310   3.908   3.792   2.198
15023WAT     H145311   3.999   3.789   2.238
15023WAT     H245312   3.913   3.827   2.104
15024WAT      O45313   6.963   0.129   2.250
15024WAT     H145314   7.060   0.149   2.261
15024WAT     H245315   6.952   0.049   2.191
15025WAT      O45316   8.195   5.393   3.478
15025WAT     H145317   8.169   5.369   3.385
15025WAT     H245318   8.127   5.357   3.542
15026WAT      O45319   9.254   9.235   1.172
15026WAT     H145320   9.160   9.200   1.174
15026WAT     H245321   9.255   9.331   1.201
15027WAT      O45322   8.551   1.551   7.148
15027WAT     H145323   8.461   1.589   7.171
15027WAT     H245324   8.607   1.622   7.106
15028WAT      O45325   2.326   1.496   4.696
15028WAT     H145326   2.366   1.572   4.644
15028WAT     H245327   2.308   1.419   4.635
15029WAT      O45328   6.841   2.883   9.150
15029WAT     H145329   6.898   2.802   9.162
15029WAT     H245330   6.874   2.956   9.209
15030WAT      O45331   2.283   6.643   3.818
15030WAT     H145332   2.361   6.592   3.781
15030WAT     H245333   2.200   6.618   3.768
15031WAT      O45334   1.915   4.426   3.957
15031WAT     H145335   1.865   4.339   3.963
15031WAT     H245336   1.864   4.497   4.005
15032WAT      O45337   1.101   4.819   5.893
15032WAT     H145338   1.165   4.808   5.817
15032WAT     H245339   1.100   4.914   5.924
15033WAT      O45340   1.816   8.134   9.130
15033WAT     H145341   1.729   8.178   9.153
15033WAT     H245342   1.887   8.165   9.194
15034WAT      O45343   7.004   7.370   7.276
15034WAT     H145344   7.052   7.282   7.268
15034WAT     H245345   6.999   7.413   7.185
15035WAT      O45346   8.055   0.911   8.488
15035WAT     H145347   7.978   0.966   8.456
15035WAT     H245348   8.138   0.966   8.485
15036WAT      O45349   7.244   1.238   7.696
15036WAT     H145350   7.212   1.200   7.610
15036WAT     H245351   7.319   1.183   7.731
15037WAT      O45352   4.925   5.115   7.728
15037WAT     H145353   4.908   5.152   7.819
15037WAT     H245354   5.023   5.097   7.716
15038WAT      O45355   6.609   7.970   2.290
15038WAT     H145356   6.574   7.930   2.205
15038WAT     H245357   6.678   7.910   2.330
15039WAT      O45358   3.993   5.026   7.788
15039WAT     H145359   3.897   5.037   7.759
15039WAT     H245360   3.997   5.024   7.888
15040WAT      O45361   8.094   6.935   5.699
15040WAT     H145362   8.169   7.001   5.698
15040WAT     H245363   8.074   6.908   5.793
15041WAT      O45364   9.121   5.321   6.770
15041WAT     H145365   9.134   5.321   6.671
15041WAT     H245366   9.152   5.409   6.807
15042WAT      O45367   1.621   4.362   7.155
15042WAT     H145368   1.650   4.394   7.245
15042WAT     H245369   1.693   4.307   7.114
15043WAT      O45370   6.559   3.616   5.577
15043WAT     H145371   6.603   3.567   5.502
15043WAT     H245372   6.562   3.561   5.660
15044WAT      O45373   4.001   3.578   9.078
15044WAT     H145374   3.993   3.597   9.176
15044WAT     H245375   4.097   3.587   9.050
15045WAT      O45376   7.201   0.019   3.438
15045WAT     H145377   7.225  -0.078   3.432
15045WAT     H245378   7.102   0.029   3.439
15046WAT      O45379   8.087   3.822   2.176
15046WAT     H145380   8.067   3.842   2.081
15046WAT     H245381   8.015   3.859   2.235
15047WAT      O45382   1.830   1.026   5.427
15047WAT     H145383   1.806   1.011   5.523
15047WAT     H245384   1.756   0.992   5.369
15048WAT      O45385   1.394   2.906   4.932
15048WAT     H145386   1.310   2.933   4.885
15048WAT     H245387   1.472   2.948   4.885
15049WAT      O45388   7.702   1.526   5.358
15049WAT     H145389   7.719   1.623   5.341
15049WAT     H245390   7.686   1.512   5.456
15050WAT      O45391   9.343   5.159   9.732
15050WAT     H145392   9.355   5.084   9.798
15050WAT     H245393   9.252   5.197   9.742
15051WAT      O45394   2.909   1.106   2.361
15051WAT     H145395   2.971   1.185   2.355
15051WAT     H245396   2.951   1.027   2.315
15052WAT      O45397   1.336   8.162   3.298
15052WAT     H145398   1.311   8.255   3.270
15052WAT     H245399   1.418   8.166   3.354
15053WAT      O45400   7.153   9.017   9.254
15053WAT     H145401   7.082   9.002   9.185
15053WAT     H245402   7.114   9.062   9.334
15054WAT      O45403   8.601   6.771   9.148
15054WAT     H145404   8.576   6.704   9.218
15054WAT     H245405   8.528   6.778   9.080
15055WAT      O45406   5.057   2.221   6.391
15055WAT     H145407   5.010   2.262   6.469
15055WAT     H245408   5.117   2.289   6.348
15056WAT      O45409   4.015   4.590   2.916
15056WAT     H145410   3.981   4.648   2.842
15056WAT     H245411   4.038   4.648   2.995
15057WAT      O45412   8.857   2.596   5.510
15057WAT     H145413   8.897   2.670   5.455
15057WAT     H245414   8.817   2.635   5.593
15058WAT      O45415   9.009   7.005   3.758
15058WAT     H145416   9.013   6.941   3.682
15058WAT     H245417   9.079   7.075   3.747
15059WAT      O45418   8.853   6.584   5.894
15059WAT     H145419   8.755   6.571   5.883
15059WAT     H245420   8.870   6.642   5.974
15060WAT      O45421   0.709   5.667   1.718
15060WAT     H145422   0.708   5.568   1.728
15060WAT     H245423   0.626   5.706   1.758
15061WAT      O45424   5.690   0.201   8.833
15061WAT     H145425   5.726   0.107   8.840
15061WAT     H245426   5.710   0.237   8.742
15062WAT      O45427   5.288   7.022   2.979
15062WAT     H145428   5.237   7.106   2.960
15062WAT     H245429   5.331   7.029   3.070
15063WAT      O45430   0.426   2.773   2.397
15063WAT     H145431   0.333   2.757   2.428
15063WAT     H245432   0.447   2.710   2.322
15064WAT      O45433   8.194   3.325   1.924
15064WAT     H145434   8.290   3.305   1.943
15064WAT     H245435   8.170   3.413   1.965
15065WAT      O45436   7.204   5.830   4.508
15065WAT     H145437   7.204   5.839   4.608
15065WAT     H245438   7.294   5.854   4.472
15066WAT      O45439   7.228   2.118   8.292
15066WAT     H145440   7.301   2.173   8.250
15066WAT     H245441   7.157   2.178   8.328
15067WAT      O45442   0.055   0.107   1.168
15067WAT     H145443  -0.015   0.109   1.240
15067WAT     H245444   0.146   0.109   1.210
15068WAT      O45445   0.832   5.419   5.956
15068WAT     H145446   0.836   5.327   5.994
15068WAT     H245447   0.736   5.446   5.944
15069WAT      O45448   5.701   3.792   8.833
15069WAT     H145449   5.767   3.864   8.810
15069WAT     H245450   5.741   3.731   8.901
15070WAT      O45451   2.086   3.333   3.193
15070WAT     H145452   2.145   3.341   3.112
15070WAT     H245453   2.070   3.236   3.213
15071WAT      O45454   3.737   6.799   2.961
15071WAT     H145455   3.732   6.759   2.870
15071WAT     H245456   3.745   6.726   3.029
15072WAT      O45457   2.369   6.579   2.473
15072WAT     H145458   2.285   6.626   2.443
15072WAT     H245459   2.396   6.512   2.404
15073WAT      O45460   5.096   0.671   4.671
15073WAT     H145461   5.193   0.684   4.649
15073WAT     H245462   5.062   0.590   4.624
15074WAT      O45463   2.972   4.704   6.670
15074WAT     H145464   3.010   4.776   6.612
15074WAT     H245465   3.044   4.638   6.692
15075WAT      O45466   9.834   0.870   4.967
15075WAT     H145467   9.840   0.936   5.041
15075WAT     H245468   9.900   0.796   4.981
15076WAT      O45469   5.532   2.455   9.344
15076WAT     H145470   5.519   2.513   9.424
15076WAT     H245471   5.572   2.508   9.270
15077WAT      O45472   5.061   1.912   0.145
15077WAT     H145473   5.100   1.985   0.201
15077WAT     H245474   5.135   1.861   0.101
15078WAT      O45475   2.746   9.368   8.033
15078WAT     H145476   2.669   9.376   8.096
15078WAT     H245477   2.798   9.285   8.056
15079WAT      O45478   0.398   8.058   9.513
15079WAT     H145479   0.442   7.982   9.466
15079WAT     H245480   0.406   8.045   9.612
15080WAT      O45481   0.427   4.083   5.016
15080WAT     H145482   0.401   4.017   5.086
15080WAT     H245483   0.411   4.044   4.925
15081WAT      O45484   0.454   0.393   4.554
15081WAT     H145485   0.392   0.344   4.616
15081WAT     H245486   0.404   0.467   4.508
15082WAT      O45487   8.389   4.821   4.716
15082WAT     H145488   8.434   4.777   4.638
15082WAT     H245489   8.356   4.911   4.688
15083WAT      O45490   7.502   4.429   8.179
15083WAT     H145491   7.594   4.458   8.152
15083WAT     H245492   7.498   4.329   8.181
15084WAT      O45493   0.664   7.289   4.040
15084WAT     H145494   0.743   7.232   4.017
15084WAT     H245495   0.596   7.234   4.088
15085WAT      O45496   0.296   3.641   3.711
15085WAT     H145497   0.325   3.653   3.616
15085WAT     H245498   0.200   3.616   3.714
15086WAT      O45499   7.565   3.615   7.200
15086WAT     H145500   7.522   3.526   7.218
15086WAT     H245501   7.510   3.687   7.243
15087WAT      O45502   4.086   8.608   6.392
15087WAT     H145503   4.120   8.614   6.299
15087WAT     H245504   4.159   8.632   6.456
15088WAT      O45505   7.450   7.924   6.538
15088WAT     H145506   7.354   7.949   6.552
15088WAT     H245507   7.458   7.825   6.529
15089WAT      O45508   6.897   2.735   8.184
15089WAT     H145509   6.858   2.666   8.123
15089WAT     H245510   6.823   2.791   8.223
15090WAT      O45511   8.057   0.940   7.968
15090WAT     H145512   8.030   1.034   7.988
15090WAT     H245513   7.988   0.877   8.003
15091WAT      O45514   7.249   5.241   0.406
15091WAT     H145515   7.196   5.317   0.369
15091WAT     H245516   7.260   5.171   0.335
15092WAT      O45517   4.465   6.151   4.324
15092WAT     H145518   4.480   6.249   4.340
15092WAT     H245519   4.378   6.124   4.363
15093WAT      O45520   1.708   9.805   6.792
15093WAT     H145521   1.752   9.777   6.707
15093WAT     H245522   1.771   9.791   6.868
15094WAT      O45523   2.610   7.933   5.350
15094WAT     H145524   2.606   8.031   5.332
15094WAT     H245525   2.521   7.902   5.385
15095WAT      O45526   9.496   6.518   5.287
15095WAT     H145527   9.579   6.475   5.323
15095WAT     H245528   9.519   6.605   5.243
15096WAT      O45529   2.863   6.196   6.081
15096WAT     H145530   2.899   6.170   5.992
15096WAT     H245531   2.851   6.114   6.138
15097WAT      O45532   2.434   5.673   3.088
15097WAT     H145533   2.459   5.768   3.105
15097WAT     H245534   2.414   5.660   2.991
15098WAT      O45535   6.361   9.668   6.527
15098WAT     H145536   6.351   9.743   6.462
15098WAT     H245537   6.284   9.668   6.591
15099WAT      O45538   1.478   3.679   3.448
15099WAT     H145539   1.463   3.603   3.510
15099WAT     H245540   1.471   3.765   3.498
15100WAT      O45541   7.928   0.831   5.254
15100WAT     H145542   7.916   0.862   5.160
15100WAT     H245543   7.917   0.908   5.316
15101WAT      O45544   2.725   1.440   4.501
15101WAT     H145545   2.665   1.451   4.580
15101WAT     H245546   2.678   1.384   4.432
15102WAT      O45547   7.180   4.394   6.115
15102WAT     H145548   7.095   4.440   6.142
15102WAT     H245549   7.255   4.429   6.171
15103WAT      O45550   5.482   9.677   5.487
15103WAT     H145551   5.526   9.599   5.443
15103WAT     H245552   5.509   9.761   5.440
15104WAT      O45553   4.278   2.120   3.359
15104WAT     H145554   4.193   2.088   3.317
15104WAT     H245555   4.284   2.219   3.351
15105WAT      O45556   0.107   0.292   2.260
15105WAT     H145557   0.041   0.306   2.334
15105WAT     H245558   0.108   0.196   2.235
15106WAT      O45559   0.241   2.842   6.912
15106WAT     H145560   0.221   2.934   6.946
15106WAT     H245561   0.210   2.834   6.818
15107WAT      O45562   8.538   6.705   3.532
15107WAT     H145563   8.522   6.708   3.631
15107WAT     H245564   8.458   6.665   3.487
15108WAT      O45565   9.380   2.667   8.769
15108WAT     H145566   9.448   2.642   8.700
15108WAT     H245567   9.334   2.585   8.802
15109WAT      O45568   8.734   3.120   3.301
15109WAT     H145569   8.793   3.157   3.228
15109WAT     H245570   8.788   3.059   3.359
15110WAT      O45571   5.731   0.767   0.436
15110WAT     H145572   5.807   0.711   0.468
15110WAT     H245573   5.669   0.712   0.381
15111WAT      O45574   0.421   0.582   7.393
15111WAT     H145575   0.409   0.484   7.406
15111WAT     H245576   0.343   0.631   7.432
15112WAT      O45577   2.569   2.641   0.964
15112WAT     H145578   2.668   2.661   0.962
15112WAT     H245579   2.528   2.667   0.877
15113WAT      O45580   1.108   6.623   8.100
15113WAT     H145581   1.046   6.601   8.025
15113WAT     H245582   1.191   6.567   8.092
15114WAT      O45583   9.258   2.250   7.323
15114WAT     H145584   9.244   2.334   7.271
15114WAT     H245585   9.262   2.271   7.421
15115WAT      O45586   7.511   0.872   0.347
15115WAT     H145587   7.454   0.807   0.397
15115WAT     H245588   7.554   0.826   0.269
15116WAT      O45589   1.138   0.892   2.506
15116WAT     H145590   1.055   0.942   2.527
15116WAT     H245591   1.142   0.873   2.408
15117WAT      O45592   8.096   8.739   9.051
15117WAT     H145593   8.042   8.719   9.133
15117WAT     H245594   8.149   8.659   9.026
15118WAT      O45595   3.639   1.972   7.679
15118WAT     H145596   3.555   1.980   7.625
15118WAT     H245597   3.621   1.916   7.760
15119WAT      O45598   3.261   1.881   1.250
15119WAT     H145599   3.225   1.825   1.176
15119WAT     H245600   3.333   1.942   1.215
15120WAT      O45601   3.527   4.329   3.459
15120WAT     H145602   3.519   4.361   3.553
15120WAT     H245603   3.601   4.262   3.454
15121WAT      O45604   0.657   8.164   6.970
15121WAT     H145605   0.697   8.072   6.966
15121WAT     H245606   0.566   8.162   6.928
15122WAT      O45607   4.517   1.016   6.523
15122WAT     H145608   4.524   1.024   6.623
15122WAT     H245609   4.562   1.094   6.480
15123WAT      O45610   2.300   1.327   4.468
15123WAT     H145611   2.360   1.297   4.394
15123WAT     H245612   2.207   1.294   4.450
15124WAT      O45613   6.163   0.265   8.087
15124WAT     H145614   6.179   0.313   8.173
15124WAT     H245615   6.066   0.271   8.063
15125WAT      O45616   7.085   1.303   0.446
15125WAT     H145617   7.081   1.389   0.497
15125WAT     H245618   7.172   1.258   0.462
15126WAT      O45619   5.847   8.985   7.015
15126WAT     H145620   5.929   8.932   6.992
15126WAT     H245621   5.824   9.045   6.938
15127WAT      O45622   6.083   7.847   0.696
15127WAT     H145623   6.118   7.772   0.640
15127WAT     H245624   6.016   7.899   0.643
15128WAT      O45625   1.955   8.231   9.333
15128WAT     H145626   1.974   8.235   9.431
15128WAT     H245627   1.951   8.324   9.296
15129WAT      O45628   0.000   8.036   5.779
15129WAT     H145629  -0.013   8.112   5.715
15129WAT     H245630   0.075   7.978   5.747
15130WAT      O45631   5.113   1.092   4.555
15130WAT     H145632   5.023   1.054   4.534
15130WAT     H245633   5.136   1.070   4.650
15131WAT      O45634   4.493   2.135   2.123
15131WAT     H145635   4.566   2.202   2.130
15131WAT     H245636   4.529   2.044   2.146
15132WAT      O45637   7.230   6.148   2.014
15132WAT     H145638   7.162   6.117   2.080
15132WAT     H245639   7.196   6.229   1.966
15133WAT      O45640   3.909   6.665   8.253
15133WAT     H145641   3.948   6.594   8.311
15133WAT     H245642   3.826   6.701   8.294
15134WAT      O45643   6.050   2.862   4.930
15134WAT     H145644   6.102   2.946   4.942
15134WAT     H245645   6.092   2.807   4.858
15135WAT      O45646   8.949   3.974   4.354
15135WAT     H145647   8.956   4.007   4.448
15135WAT     H245648   8.922   3.877   4.355
15136WAT      O45649   3.647   6.430   9.368
15136WAT     H145650   3.595   6.350   9.399
15136WAT     H245651   3.700   6.405   9.287
15137WAT      O45652   8.185   2.041   5.580
15137WAT     H145653   8.154   2.030   5.675
15137WAT     H245654   8.106   2.063   5.522
15138WAT      O45655   8.261   9.654   5.106
15138WAT     H145656   8.201   9.710   5.163
15138WAT     H245657   8.326   9.714   5.058
15139WAT      O45658   5.478   6.461   0.715
15139WAT     H145659   5.437   6.495   0.630
15139WAT     H245660   5.415   6.396   0.759
15140WAT      O45661   5.962   4.678   4.569
15140WAT     H145662   5.877   4.661   4.519
15140WAT     H245663   6.035   4.700   4.505
15141WAT      O45664   6.936   6.845   0.846
15141WAT     H145665   7.031   6.824   0.868
15141WAT     H245666   6.897   6.904   0.917
15142WAT      O45667   2.431   1.297   2.512
15142WAT     H145668   2.446   1.347   2.427
15142WAT     H245669   2.342   1.322   2.550
15143WAT      O45670   4.109   0.269   2.565
15143WAT     H145671   4.024   0.275   2.513
15143WAT     H245672   4.181   0.229   2.508
15144WAT      O45673   2.362   7.668   0.718
15144WAT     H145674   2.323   7.634   0.632
15144WAT     H245675   2.461   7.660   0.715
15145WAT      O45676   1.223   3.774   2.160
15145WAT     H145677   1.217   3.874   2.155
15145WAT     H245678   1.179   3.734   2.080
15146WAT      O45679   5.249   9.374   7.562
15146WAT     H145680   5.259   9.401   7.658
15146WAT     H245681   5.332   9.326   7.533
15147WAT      O45682   5.787   6.874   2.464
15147WAT     H145683   5.834   6.961   2.448
15147WAT     H245684   5.825   6.804   2.403
15148WAT      O45685   2.922   5.516   5.327
15148WAT     H145686   2.940   5.523   5.229
15148WAT     H245687   2.834   5.470   5.341
15149WAT      O45688   7.791   2.534   4.440
15149WAT     H145689   7.733   2.589   4.380
15149WAT     H245690   7.739   2.506   4.521
15150WAT      O45691   9.690   6.137   4.994
15150WAT     H145692   9.698   6.038   4.981
15150WAT     H245693   9.708   6.184   4.907
15151WAT      O45694   8.675   9.145   2.284
15151WAT     H145695   8.744   9.163   2.353
15151WAT     H245696   8.663   9.046   2.274
15152WAT      O45697   0.962   3.630   2.490
15152WAT     H145698   0.928   3.583   2.571
15152WAT     H245699   0.962   3.567   2.412
15153WAT      O45700   4.904   0.686   7.357
15153WAT     H145701   4.943   0.615   7.298
15153WAT     H245702   4.977   0.744   7.393
15154WAT      O45703   6.202   6.445   1.735
15154WAT     H145704   6.254   6.470   1.817
15154WAT     H245705   6.166   6.352   1.745
15155WAT      O45706   0.539   8.823   5.333
15155WAT     H145707   0.480   8.789   5.406
15155WAT     H245708   0.591   8.746   5.295
15156WAT      O45709   3.555   6.828   0.323
15156WAT     H145710   3.646   6.814   0.362
15156WAT     H245711   3.494   6.865   0.393
15157WAT      O45712   4.057   0.762   3.272
15157WAT     H145713   4.005   0.760   3.186
15157WAT     H245714   4.015   0.699   3.338
15158WAT      O45715   6.537   2.034   2.867
15158WAT     H145716   6.586   1.988   2.941
15158WAT     H245717   6.600   2.049   2.790
15159WAT      O45718   2.650   0.747   4.782
15159WAT     H145719   2.665   0.772   4.878
15159WAT     H245720   2.614   0.826   4.733
15160WAT      O45721   4.320   5.573   3.496
15160WAT     H145722   4.409   5.613   3.515
15160WAT     H245723   4.288   5.604   3.406
15161WAT      O45724   4.751   4.102   8.918
15161WAT     H145725   4.816   4.026   8.916
15161WAT     H245726   4.759   4.156   8.834
15162WAT      O45727   4.018   1.746   1.848
15162WAT     H145728   3.984   1.816   1.785
15162WAT     H245729   4.100   1.704   1.809
15163WAT      O45730   5.528   0.026   1.236
15163WAT     H145731   5.432   0.010   1.213
15163WAT     H245732   5.552  -0.028   1.316
15164WAT      O45733   2.724   1.142   7.497
15164WAT     H145734   2.789   1.211   7.530
15164WAT     H245735   2.711   1.072   7.568
15165WAT      O45736   2.335   6.146   0.308
15165WAT     H145737   2.434   6.159   0.316
15165WAT     H245738   2.299   6.210   0.240
15166WAT      O45739   2.042   1.896   7.575
15166WAT     H145740   2.011   1.827   7.510
15166WAT     H245741   1.969   1.916   7.641
15167WAT      O45742   6.929   6.008   9.754
15167WAT     H145743   6.877   6.087   9.722
15167WAT     H245744   7.022   6.011   9.717
15168WAT      O45745   5.716   1.996   8.428
15168WAT     H145746   5.810   2.020   8.403
15168WAT     H245747   5.656   2.074   8.408
15169WAT      O45748   9.680   2.201   8.904
15169WAT     H145749   9.682   2.289   8.856
15169WAT     H245750   9.603   2.147   8.870
15170WAT      O45751   1.811   4.864   7.611
15170WAT     H145752   1.859   4.944   7.574
15170WAT     H245753   1.824   4.786   7.549
15171WAT      O45754   9.753   3.238   1.205
15171WAT     H145755   9.687   3.235   1.130
15171WAT     H245756   9.704   3.243   1.292
15172WAT      O45757   9.892   3.525   4.629
15172WAT     H145758   9.899   3.449   4.566
15172WAT     H245759   9.796   3.550   4.642
15173WAT      O45760   9.671   2.193   7.632
15173WAT     H145761   9.708   2.245   7.555
15173WAT     H245762   9.701   2.098   7.625
15174WAT      O45763   3.744   7.607   3.497
15174WAT     H145764   3.820   7.553   3.462
15174WAT     H245765   3.737   7.596   3.596
15175WAT      O45766   0.464   9.507   5.584
15175WAT     H145767   0.531   9.555   5.640
15175WAT     H245768   0.372   9.533   5.613
15176WAT      O45769   1.846   7.085   9.243
15176WAT     H145770   1.860   7.045   9.152
15176WAT     H245771   1.753   7.067   9.274
15177WAT      O45772   4.144   2.204   6.167
15177WAT     H145773   4.225   2.163   6.124
15177WAT     H245774   4.120   2.152   6.249
15178WAT      O45775   3.247   7.054   3.998
15178WAT     H145776   3.226   6.980   3.935
15178WAT     H245777   3.326   7.028   4.054
15179WAT      O45778   2.977   7.139   7.905
15179WAT     H145779   2.902   7.076   7.925
15179WAT     H245780   3.045   7.134   7.978
15180WAT      O45781   6.039   0.203   4.990
15180WAT     H145782   6.078   0.253   4.913
15180WAT     H245783   6.038   0.105   4.969
15181WAT      O45784   1.157   0.645   8.286
15181WAT     H145785   1.220   0.723   8.274
15181WAT     H245786   1.135   0.605   8.197
15182WAT      O45787   8.804   8.649   1.501
15182WAT     H145788   8.884   8.627   1.557
15182WAT     H245789   8.786   8.747   1.506
15183WAT      O45790   3.923   4.593   7.114
15183WAT     H145791   3.890   4.625   7.203
15183WAT     H245792   3.964   4.669   7.064
15184WAT      O45793   6.068   7.464   8.589
15184WAT     H145794   6.111   7.523   8.656
15184WAT     H245795   6.051   7.374   8.629
15185WAT      O45796   5.302   3.538   9.582
15185WAT     H145797   5.294   3.600   9.660
15185WAT     H245798   5.214   3.535   9.533
15186WAT      O45799   8.405   5.517   4.627
15186WAT     H145800   8.409   5.595   4.690
15186WAT     H245801   8.322   5.523   4.572
15187WAT      O45802   9.380   0.462   9.420
15187WAT     H145803   9.361   0.443   9.324
15187WAT     H245804   9.455   0.527   9.427
15188WAT      O45805   1.723   0.195   0.398
15188WAT     H145806   1.818   0.220   0.382
15188WAT     H245807   1.716   0.144   0.483
15189WAT      O45808   8.838   1.528   5.849
15189WAT     H145809   8.803   1.620   5.866
15189WAT     H245810   8.922   1.533   5.794
15190WAT      O45811   1.819   9.285   1.608
15190WAT     H145812   1.791   9.362   1.667
15190WAT     H245813   1.749   9.214   1.612
15191WAT      O45814   9.132   7.530   6.294
15191WAT     H145815   9.039   7.528   6.258
15191WAT     H245816   9.184   7.601   6.248
15192WAT      O45817   2.162   3.160   4.519
15192WAT     H145818   2.237   3.094   4.520
15192WAT     H245819   2.085   3.123   4.572
15193WAT      O45820   3.366   2.157   6.525
15193WAT     H145821   3.407   2.082   6.576
15193WAT     H245822   3.424   2.179   6.446
15194WAT      O45823   7.968   9.316   2.084
15194WAT     H145824   8.036   9.280   2.020
15194WAT     H245825   7.890   9.254   2.088
15195WAT      O45826   5.268   8.338   3.029
15195WAT     H145827   5.233   8.411   2.970
15195WAT     H245828   5.337   8.376   3.091
15196WAT      O45829   5.091   4.149   3.780
15196WAT     H145830   5.119   4.245   3.783
15196WAT     H245831   5.036   4.133   3.698
15197WAT      O45832   9.572   2.936   3.362
15197WAT     H145833   9.569   2.929   3.462
15197WAT     H245834   9.665   2.919   3.330
15198WAT      O45835   2.346   0.603   7.632
15198WAT     H145836   2.422   0.542   7.609
15198WAT     H245837   2.328   0.598   7.730
15199WAT      O45838   5.927   0.219   4.565
15199WAT     H145839   5.919   0.257   4.657
15199WAT     H245840   5.939   0.120   4.572
15200WAT      O45841   1.242   8.831   8.129
15200WAT     H145842   1.304   8.908   8.117
15200WAT     H245843   1.166   8.839   8.064
15201WAT      O45844   7.709   7.690   8.784
15201WAT     H145845   7.750   7.771   8.741
15201WAT     H245846   7.774   7.650   8.848
15202WAT      O45847   9.888   3.255   4.502
15202WAT     H145848   9.820   3.218   4.438
15202WAT     H245849   9.970   3.197   4.501
15203WAT      O45850   8.158   7.297   4.684
15203WAT     H145851   8.128   7.203   4.666
15203WAT     H245852   8.257   7.299   4.693
15204WAT      O45853   6.221   8.006   5.369
15204WAT     H145854   6.138   8.055   5.345
15204WAT     H245855   6.276   7.990   5.287
15205WAT      O45856   4.506   4.602   5.054
15205WAT     H145857   4.522   4.512   5.014
15205WAT     H245858   4.593   4.648   5.069
15206WAT      O45859   1.701   2.879   2.069
15206WAT     H145860   1.698   2.785   2.034
15206WAT     H245861   1.625   2.893   2.133
15207WAT      O45862   6.400   9.315   7.688
15207WAT     H145863   6.371   9.281   7.778
15207WAT     H245864   6.482   9.266   7.659
15208WAT      O45865   8.662   7.578   4.551
15208WAT     H145866   8.632   7.486   4.527
15208WAT     H245867   8.737   7.606   4.490
15209WAT      O45868   0.190   6.107   2.709
15209WAT     H145869   0.272   6.088   2.656
15209WAT     H245870   0.150   6.021   2.740
15210WAT      O45871   2.167   4.946   0.057
15210WAT     H145872   2.119   5.033   0.050
15210WAT     H245873   2.179   4.922   0.153
15211WAT      O45874   9.318   8.609   5.879
15211WAT     H145875   9.323   8.581   5.783
15211WAT     H245876   9.338   8.531   5.937
15212WAT      O45877   5.335   7.880   0.338
15212WAT     H145878   5.418   7.850   0.291
15212WAT     H245879   5.352   7.885   0.436
15213WAT      O45880   0.691   7.273   0.723
15213WAT     H145881   0.657   7.349   0.668
15213WAT     H245882   0.790   7.282   0.735
15214WAT      O45883   9.249   1.336   7.754
15214WAT     H145884   9.221   1.319   7.849
15214WAT     H245885   9.269   1.248   7.710
15215WAT      O45886   6.697   9.043   6.292
15215WAT     H145887   6.725   9.126   6.340
15215WAT     H245888   6.617   9.062   6.235
15216WAT      O45889   4.532   2.285   4.195
15216WAT     H145890   4.599   2.259   4.265
15216WAT     H245891   4.556   2.243   4.108
15217WAT      O45892   2.321   8.465   2.965
15217WAT     H145893   2.227   8.496   2.980
15217WAT     H245894   2.368   8.458   3.053
15218WAT      O45895   5.633   9.514   3.487
15218WAT     H145896   5.594   9.587   3.430
15218WAT     H245897   5.724   9.541   3.518
15219WAT      O45898   1.459   1.954   1.203
15219WAT     H145899   1.430   2.050   1.211
15219WAT     H245900   1.505   1.926   1.288
15220WAT      O45901   5.516   6.854   5.500
15220WAT     H145902   5.470   6.940   5.480
15220WAT     H245903   5.489   6.821   5.590
15221WAT      O45904   5.816   1.542   3.669
15221WAT     H145905   5.880   1.503   3.734
15221WAT     H245906   5.784   1.631   3.701
15222WAT      O45907   1.121   7.864   4.329
15222WAT     H145908   1.027   7.891   4.310
15222WAT     H245909   1.171   7.941   4.369
15223WAT      O45910   6.430   7.135   5.580
15223WAT     H145911   6.390   7.144   5.489
15223WAT     H245912   6.529   7.151   5.575
15224WAT      O45913   8.172   3.300   4.250
15224WAT     H145914   8.095   3.241   4.227
15224WAT     H245915   8.188   3.364   4.174
15225WAT      O45916   2.225   9.581   1.712
15225WAT     H145917   2.280   9.611   1.789
15225WAT     H245918   2.163   9.655   1.684
15226WAT      O45919   0.068   2.859   7.322
15226WAT     H145920   0.091   2.824   7.413
15226WAT     H245921   0.094   2.956   7.316
15227WAT      O45922   4.968   8.036   0.530
15227WAT     H145923   4.948   7.953   0.581
15227WAT     H245924   4.926   8.031   0.440
15228WAT      O45925   2.810   6.149   7.680
15228WAT     H145926   2.755   6.156   7.763
15228WAT     H245927   2.751   6.152   7.600
15229WAT      O45928   5.769   8.390   3.187
15229WAT     H145929   5.821   8.471   3.159
15229WAT     H245930   5.694   8.375   3.122
15230WAT      O45931   9.405   7.731   2.260
15230WAT     H145932   9.498   7.718   2.294
15230WAT     H245933   9.357   7.794   2.321
15231WAT      O45934   5.031   0.531   7.166
15231WAT     H145935   5.024   0.617   7.114
15231WAT     H245936   4.973   0.462   7.123
15232WAT      O45937   5.880   6.999   4.807
15232WAT     H145938   5.904   7.061   4.882
15232WAT     H245939   5.925   7.030   4.723
15233WAT      O45940   0.371   1.596   2.673
15233WAT     H145941   0.351   1.553   2.585
15233WAT     H245942   0.397   1.525   2.739
15234WAT      O45943   2.668   5.306   1.198
15234WAT     H145944   2.578   5.320   1.158
15234WAT     H245945   2.729   5.267   1.128
15235WAT      O45946   1.959   7.406   7.217
15235WAT     H145947   1.932   7.492   7.261
15235WAT     H245948   1.880   7.346   7.208
15236WAT      O45949   3.357   6.098   6.428
15236WAT     H145950   3.418   6.032   6.472
15236WAT     H245951   3.404   6.139   6.349
15237WAT      O45952   6.292   2.700   9.076
15237WAT     H145953   6.239   2.623   9.111
15237WAT     H245954   6.390   2.679   9.085
15238WAT      O45955   4.452   9.356   8.087
15238WAT     H145956   4.402   9.294   8.028
15238WAT     H245957   4.420   9.450   8.073
15239WAT      O45958   1.820   6.286   6.661
15239WAT     H145959   1.834   6.335   6.747
15239WAT     H245960   1.775   6.347   6.596
15240WAT      O45961   3.143   3.466   8.015
15240WAT     H145962   3.059   3.518   8.003
15240WAT     H245963   3.167   3.463   8.112
15241WAT      O45964   7.870   4.864   7.354
15241WAT     H145965   7.917   4.925   7.291
15241WAT     H245966   7.911   4.773   7.349
15242WAT      O45967   6.016   9.246   4.339
15242WAT     H145968   5.995   9.157   4.382
15242WAT     H245969   6.113   9.265   4.348
15243WAT      O45970   0.090   7.360   1.218
15243WAT     H145971   0.080   7.436   1.154
15243WAT     H245972   0.171   7.306   1.194
15244WAT      O45973   8.515   4.718   1.643
15244WAT     H145974   8.469   4.643   1.596
15244WAT     H245975   8.514   4.701   1.741
15245WAT      O45976   0.178   5.182   2.334
15245WAT     H145977   0.246   5.174   2.407
15245WAT     H245978   0.197   5.264   2.280
15246WAT      O45979   7.517   2.849   1.471
15246WAT     H145980   7.509   2.761   1.425
15246WAT     H245981   7.592   2.846   1.537
15247WAT      O45982   0.132   9.557   0.893
15247WAT     H145983   0.052   9.498   0.882
15247WAT     H245984   0.101   9.653   0.896
15248WAT      O45985   1.224   0.203   6.557
15248WAT     H145986   1.270   0.286   6.523
15248WAT     H245987   1.272   0.122   6.522
15249WAT      O45988   9.085   4.193   1.020
15249WAT     H145989   9.142   4.248   0.959
15249WAT     H245990   9.011   4.250   1.056
15250WAT      O45991   8.899   1.858   2.951
15250WAT     H145992   8.996   1.836   2.941
15250WAT     H245993   8.885   1.907   3.037
15251WAT      O45994   8.051   7.679   9.405
15251WAT     H145995   8.059   7.748   9.477
15251WAT     H245996   8.135   7.678   9.351
15252WAT      O45997   2.738   7.810   0.375
15252WAT     H145998   2.787   7.731   0.414
15252WAT     H245999   2.741   7.886   0.440
15253WAT      O46000   6.594   0.332   3.634
15253WAT     H146001   6.604   0.262   3.564
15253WAT     H246002   6.577   0.289   3.722
15254WAT      O46003   6.144   4.880   7.763
15254WAT     H146004   6.163   4.968   7.720
15254WAT     H246005   6.171   4.806   7.702
15255WAT      O46006   7.010   2.601   3.368
15255WAT     H146007   6.949   2.523   3.380
15255WAT     H246008   6.957   2.683   3.349
15256WAT      O46009   9.750   8.921   2.017
15256WAT     H146010   9.770   8.870   1.934
15256WAT     H246011   9.822   8.988   2.033
15257WAT      O46012   4.824   4.468   4.167
15257WAT     H146013   4.854   4.478   4.072
15257WAT     H246014   4.876   4.394   4.210
15258WAT      O46015   0.354   6.859   8.229
15258WAT     H146016   0.299   6.785   8.193
15258WAT     H246017   0.324   6.881   8.322
15259WAT      O46018   6.635   3.704   7.890
15259WAT     H146019   6.684   3.617   7.889
15259WAT     H246020   6.602   3.723   7.983
15260WAT      O46021   2.742   2.625   6.093
15260WAT     H146022   2.718   2.542   6.042
15260WAT     H246023   2.752   2.701   6.030
15261WAT      O46024   1.620   8.495   1.209
15261WAT     H146025   1.701   8.552   1.193
15261WAT     H246026   1.623   8.415   1.149
15262WAT      O46027   0.150   1.863   0.134
15262WAT     H146028   0.204   1.842   0.052
15262WAT     H246029   0.073   1.801   0.141
15263WAT      O46030   2.209   5.869   3.493
15263WAT     H146031   2.131   5.931   3.485
15263WAT     H246032   2.197   5.792   3.430
15264WAT      O46033   0.897   9.443   2.881
15264WAT     H146034   0.859   9.493   2.959
15264WAT     H246035   0.876   9.494   2.797
15265WAT      O46036   3.971   2.989   4.466
15265WAT     H146037   3.994   2.982   4.369
15265WAT     H246038   3.940   3.081   4.486
15266WAT      O46039   8.836   6.738   3.690
15266WAT     H146040   8.826   6.820   3.634
15266WAT     H246041   8.900   6.675   3.645
15267WAT      O46042   0.786   3.507   0.722
15267WAT     H146043   0.816   3.462   0.807
15267WAT     H246044   0.838   3.592   0.710
15268WAT      O46045   8.720   5.674   2.585
15268WAT     H146046   8.716   5.601   2.517
15268WAT     H246047   8.628   5.694   2.617
15269WAT      O46048   4.918   3.521   7.053
15269WAT     H146049   4.937   3.516   7.151
15269WAT     H246050   4.820   3.513   7.037
15270WAT      O46051   8.838   1.405   3.395
15270WAT     H146052   8.830   1.457   3.311
15270WAT     H246053   8.763   1.339   3.401
15271WAT      O46054   4.190   3.836   5.877
15271WAT     H146055   4.197   3.919   5.933
15271WAT     H246056   4.252   3.766   5.913
15272WAT      O46057   1.268   6.144   3.790
15272WAT     H146058   1.190   6.178   3.843
15272WAT     H246059   1.343   6.122   3.851
15273WAT      O46060   0.206   9.099   1.329
15273WAT     H146061   0.293   9.109   1.377
15273WAT     H246062   0.130   9.125   1.390
15274WAT      O46063   2.837   2.876   3.734
15274WAT     H146064   2.783   2.798   3.764
15274WAT     H246065   2.778   2.957   3.725
15275WAT      O46066   4.256   9.027   1.595
15275WAT     H146067   4.190   8.975   1.541
15275WAT     H246068   4.209   9.076   1.669
15276WAT      O46069   2.410   6.348   1.061
15276WAT     H146070   2.419   6.261   1.109
15276WAT     H246071   2.328   6.347   1.005
15277WAT      O46072   6.863   3.535   5.823
15277WAT     H146073   6.787   3.599   5.805
15277WAT     H246074   6.885   3.485   5.740
15278WAT      O46075   5.002   3.246   9.873
15278WAT     H146076   4.909   3.257   9.837
15278WAT     H246077   5.068   3.263   9.800
15279WAT      O46078   9.391   1.765   7.597
15279WAT     H146079   9.426   1.828   7.529
15279WAT     H246080   9.423   1.672   7.576
15280WAT      O46081   3.500   1.867   0.597
15280WAT     H146082   3.549   1.784   0.571
15280WAT     H246083   3.562   1.930   0.645
15281WAT      O46084   9.044   2.538   7.848
15281WAT     H146085   8.945   2.530   7.862
15281WAT     H246086   9.063   2.534   7.750
15282WAT      O46087   5.995   1.925   1.945
15282WAT     H146088   5.977   1.863   2.021
15282WAT     H246089   5.969   2.018   1.971
15283WAT      O46090   5.726   3.342   1.116
15283WAT     H146091   5.635   3.346   1.158
15283WAT     H246092   5.738   3.253   1.072
15284WAT      O46093   8.286   0.942   2.135
15284WAT     H146094   8.261   0.877   2.207
15284WAT     H246095   8.372   0.913   2.093
15285WAT      O46096   3.619   0.497   2.336
15285WAT     H146097   3.647   0.434   2.264
15285WAT     H246098   3.680   0.577   2.336
15286WAT      O46099   1.524   7.645   1.618
15286WAT     H146100   1.438   7.611   1.579
15286WAT     H246101   1.573   7.699   1.549
15287WAT      O46102   9.149   0.594   7.382
15287WAT     H146103   9.111   0.612   7.291
15287WAT     H246104   9.175   0.680   7.425
15288WAT      O46105   7.084   8.852   6.620
15288WAT     H146106   6.992   8.874   6.588
15288WAT     H246107   7.088   8.755   6.643
15289WAT      O46108   1.614   4.432   4.282
15289WAT     H146109   1.643   4.470   4.195
15289WAT     H246110   1.613   4.504   4.352
15290WAT      O46111   6.285   9.309   6.619
15290WAT     H146112   6.264   9.298   6.521
15290WAT     H246113   6.293   9.219   6.661
15291WAT      O46114   1.777   2.873   6.961
15291WAT     H146115   1.755   2.823   7.045
15291WAT     H246116   1.837   2.817   6.904
15292WAT      O46117   5.702   9.782   5.831
15292WAT     H146118   5.790   9.778   5.878
15292WAT     H246119   5.716   9.772   5.732
15293WAT      O46120   0.775   5.307   3.141
15293WAT     H146121   0.788   5.325   3.238
15293WAT     H246122   0.847   5.245   3.109
15294WAT      O46123   0.348   6.600   2.208
15294WAT     H146124   0.299   6.588   2.122
15294WAT     H246125   0.294   6.657   2.270
15295WAT      O46126   3.190   7.946   7.422
15295WAT     H146127   3.211   7.978   7.329
15295WAT     H246128   3.125   8.009   7.465
15296WAT      O46129   9.502   1.681   4.659
15296WAT     H146130   9.432   1.635   4.605
15296WAT     H246131   9.562   1.613   4.701
15297WAT      O46132   5.598   1.811   4.273
15297WAT     H146133   5.655   1.790   4.352
15297WAT     H246134   5.504   1.781   4.290
15298WAT      O46135   5.229   3.332   0.679
15298WAT     H146136   5.201   3.237   0.696
15298WAT     H246137   5.326   3.342   0.703
15299WAT      O46138   8.122   7.976   8.573
15299WAT     H146139   8.122   8.014   8.481
15299WAT     H246140   8.186   7.899   8.578
15300WAT      O46141   2.070   4.315   2.010
15300WAT     H146142   1.989   4.296   2.064
15300WAT     H246143   2.043   4.346   1.919
15301WAT      O46144   3.535   3.307   1.419
15301WAT     H146145   3.578   3.296   1.330
15301WAT     H246146   3.573   3.387   1.465
15302WAT      O46147   5.380   5.065   8.449
15302WAT     H146148   5.403   5.129   8.523
15302WAT     H246149   5.461   5.046   8.394
15303WAT      O46150   5.549   2.197   8.383
15303WAT     H146151   5.455   2.176   8.410
15303WAT     H246152   5.586   2.268   8.443
15304WAT      O46153   7.003   6.709   0.262
15304WAT     H146154   6.999   6.758   0.348
15304WAT     H246155   7.090   6.729   0.216
15305WAT      O46156   3.223   9.098   4.469
15305WAT     H146157   3.267   9.034   4.533
15305WAT     H246158   3.147   9.144   4.515
15306WAT      O46159   2.672   3.433   3.005
15306WAT     H146160   2.722   3.498   2.948
15306WAT     H246161   2.574   3.452   2.999
15307WAT      O46162   5.010   1.771   9.039
15307WAT     H146163   5.073   1.741   8.967
15307WAT     H246164   4.916   1.763   9.006
15308WAT      O46165   0.500   0.006   7.557
15308WAT     H146166   0.520   0.020   7.460
15308WAT     H246167   0.518   0.091   7.607
15309WAT      O46168   9.416   6.211   2.451
15309WAT     H146169   9.512   6.182   2.454
15309WAT     H246170   9.406   6.296   2.502
15310WAT      O46171   0.163   7.199   2.219
15310WAT     H146172   0.174   7.163   2.312
15310WAT     H246173   0.112   7.133   2.164
15311WAT      O46174   9.566   9.060   8.126
15311WAT     H146175   9.624   9.139   8.105
15311WAT     H246176   9.470   9.084   8.112
15312WAT      O46177   6.989   2.724   2.364
15312WAT     H146178   6.950   2.686   2.280
15312WAT     H246179   7.076   2.769   2.344
15313WAT      O46180   7.108   2.022   2.124
15313WAT     H146181   7.080   1.930   2.095
15313WAT     H246182   7.029   2.071   2.159
15314WAT      O46183   4.845   4.272   4.801
15314WAT     H146184   4.941   4.277   4.828
15314WAT     H246185   4.833   4.199   4.734
15315WAT      O46186   2.147   7.088   1.960
15315WAT     H146187   2.209   7.164   1.976
15315WAT     H246188   2.068   7.096   2.021
15316WAT      O46189   2.449   7.963   8.390
15316WAT     H146190   2.453   7.934   8.486
15316WAT     H246191   2.471   7.885   8.332
15317WAT      O46192   4.452   5.369   1.599
15317WAT     H146193   4.424   5.459   1.632
15317WAT     H246194   4.374   5.322   1.558
15318WAT      O46195   6.777   1.311   5.193
15318WAT     H146196   6.874   1.311   5.168
15318WAT     H246197   6.756   1.396   5.243
15319WAT      O46198   6.167   6.067   6.238
15319WAT     H146199   6.124   5.983   6.269
15319WAT     H246200   6.188   6.125   6.317
15320WAT      O46201   6.287   6.073   8.966
15320WAT     H146202   6.245   5.983   8.973
15320WAT     H246203   6.365   6.079   9.028
15321WAT      O46204   1.892   5.949   8.152
15321WAT     H146205   1.877   6.044   8.124
15321WAT     H246206   1.984   5.939   8.190
15322WAT      O46207   9.667   3.948   6.207
15322WAT     H146208   9.666   3.973   6.110
15322WAT     H246209   9.584   3.983   6.251
15323WAT      O46210   7.337   0.560   1.676
15323WAT     H146211   7.324   0.475   1.727
15323WAT     H246212   7.343   0.636   1.741
15324WAT      O46213   5.685   9.400   1.478
15324WAT     H146214   5.594   9.363   1.497
15324WAT     H246215   5.678   9.473   1.411
15325WAT      O46216   1.206   0.301   5.641
15325WAT     H146217   1.282   0.305   5.705
15325WAT     H246218   1.171   0.393   5.624
15326WAT      O46219   5.474   6.266   1.319
15326WAT     H146220   5.377   6.247   1.302
15326WAT     H246221   5.499   6.352   1.274
15327WAT      O46222   8.771   0.614   7.043
15327WAT     H146223   8.684   0.642   7.084
15327WAT     H246224   8.826   0.566   7.110
15328WAT      O46225   9.788   0.800   7.103
15328WAT     H146226   9.885   0.789   7.083
15328WAT     H246227   9.775   0.803   7.202
15329WAT      O46228   3.460   9.723   3.341
15329WAT     H146229   3.401   9.705   3.262
15329WAT     H246230   3.503   9.637   3.371
15330WAT      O46231   3.285   1.927   3.284
15330WAT     H146232   3.253   2.012   3.242
15330WAT     H246233   3.212   1.859   3.279
15331WAT      O46234   5.200   0.443   6.248
15331WAT     H146235   5.138   0.374   6.287
15331WAT     H246236   5.255   0.483   6.321
15332WAT      O46237   7.937   0.798   7.089
15332WAT     H146238   7.869   0.868   7.070
15332WAT     H246239   7.945   0.784   7.187
15333WAT      O46240   7.169   7.881   4.209
15333WAT     H146241   7.225   7.916   4.284
15333WAT     H246242   7.119   7.956   4.166
15334WAT      O46243   7.739   6.317   8.272
15334WAT     H146244   7.643   6.313   8.303
15334WAT     H246245   7.791   6.245   8.318
15335WAT      O46246   9.700   3.839   4.981
15335WAT     H146247   9.706   3.863   4.884
15335WAT     H246248   9.728   3.917   5.037
15336WAT      O46249   2.917   5.416   7.381
15336WAT     H146250   2.868   5.445   7.463
15336WAT     H246251   2.996   5.361   7.407
15337WAT      O46252   4.407   0.092   1.600
15337WAT     H146253   4.419   0.142   1.513
15337WAT     H246254   4.311   0.094   1.626
15338WAT      O46255   5.295   3.469   9.084
15338WAT     H146256   5.295   3.561   9.125
15338WAT     H246257   5.374   3.460   9.024
15339WAT      O46258   5.213   3.552   8.288
15339WAT     H146259   5.198   3.556   8.387
15339WAT     H246260   5.143   3.495   8.246
15340WAT      O46261   6.262   1.984   1.201
15340WAT     H146262   6.274   2.016   1.294
15340WAT     H246263   6.178   1.929   1.195
15341WAT      O46264   4.082   8.420   0.272
15341WAT     H146265   4.115   8.389   0.361
15341WAT     H246266   4.098   8.349   0.203
15342WAT      O46267   8.744   8.722   1.062
15342WAT     H146268   8.677   8.745   0.992
15342WAT     H246269   8.778   8.629   1.047
15343WAT      O46270   3.156   8.547   8.926
15343WAT     H146271   3.192   8.591   8.844
15343WAT     H246272   3.106   8.614   8.981
15344WAT      O46273   4.420   4.588   1.586
15344WAT     H146274   4.410   4.679   1.626
15344WAT     H246275   4.333   4.540   1.591
15345WAT      O46276   2.780   4.169   4.354
15345WAT     H146277   2.851   4.233   4.327
15345WAT     H246278   2.692   4.216   4.359
15346WAT      O46279   0.352   6.860   1.429
15346WAT     H146280   0.378   6.770   1.393
15346WAT     H246281   0.333   6.923   1.354
15347WAT      O46282   8.978   8.671   6.650
15347WAT     H146283   9.010   8.633   6.563
15347WAT     H246284   9.057   8.686   6.710
15348WAT      O46285   8.367   9.597   6.537
15348WAT     H146286   8.450   9.543   6.527
15348WAT     H246287   8.333   9.623   6.446
15349WAT      O46288   9.798   1.848   8.247
15349WAT     H146289   9.736   1.926   8.253
15349WAT     H246290   9.873   1.870   8.184
15350WAT      O46291   3.966   4.310   6.291
15350WAT     H146292   3.959   4.306   6.192
15350WAT     H246293   4.016   4.230   6.325
15351WAT      O46294   1.044   6.960   5.312
15351WAT     H146295   1.110   6.977   5.386
15351WAT     H246296   1.004   7.047   5.284
15352WAT      O46297   8.123   6.547   8.066
15352WAT     H146298   8.076   6.610   8.127
15352WAT     H246299   8.060   6.476   8.034
15353WAT      O46300   1.673   4.193   8.177
15353WAT     H146301   1.708   4.222   8.087
15353WAT     H246302   1.644   4.098   8.172
15354WAT      O46303   5.126   8.230   2.785
15354WAT     H146304   5.209   8.222   2.841
15354WAT     H246305   5.145   8.198   2.692
15355WAT      O46306   4.491   6.033   0.375
15355WAT     H146307   4.511   6.099   0.303
15355WAT     H246308   4.444   5.954   0.336
15356WAT      O46309   8.659   1.153   2.018
15356WAT     H146310   8.728   1.087   2.049
15356WAT     H246311   8.595   1.172   2.093
15357WAT      O46312   1.191   4.061   2.189
15357WAT     H146313   1.169   4.148   2.233
15357WAT     H246314   1.280   4.028   2.222
15358WAT      O46315   5.422   9.561   0.859
15358WAT     H146316   5.443   9.635   0.922
15358WAT     H246317   5.328   9.570   0.827
15359WAT      O46318   3.169   0.824   6.551
15359WAT     H146319   3.190   0.906   6.498
15359WAT     H246320   3.107   0.765   6.499
15360WAT      O46321   4.136   3.991   6.758
15360WAT     H146322   4.093   4.027   6.675
15360WAT     H246323   4.235   4.003   6.752
15361WAT      O46324   9.845   8.114   1.422
15361WAT     H146325   9.895   8.179   1.480
15361WAT     H246326   9.879   8.121   1.328
15362WAT      O46327   3.100   5.597   4.776
15362WAT     H146328   3.155   5.541   4.839
15362WAT     H246329   3.123   5.693   4.789
15363WAT      O46330   6.387   7.794   4.215
15363WAT     H146331   6.360   7.890   4.203
15363WAT     H246332   6.386   7.771   4.312
15364WAT      O46333   4.478   8.387   3.847
15364WAT     H146334   4.462   8.332   3.929
15364WAT     H246335   4.399   8.446   3.830
15365WAT      O46336   4.047   6.346   0.935
15365WAT     H146337   4.123   6.351   0.871
15365WAT     H246338   4.065   6.275   1.003
15366WAT      O46339   7.636   0.787   3.496
15366WAT     H146340   7.553   0.770   3.443
15366WAT     H246341   7.624   0.754   3.590
15367WAT      O46342   0.285   8.704   7.944
15367WAT     H146343   0.362   8.721   8.005
15367WAT     H246344   0.199   8.718   7.994
15368WAT      O46345   1.012   9.496   5.925
15368WAT     H146346   0.953   9.433   5.875
15368WAT     H246347   1.077   9.538   5.862
15369WAT      O46348   0.181   9.107   0.529
15369WAT     H146349   0.261   9.131   0.584
15369WAT     H246350   0.195   9.138   0.435
15370WAT      O46351   8.977   1.844   1.569
15370WAT     H146352   9.052   1.859   1.635
15370WAT     H246353   8.958   1.746   1.562
15371WAT      O46354   1.682   8.283   1.048
15371WAT     H146355   1.621   8.204   1.058
15371WAT     H246356   1.726   8.280   0.958
15372WAT      O46357   5.541   7.556   3.549
15372WAT     H146358   5.498   7.637   3.588
15372WAT     H246359   5.554   7.488   3.621
15373WAT      O46360   6.783   6.114   3.240
15373WAT     H146361   6.733   6.099   3.325
15373WAT     H246362   6.838   6.033   3.219
15374WAT      O46363   1.409   6.503   5.288
15374WAT     H146364   1.494   6.556   5.294
15374WAT     H246365   1.421   6.425   5.228
15375WAT      O46366   7.297   6.262   9.751
15375WAT     H146367   7.246   6.311   9.821
15375WAT     H246368   7.238   6.193   9.709
15376WAT      O46369   3.050   3.681   9.843
15376WAT     H146370   3.150   3.685   9.840
15376WAT     H246371   3.016   3.741   9.915
15377WAT      O46372   1.715   0.520   0.952
15377WAT     H146373   1.734   0.476   0.864
15377WAT     H246374   1.797   0.515   1.010
15378WAT      O46375   0.900   0.056   7.988
15378WAT     H146376   0.852   0.143   7.995
15378WAT     H246377   0.875   0.011   7.902
15379WAT      O46378   8.904   4.856   2.592
15379WAT     H146379   8.938   4.762   2.589
15379WAT     H246380   8.950   4.906   2.665
15380WAT      O46381   8.025   3.103   2.615
15380WAT     H146382   8.057   3.116   2.521
15380WAT     H246383   8.032   3.189   2.665
15381WAT      O46384   8.258   6.263   4.905
15381WAT     H146385   8.217   6.341   4.857
15381WAT     H246386   8.256   6.182   4.845
15382WAT      O46387   0.870   2.125   9.070
15382WAT     H146388   0.917   2.040   9.047
15382WAT     H246389   0.782   2.128   9.024
15383WAT      O46390   7.072   3.920   1.160
15383WAT     H146391   7.143   3.980   1.196
15383WAT     H246392   7.004   3.901   1.231
15384WAT      O46393   6.338   7.877   3.277
15384WAT     H146394   6.418   7.888   3.336
15384WAT     H246395   6.256   7.908   3.325
15385WAT      O46396   8.473   3.038   3.332
15385WAT     H146397   8.568   3.052   3.303
15385WAT     H246398   8.411   3.081   3.266
15386WAT      O46399   5.982   6.614   0.324
15386WAT     H146400   6.065   6.581   0.370
15386WAT     H246401   6.006   6.691   0.265
15387WAT      O46402   8.226   1.514   2.953
15387WAT     H146403   8.183   1.574   2.886
15387WAT     H246404   8.244   1.425   2.911
15388WAT      O46405   3.054   2.513   2.866
15388WAT     H146406   3.129   2.562   2.821
15388WAT     H246407   3.081   2.491   2.960
15389WAT      O46408   0.189   6.076   9.094
15389WAT     H146409   0.110   6.027   9.129
15389WAT     H246410   0.199   6.163   9.143
15390WAT      O46411   2.074   4.678   2.196
15390WAT     H146412   2.142   4.630   2.141
15390WAT     H246413   2.028   4.748   2.140
15391WAT      O46414   4.275   5.335   2.448
15391WAT     H146415   4.307   5.369   2.536
15391WAT     H246416   4.175   5.337   2.446
15392WAT      O46417   1.424   0.272   3.170
15392WAT     H146418   1.502   0.210   3.174
15392WAT     H246419   1.344   0.222   3.137
15393WAT      O46420   1.509   6.746   4.693
15393WAT     H146421   1.518   6.734   4.594
15393WAT     H246422   1.552   6.669   4.740
15394WAT      O46423   2.403   5.076   6.370
15394WAT     H146424   2.303   5.078   6.367
15394WAT     H246425   2.440   5.077   6.277
15395WAT      O46426   8.641   2.505   0.659
15395WAT     H146427   8.715   2.485   0.594
15395WAT     H246428   8.680   2.521   0.750
15396WAT      O46429   9.424   7.749   2.613
15396WAT     H146430   9.333   7.773   2.582
15396WAT     H246431   9.476   7.832   2.634
15397WAT      O46432   5.928   7.536   1.447
15397WAT     H146433   5.927   7.533   1.348
15397WAT     H246434   5.923   7.631   1.478
15398WAT      O46435   6.146   8.359   2.119
15398WAT     H146436   6.073   8.375   2.052
15398WAT     H246437   6.159   8.261   2.131
15399WAT      O46438   9.135   2.327   9.597
15399WAT     H146439   9.171   2.254   9.655
15399WAT     H246440   9.170   2.415   9.628
15400WAT      O46441   6.036   1.165   0.964
15400WAT     H146442   6.018   1.235   1.033
15400WAT     H246443   5.950   1.141   0.918
15401WAT      O46444   0.513   9.318   6.621
15401WAT     H146445   0.568   9.235   6.616
15401WAT     H246446   0.417   9.295   6.603
15402WAT      O46447   7.046   6.855   9.342
15402WAT     H146448   6.982   6.813   9.407
15402WAT     H246449   7.132   6.802   9.342
15403WAT      O46450   6.894   7.574   4.490
15403WAT     H146451   6.847   7.620   4.565
15403WAT     H246452   6.836   7.574   4.409
15404WAT      O46453   4.353   0.724   1.342
15404WAT     H146454   4.307   0.639   1.318
15404WAT     H246455   4.350   0.786   1.263
15405WAT      O46456   0.258   2.598   6.145
15405WAT     H146457   0.307   2.665   6.200
15405WAT     H246458   0.220   2.642   6.064
15406WAT      O46459   4.588   2.896   9.106
15406WAT     H146460   4.547   2.805   9.119
15406WAT     H246461   4.685   2.892   9.127
15407WAT      O46462   7.941   3.233   7.032
15407WAT     H146463   7.962   3.295   7.107
15407WAT     H246464   8.027   3.193   6.998
15408WAT      O46465   7.313   9.832   8.853
15408WAT     H146466   7.306   9.889   8.772
15408WAT     H246467   7.270   9.743   8.836
15409WAT      O46468   8.045   3.252   3.526
15409WAT     H146469   7.984   3.174   3.540
15409WAT     H246470   8.140   3.219   3.521
15410WAT      O46471   8.227   1.065   0.377
15410WAT     H146472   8.232   1.014   0.290
15410WAT     H246473   8.318   1.096   0.403
15411WAT      O46474   5.270   2.355   9.350
15411WAT     H146475   5.241   2.309   9.266
15411WAT     H246476   5.359   2.399   9.335
15412WAT      O46477   0.627   5.559   9.810
15412WAT     H146478   0.594   5.470   9.840
15412WAT     H246479   0.568   5.631   9.846
15413WAT      O46480   9.846   5.464   1.149
15413WAT     H146481   9.804   5.440   1.237
15413WAT     H246482   9.845   5.563   1.137
15414WAT      O46483   1.863   6.425   7.980
15414WAT     H146484   1.872   6.474   8.067
15414WAT     H246485   1.915   6.473   7.909
15415WAT      O46486   2.178   6.579   3.415
15415WAT     H146487   2.149   6.566   3.320
15415WAT     H246488   2.145   6.667   3.448
15416WAT      O46489   1.916   4.757   7.198
15416WAT     H146490   1.994   4.768   7.137
15416WAT     H246491   1.895   4.845   7.240
15417WAT      O46492   7.063   5.712   2.032
15417WAT     H146493   7.078   5.614   2.026
15417WAT     H246494   6.972   5.730   2.069
15418WAT      O46495   9.571   7.003   0.988
15418WAT     H146496   9.483   6.985   1.031
15418WAT     H246497   9.618   7.077   1.036
15419WAT      O46498   7.572   7.971   4.788
15419WAT     H146499   7.544   7.969   4.692
15419WAT     H246500   7.612   8.060   4.809
15420WAT      O46501   4.578   5.046   0.508
15420WAT     H146502   4.520   4.980   0.555
15420WAT     H246503   4.609   5.116   0.573
15421WAT      O46504   4.132   4.785   3.431
15421WAT     H146505   4.093   4.869   3.395
15421WAT     H246506   4.069   4.709   3.414
15422WAT      O46507   9.646   9.247   6.261
15422WAT     H146508   9.712   9.218   6.331
15422WAT     H246509   9.563   9.280   6.306
15423WAT      O46510   4.274   9.532   0.058
15423WAT     H146511   4.225   9.460   0.009
15423WAT     H246512   4.219   9.563   0.136
15424WAT      O46513   8.201   2.117   0.814
15424WAT     H146514   8.123   2.088   0.759
15424WAT     H246515   8.224   2.045   0.879
15425WAT      O46516   6.358   1.951   5.351
15425WAT     H146517   6.387   1.862   5.316
15425WAT     H246518   6.402   2.024   5.299
15426WAT      O46519   2.014   3.329   0.430
15426WAT     H146520   2.096   3.378   0.459
15426WAT     H246521   1.945   3.394   0.399
15427WAT      O46522   2.286   9.175   1.471
15427WAT     H146523   2.340   9.207   1.549
15427WAT     H246524   2.314   9.082   1.446
15428WAT      O46525   9.032   1.192   9.397
15428WAT     H146526   8.982   1.119   9.443
15428WAT     H246527   9.012   1.279   9.443
15429WAT      O46528   1.834   6.202   8.927
15429WAT     H146529   1.918   6.190   8.873
15429WAT     H246530   1.780   6.118   8.924
15430WAT      O46531   5.741   4.159   0.791
15430WAT     H146532   5.801   4.098   0.842
15430WAT     H246533   5.716   4.237   0.848
15431WAT      O46534   8.500   3.456   0.101
15431WAT     H146535   8.480   3.523   0.029
15431WAT     H246536   8.590   3.474   0.139
15432WAT      O46537   3.659   4.734   7.152
15432WAT     H146538   3.623   4.644   7.129
15432WAT     H246539   3.694   4.778   7.070
15433WAT      O46540   1.477   8.931   1.016
15433WAT     H146541   1.486   8.845   1.065
15433WAT     H246542   1.486   8.915   0.918
15434WAT      O46543   7.325   3.014   0.526
15434WAT     H146544   7.378   3.039   0.607
15434WAT     H246545   7.258   2.945   0.550
15435WAT      O46546   4.837   8.479   3.252
15435WAT     H146547   4.840   8.393   3.200
15435WAT     H246548   4.854   8.460   3.348
15436WAT      O46549   1.120   0.344   3.700
15436WAT     H146550   1.025   0.336   3.672
15436WAT     H246551   1.125   0.389   3.790
15437WAT      O46552   1.081   1.201   7.410
15437WAT     H146553   1.013   1.139   7.370
15437WAT     H246554   1.040   1.291   7.424
15438WAT      O46555   6.382   0.744   4.817
15438WAT     H146556   6.430   0.723   4.732
15438WAT     H246557   6.326   0.826   4.804
15439WAT      O46558   2.839   7.680   8.037
15439WAT     H146559   2.746   7.670   8.001
15439WAT     H246560   2.905   7.667   7.962
15440WAT      O46561   2.350   0.621   5.726
15440WAT     H146562   2.385   0.713   5.709
15440WAT     H246563   2.375   0.561   5.649
15441WAT      O46564   9.289   1.483   6.736
15441WAT     H146565   9.265   1.509   6.642
15441WAT     H246566   9.361   1.413   6.733
15442WAT      O46567   3.984   0.986   8.765
15442WAT     H146568   3.923   1.002   8.687
15442WAT     H246569   4.030   1.071   8.790
15443WAT      O46570   1.298   6.012   5.977
15443WAT     H146571   1.214   6.063   5.993
15443WAT     H246572   1.375   6.061   6.016
15444WAT      O46573   6.678   5.255   9.180
15444WAT     H146574   6.648   5.197   9.256
15444WAT     H246575   6.626   5.232   9.098
15445WAT      O46576   9.397   3.646   5.608
15445WAT     H146577   9.421   3.549   5.612
15445WAT     H246578   9.427   3.691   5.692
15446WAT      O46579   5.956   2.345   3.776
15446WAT     H146580   5.955   2.335   3.875
15446WAT     H246581   5.939   2.256   3.733
15447WAT      O46582   1.835   2.437   2.155
15447WAT     H146583   1.849   2.486   2.241
15447WAT     H246584   1.803   2.345   2.175
15448WAT      O46585   4.697   1.896   8.256
15448WAT     H146586   4.612   1.865   8.299
15448WAT     H246587   4.771   1.832   8.277
15449WAT      O46588   7.269   5.791   6.169
15449WAT     H146589   7.314   5.780   6.081
15449WAT     H246590   7.203   5.718   6.183
15450WAT      O46591   9.838   6.589   8.610
15450WAT     H146592   9.935   6.612   8.611
15450WAT     H246593   9.824   6.506   8.557
15451WAT      O46594   1.989   7.977   4.370
15451WAT     H146595   1.900   7.975   4.415
15451WAT     H246596   2.057   7.933   4.429
15452WAT      O46597   6.625   5.576   8.341
15452WAT     H146598   6.711   5.532   8.365
15452WAT     H246599   6.605   5.649   8.406
15453WAT      O46600   6.170   1.704   6.251
15453WAT     H146601   6.202   1.610   6.263
15453WAT     H246602   6.083   1.716   6.299
15454WAT      O46603   1.155   5.554   4.120
15454WAT     H146604   1.076   5.616   4.122
15454WAT     H246605   1.239   5.608   4.128
15455WAT      O46606   3.392   6.829   0.565
15455WAT     H146607   3.359   6.745   0.522
15455WAT     H246608   3.325   6.901   0.553
15456WAT      O46609   3.610   2.133   2.600
15456WAT     H146610   3.679   2.194   2.561
15456WAT     H246611   3.654   2.069   2.664
15457WAT      O46612   6.859   7.008   1.524
15457WAT     H146613   6.888   7.081   1.586
15457WAT     H246614   6.761   7.016   1.507
15458WAT      O46615   2.189   2.808   6.714
15458WAT     H146616   2.225   2.889   6.667
15458WAT     H246617   2.248   2.786   6.792
15459WAT      O46618   5.627   9.757   1.581
15459WAT     H146619   5.647   9.698   1.659
15459WAT     H246620   5.667   9.717   1.498
15460WAT      O46621   6.824   1.730   6.686
15460WAT     H146622   6.792   1.698   6.597
15460WAT     H246623   6.816   1.830   6.690
15461WAT      O46624   4.542   8.970   3.615
15461WAT     H146625   4.588   8.958   3.703
15461WAT     H246626   4.443   8.961   3.628
15462WAT      O46627   0.599   3.804   4.931
15462WAT     H146628   0.534   3.748   4.880
15462WAT     H246629   0.550   3.871   4.986
15463WAT      O46630   6.314   1.581   1.493
15463WAT     H146631   6.397   1.610   1.446
15463WAT     H246632   6.338   1.527   1.574
15464WAT      O46633   0.656   1.769   0.734
15464WAT     H146634   0.576   1.824   0.757
15464WAT     H246635   0.739   1.820   0.754
15465WAT      O46636   7.481   7.246   5.165
15465WAT     H146637   7.576   7.274   5.152
15465WAT     H246638   7.479   7.159   5.215
15466WAT      O46639   0.849   5.340   4.319
15466WAT     H146640   0.806   5.323   4.408
15466WAT     H246641   0.872   5.252   4.277
15467WAT      O46642   4.908   8.590   6.097
15467WAT     H146643   4.885   8.524   6.026
15467WAT     H246644   4.906   8.545   6.186
15468WAT      O46645   3.253   8.976   1.202
15468WAT     H146646   3.179   8.908   1.205
15468WAT     H246647   3.334   8.939   1.247
15469WAT      O46648   1.050   0.628   9.387
15469WAT     H146649   1.114   0.672   9.324
15469WAT     H246650   1.063   0.666   9.479
15470WAT      O46651   4.556   6.165   6.948
15470WAT     H146652   4.481   6.101   6.935
15470WAT     H246653   4.519   6.257   6.964
15471WAT      O46654   4.391   3.438   2.929
15471WAT     H146655   4.423   3.356   2.976
15471WAT     H246656   4.319   3.414   2.864
15472WAT      O46657   6.630   2.782   6.367
15472WAT     H146658   6.633   2.686   6.394
15472WAT     H246659   6.692   2.797   6.290
15473WAT      O46660   1.680   6.589   9.228
15473WAT     H146661   1.735   6.575   9.310
15473WAT     H246662   1.669   6.503   9.178
15474WAT      O46663   4.367   0.512   1.598
15474WAT     H146664   4.405   0.458   1.672
15474WAT     H246665   4.374   0.461   1.512
15475WAT      O46666   0.743   4.582   2.920
15475WAT     H146667   0.720   4.560   2.825
15475WAT     H246668   0.818   4.648   2.921
15476WAT      O46669   5.083   6.132   7.541
15476WAT     H146670   5.168   6.119   7.491
15476WAT     H246671   5.046   6.223   7.521
15477WAT      O46672   5.494   1.096   6.438
15477WAT     H146673   5.489   1.160   6.361
15477WAT     H246674   5.579   1.043   6.431
15478WAT      O46675   1.758   4.997   0.638
15478WAT     H146676   1.769   5.015   0.540
15478WAT     H246677   1.749   5.084   0.687
15479WAT      O46678   0.790   0.434   0.965
15479WAT     H146679   0.788   0.512   1.028
15479WAT     H246680   0.742   0.457   0.881
15480WAT      O46681   9.052   9.629   7.884
15480WAT     H146682   9.078   9.634   7.788
15480WAT     H246683   9.009   9.541   7.904
15481WAT      O46684   3.176   3.147   8.164
15481WAT     H146685   3.107   3.210   8.198
15481WAT     H246686   3.185   3.158   8.065
15482WAT      O46687   6.872   7.819   0.493
15482WAT     H146688   6.916   7.756   0.428
15482WAT     H246689   6.790   7.857   0.451
15483WAT      O46690   6.251   1.575   2.406
15483WAT     H146691   6.264   1.619   2.317
15483WAT     H246692   6.305   1.623   2.475
15484WAT      O46693   4.924   7.157   2.071
15484WAT     H146694   4.929   7.153   2.171
15484WAT     H246695   4.966   7.241   2.039
15485WAT      O46696   0.007   4.352   9.602
15485WAT     H146697   0.052   4.374   9.689
15485WAT     H246698   0.002   4.434   9.546
15486WAT      O46699   9.779   3.895   8.433
15486WAT     H146700   9.797   3.927   8.526
15486WAT     H246701   9.682   3.871   8.423
15487WAT      O46702   3.802   7.834   1.105
15487WAT     H146703   3.801   7.880   1.016
15487WAT     H246704   3.713   7.844   1.149
15488WAT      O46705   6.366   1.192   7.170
15488WAT     H146706   6.408   1.105   7.146
15488WAT     H246707   6.291   1.211   7.107
15489WAT      O46708   8.780   9.816   1.006
15489WAT     H146709   8.739   9.867   1.082
15489WAT     H246710   8.783   9.719   1.029
15490WAT      O46711   4.241   0.551   8.751
15490WAT     H146712   4.250   0.488   8.829
15490WAT     H246713   4.199   0.636   8.782
15491WAT      O46714   4.677   6.218   8.736
15491WAT     H146715   4.684   6.156   8.658
15491WAT     H246716   4.648   6.309   8.705
15492WAT      O46717   0.187   0.991   2.532
15492WAT     H146718   0.156   1.076   2.489
15492WAT     H246719   0.125   0.967   2.607
15493WAT      O46720   1.325   7.165   0.398
15493WAT     H146721   1.276   7.225   0.335
15493WAT     H246722   1.323   7.205   0.490
15494WAT      O46723   3.198   6.907   4.700
15494WAT     H146724   3.168   6.828   4.648
15494WAT     H246725   3.143   6.987   4.675
15495WAT      O46726   5.001   0.126   5.683
15495WAT     H146727   5.084   0.171   5.648
15495WAT     H246728   5.026   0.037   5.722
15496WAT      O46729   2.210   5.361   1.350
15496WAT     H146730   2.114   5.376   1.327
15496WAT     H246731   2.217   5.287   1.417
15497WAT      O46732   6.643   8.287   0.724
15497WAT     H146733   6.654   8.226   0.646
15497WAT     H246734   6.569   8.352   0.705
15498WAT      O46735   9.391   7.591   4.560
15498WAT     H146736   9.423   7.645   4.482
15498WAT     H246737   9.355   7.504   4.528
15499WAT      O46738   5.094   4.256   0.436
15499WAT     H146739   5.025   4.265   0.508
15499WAT     H246740   5.097   4.339   0.381
15500WAT      O46741   7.243   7.146   8.968
15500WAT     H146742   7.265   7.068   8.910
15500WAT     H246743   7.149   7.138   9.001
15501WAT      O46744   6.024   8.600   4.897
15501WAT     H146745   6.108   8.623   4.945
15501WAT     H246746   6.046   8.548   4.814
15502WAT      O46747   6.045   9.352   5.279
15502WAT     H146748   5.992   9.437   5.287
15502WAT     H246749   6.052   9.326   5.183
15503WAT      O46750   0.356   6.446   7.955
15503WAT     H146751   0.287   6.426   8.025
15503WAT     H246752   0.318   6.509   7.887
15504WAT      O46753   2.995   4.587   8.465
15504WAT     H146754   2.932   4.582   8.543
15504WAT     H246755   3.042   4.675   8.466
15505WAT      O46756   8.611   6.938   7.729
15505WAT     H146757   8.661   6.859   7.695
15505WAT     H246758   8.581   6.994   7.652
15506WAT      O46759   7.983   6.208   9.132
15506WAT     H146760   8.049   6.168   9.069
15506WAT     H246761   7.906   6.246   9.079
15507WAT      O46762   4.565   2.319   4.611
15507WAT     H146763   4.620   2.301   4.530
15507WAT     H246764   4.589   2.409   4.648
15508WAT      O46765   0.549   0.103   0.631
15508WAT     H146766   0.585   0.012   0.609
15508WAT     H246767   0.527   0.151   0.546
15509WAT      O46768   3.958   9.198   3.272
15509WAT     H146769   3.871   9.149   3.277
15509WAT     H246770   3.940   9.296   3.263
15510WAT      O46771   8.041   1.245   4.103
15510WAT     H146772   8.092   1.240   4.017
15510WAT     H246773   8.051   1.337   4.142
15511WAT      O46774   3.127   7.458   6.394
15511WAT     H146775   3.164   7.540   6.352
15511WAT     H246776   3.130   7.382   6.329
15512WAT      O46777   5.597   9.479   6.432
15512WAT     H146778   5.620   9.522   6.345
15512WAT     H246779   5.632   9.535   6.507
15513WAT      O46780   8.842   2.914   2.674
15513WAT     H146781   8.823   2.976   2.750
15513WAT     H246782   8.920   2.856   2.697
15514WAT      O46783   4.440   3.065   0.638
15514WAT     H146784   4.343   3.068   0.660
15514WAT     H246785   4.492   3.109   0.711
15515WAT      O46786   2.942   9.305   6.076
15515WAT     H146787   2.933   9.232   6.144
15515WAT     H246788   2.946   9.265   5.984
15516WAT      O46789   1.565   8.442   3.323
15516WAT     H146790   1.581   8.391   3.407
15516WAT     H246791   1.636   8.419   3.256
15517WAT      O46792   9.724   3.168   3.156
15517WAT     H146793   9.638   3.189   3.203
15517WAT     H246794   9.759   3.251   3.112
15518WAT      O46795   0.099   9.547   3.975
15518WAT     H146796   0.036   9.555   4.052
15518WAT     H246797   0.148   9.633   3.962
15519WAT      O46798   7.898   7.747   9.130
15519WAT     H146799   7.877   7.695   9.213
15519WAT     H246800   7.837   7.826   9.124
15520WAT      O46801   1.682   0.340   7.489
15520WAT     H146802   1.673   0.341   7.389
15520WAT     H246803   1.597   0.306   7.529
15521WAT      O46804   4.871   4.690   3.608
15521WAT     H146805   4.880   4.789   3.596
15521WAT     H246806   4.779   4.668   3.639
15522WAT      O46807   4.962   0.452   5.113
15522WAT     H146808   5.043   0.394   5.106
15522WAT     H246809   4.904   0.439   5.033
15523WAT      O46810   9.461   5.391   9.286
15523WAT     H146811   9.495   5.473   9.331
15523WAT     H246812   9.429   5.415   9.194
15524WAT      O46813   2.929   4.802   9.627
15524WAT     H146814   2.987   4.760   9.558
15524WAT     H246815   2.873   4.732   9.671
15525WAT      O46816   6.688   0.948   2.303
15525WAT     H146817   6.640   0.862   2.323
15525WAT     H246818   6.649   1.022   2.358
15526WAT      O46819   8.198   9.155   9.320
15526WAT     H146820   8.206   9.112   9.409
15526WAT     H246821   8.143   9.098   9.259
15527WAT      O46822   5.325   6.782   3.267
15527WAT     H146823   5.400   6.761   3.204
15527WAT     H246824   5.349   6.751   3.359
15528WAT      O46825   6.872   6.596   7.993
15528WAT     H146826   6.838   6.657   7.922
15528WAT     H246827   6.883   6.647   8.078
15529WAT      O46828   4.665   7.443   0.007
15529WAT     H146829   4.648   7.494   0.091
15529WAT     H246830   4.732   7.372   0.024
15530WAT      O46831   3.500   9.200   6.665
15530WAT     H146832   3.525   9.127   6.601
15530WAT     H246833   3.421   9.170   6.719
15531WAT      O46834   1.482   4.758   3.765
15531WAT     H146835   1.469   4.741   3.668
15531WAT     H246836   1.487   4.856   3.782
15532WAT      O46837   7.694   9.447   4.012
15532WAT     H146838   7.784   9.446   3.969
15532WAT     H246839   7.688   9.523   4.077
15533WAT      O46840   9.653   2.753   0.147
15533WAT     H146841   9.630   2.695   0.225
15533WAT     H246842   9.627   2.847   0.167
15534WAT      O46843   0.171   9.153   9.618
15534WAT     H146844   0.265   9.123   9.599
15534WAT     H246845   0.171   9.250   9.640
15535WAT      O46846   0.725   2.191   8.451
15535WAT     H146847   0.647   2.134   8.478
15535WAT     H246848   0.734   2.268   8.514
15536WAT      O46849   4.789   0.979   9.671
15536WAT     H146850   4.802   1.072   9.705
15536WAT     H246851   4.875   0.946   9.632
15537WAT      O46852   6.552   1.011   0.948
15537WAT     H146853   6.602   0.946   1.005
15537WAT     H246854   6.464   1.032   0.991
15538WAT      O46855   0.791   7.056   8.086
15538WAT     H146856   0.829   7.056   7.994
15538WAT     H246857   0.861   7.029   8.152
15539WAT      O46858   6.777   7.744   9.664
15539WAT     H146859   6.860   7.691   9.649
15539WAT     H246860   6.718   7.739   9.583
15540WAT      O46861   3.201   5.591   1.236
15540WAT     H146862   3.108   5.593   1.198
15540WAT     H246863   3.200   5.632   1.327
15541WAT      O46864   7.361   0.428   2.488
15541WAT     H146865   7.395   0.390   2.574
15541WAT     H246866   7.339   0.353   2.425
15542WAT      O46867   7.848   6.686   8.631
15542WAT     H146868   7.920   6.658   8.567
15542WAT     H246869   7.870   6.652   8.723
15543WAT      O46870   9.259   2.166   1.028
15543WAT     H146871   9.310   2.227   0.968
15543WAT     H246872   9.307   2.156   1.115
15544WAT      O46873   8.458   1.151   2.670
15544WAT     H146874   8.438   1.175   2.575
15544WAT     H246875   8.375   1.157   2.724
15545WAT      O46876   4.860   4.895   7.179
15545WAT     H146877   4.766   4.862   7.186
15545WAT     H246878   4.886   4.940   7.264
15546WAT      O46879   8.330   3.902   0.534
15546WAT     H146880   8.425   3.915   0.563
15546WAT     H246881   8.318   3.808   0.502
15547WAT      O46882   0.267   4.662   3.459
15547WAT     H146883   0.345   4.678   3.520
15547WAT     H246884   0.182   4.678   3.509
15548WAT      O46885   8.719   9.481   8.836
15548WAT     H146886   8.663   9.406   8.801
15548WAT     H246887   8.693   9.500   8.931
15549WAT      O46888   0.994   1.990   3.024
15549WAT     H146889   1.039   2.079   3.031
15549WAT     H246890   0.956   1.979   2.933
15550WAT      O46891   1.561   2.005   4.681
15550WAT     H146892   1.500   2.063   4.628
15550WAT     H246893   1.598   2.057   4.758
15551WAT      O46894   7.283   5.121   9.559
15551WAT     H146895   7.235   5.154   9.478
15551WAT     H246896   7.367   5.075   9.531
15552WAT      O46897   3.953   8.439   6.169
15552WAT     H146898   4.034   8.495   6.158
15552WAT     H246899   3.978   8.351   6.210
15553WAT      O46900   1.562   1.534   6.307
15553WAT     H146901   1.500   1.504   6.234
15553WAT     H246902   1.544   1.629   6.329
15554WAT      O46903   4.419   1.941   2.444
15554WAT     H146904   4.493   1.963   2.508
15554WAT     H246905   4.365   1.865   2.480
15555WAT      O46906   8.701   5.840   9.233
15555WAT     H146907   8.671   5.746   9.220
15555WAT     H246908   8.775   5.861   9.170
15556WAT      O46909   8.516   3.511   1.080
15556WAT     H146910   8.487   3.505   1.176
15556WAT     H246911   8.540   3.420   1.047
15557WAT      O46912   7.617   4.278   7.582
15557WAT     H146913   7.634   4.334   7.663
15557WAT     H246914   7.700   4.276   7.525
15558WAT      O46915   1.747   3.116   7.166
15558WAT     H146916   1.678   3.154   7.227
15558WAT     H246917   1.726   3.140   7.071
15559WAT      O46918   5.142   8.159   2.033
15559WAT     H146919   5.200   8.107   1.971
15559WAT     H246920   5.053   8.174   1.992
15560WAT      O46921   3.205   3.807   4.252
15560WAT     H146922   3.277   3.872   4.228
15560WAT     H246923   3.173   3.760   4.170
15561WAT      O46924   6.066   4.699   2.317
15561WAT     H146925   6.021   4.725   2.231
15561WAT     H246926   6.161   4.672   2.298
15562WAT      O46927   1.673   2.297   8.644
15562WAT     H146928   1.675   2.197   8.641
15562WAT     H246929   1.746   2.334   8.587
15563WAT      O46930   0.790   6.839   0.451
15563WAT     H146931   0.814   6.788   0.533
15563WAT     H246932   0.722   6.787   0.398
15564WAT      O46933   9.789   4.379   0.278
15564WAT     H146934   9.734   4.307   0.321
15564WAT     H246935   9.886   4.362   0.296
15565WAT      O46936   9.148   2.751   4.378
15565WAT     H146937   9.242   2.719   4.367
15565WAT     H246938   9.114   2.721   4.467
15566WAT      O46939   9.576   1.576   2.965
15566WAT     H146940   9.499   1.597   2.905
15566WAT     H246941   9.557   1.492   3.016
15567WAT      O46942   4.972   2.252   6.646
15567WAT     H146943   4.903   2.299   6.701
15567WAT     H246944   4.963   2.153   6.658
15568WAT      O46945   6.456   3.684   5.120
15568WAT     H146946   6.421   3.762   5.173
15568WAT     H246947   6.551   3.703   5.092
15569WAT      O46948   0.470   5.839   5.991
15569WAT     H146949   0.521   5.891   5.922
15569WAT     H246950   0.528   5.824   6.071
15570WAT      O46951   4.810   7.304   0.956
15570WAT     H146952   4.738   7.246   0.995
15570WAT     H246953   4.779   7.343   0.870
15571WAT      O46954   9.257   1.945   8.934
15571WAT     H146955   9.201   1.932   9.015
15571WAT     H246956   9.232   1.878   8.864
15572WAT      O46957   1.713   6.875   6.436
15572WAT     H146958   1.763   6.804   6.386
15572WAT     H246959   1.706   6.849   6.532
15573WAT      O46960   4.678   2.362   3.378
15573WAT     H146961   4.647   2.435   3.440
15573WAT     H246962   4.778   2.360   3.376
15574WAT      O46963   1.820   4.967   3.251
15574WAT     H146964   1.819   4.899   3.178
15574WAT     H246965   1.759   4.938   3.324
15575WAT      O46966   2.437   8.227   2.915
15575WAT     H146967   2.410   8.321   2.934
15575WAT     H246968   2.472   8.220   2.822
15576WAT      O46969   0.691   2.074   1.638
15576WAT     H146970   0.782   2.061   1.599
15576WAT     H246971   0.651   1.986   1.663
15577WAT      O46972   4.996   5.217   1.634
15577WAT     H146973   4.924   5.221   1.702
15577WAT     H246974   4.959   5.180   1.548
15578WAT      O46975   8.902   3.733   8.635
15578WAT     H146976   8.920   3.713   8.732
15578WAT     H246977   8.920   3.651   8.581
15579WAT      O46978   7.918   1.228   2.922
15579WAT     H146979   7.956   1.301   2.979
15579WAT     H246980   7.852   1.176   2.976
15580WAT      O46981   2.094   9.374   5.522
15580WAT     H146982   2.041   9.292   5.543
15580WAT     H246983   2.079   9.443   5.593
15581WAT      O46984   0.199   6.647   8.174
15581WAT     H146985   0.107   6.648   8.214
15581WAT     H246986   0.191   6.638   8.075
15582WAT      O46987   2.170   2.993   4.997
15582WAT     H146988   2.233   2.925   4.959
15582WAT     H246989   2.184   3.080   4.951
15583WAT      O46990   1.314   2.765   6.389
15583WAT     H146991   1.222   2.728   6.376
15583WAT     H246992   1.310   2.845   6.449
15584WAT      O46993   5.949   4.728   2.019
15584WAT     H146994   6.012   4.795   1.981
15584WAT     H246995   5.982   4.636   2.001
15585WAT      O46996   9.343   2.941   0.827
15585WAT     H146997   9.280   3.018   0.836
15585WAT     H246998   9.379   2.917   0.917
15586WAT      O46999   8.912   5.458   6.165
15586WAT     H147000   9.009   5.484   6.168
15586WAT     H247001   8.862   5.507   6.236
15587WAT      O47002   5.383   3.394   7.424
15587WAT     H147003   5.308   3.459   7.431
15587WAT     H247004   5.346   3.302   7.415
15588WAT      O47005   0.835   2.269   5.589
15588WAT     H147006   0.768   2.211   5.635
15588WAT     H247007   0.905   2.297   5.655
15589WAT      O47008   1.905   4.898   6.835
15589WAT     H147009   1.827   4.841   6.812
15589WAT     H247010   1.966   4.848   6.897
15590WAT      O47011   8.705   7.229   6.201
15590WAT     H147012   8.769   7.219   6.124
15590WAT     H247013   8.670   7.139   6.227
15591WAT      O47014   2.704   6.301   3.272
15591WAT     H147015   2.762   6.343   3.341
15591WAT     H247016   2.612   6.287   3.309
15592WAT      O47017   9.818   8.572   0.068
15592WAT     H147018   9.769   8.645   0.021
15592WAT     H247019   9.768   8.545   0.150
15593WAT      O47020   3.761   9.342   0.419
15593WAT     H147021   3.785   9.245   0.420
15593WAT     H247022   3.712   9.364   0.503
15594WAT      O47023   7.649   7.469   7.508
15594WAT     H147024   7.738   7.439   7.542
15594WAT     H247025   7.596   7.507   7.584
15595WAT      O47026   1.241   8.648   3.484
15595WAT     H147027   1.166   8.712   3.500
15595WAT     H247028   1.321   8.675   3.538
15596WAT      O47029   9.009   6.477   8.573
15596WAT     H147030   9.098   6.447   8.607
15596WAT     H247031   8.939   6.410   8.597
15597WAT      O47032   5.352   5.472   0.756
15597WAT     H147033   5.275   5.484   0.693
15597WAT     H247034   5.419   5.544   0.742
15598WAT      O47035   9.671   3.300   1.680
15598WAT     H147036   9.592   3.256   1.724
15598WAT     H247037   9.728   3.343   1.750
15599WAT      O47038   2.289   0.033   3.701
15599WAT     H147039   2.249  -0.009   3.782
15599WAT     H247040   2.240   0.001   3.619
15600WAT      O47041   0.685   9.367   6.210
15600WAT     H147042   0.605   9.368   6.149
15600WAT     H247043   0.693   9.456   6.254
15601WAT      O47044   9.397   0.243   2.609
15601WAT     H147045   9.351   0.193   2.535
15601WAT     H247046   9.390   0.342   2.591
15602WAT      O47047   6.256   6.008   6.689
15602WAT     H147048   6.222   5.945   6.759
15602WAT     H247049   6.182   6.032   6.626
15603WAT      O47050   1.946   4.321   3.135
15603WAT     H147051   1.985   4.232   3.114
15603WAT     H247052   1.903   4.359   3.053
15604WAT      O47053   1.292   8.459   3.285
15604WAT     H147054   1.257   8.541   3.330
15604WAT     H247055   1.391   8.463   3.281
15605WAT      O47056   4.997   6.466   2.295
15605WAT     H147057   4.961   6.427   2.210
15605WAT     H247058   4.921   6.498   2.352
15606WAT      O47059   7.985   6.582   8.880
15606WAT     H147060   7.980   6.660   8.943
15606WAT     H247061   8.081   6.553   8.872
15607WAT      O47062   2.248   6.797   7.886
15607WAT     H147063   2.277   6.855   7.962
15607WAT     H247064   2.324   6.738   7.858
15608WAT      O47065   1.034   5.822   1.545
15608WAT     H147066   1.078   5.733   1.561
15608WAT     H247067   0.974   5.843   1.622
15609WAT      O47068   4.980   2.253   8.373
15609WAT     H147069   5.071   2.277   8.340
15609WAT     H247070   4.954   2.315   8.447
15610WAT      O47071   0.172   2.359   2.818
15610WAT     H147072   0.147   2.341   2.913
15610WAT     H247073   0.270   2.346   2.807
15611WAT      O47074   4.221   4.226   1.062
15611WAT     H147075   4.254   4.142   1.020
15611WAT     H247076   4.150   4.204   1.128
15612WAT      O47077   2.334   4.399   2.623
15612WAT     H147078   2.353   4.431   2.530
15612WAT     H247079   2.401   4.439   2.686
15613WAT      O47080   0.927   3.720   6.939
15613WAT     H147081   0.985   3.693   6.863
15613WAT     H247082   0.979   3.718   7.024
15614WAT      O47083   0.368   6.120   0.230
15614WAT     H147084   0.328   6.068   0.305
15614WAT     H247085   0.432   6.063   0.179
15615WAT      O47086   3.724   7.114   8.910
15615WAT     H147087   3.650   7.177   8.935
15615WAT     H247088   3.745   7.124   8.813
15616WAT      O47089   8.224   0.778   1.291
15616WAT     H147090   8.301   0.760   1.352
15616WAT     H247091   8.234   0.869   1.251
15617WAT      O47092   3.614   9.545   2.471
15617WAT     H147093   3.646   9.551   2.377
15617WAT     H247094   3.630   9.452   2.506
15618WAT      O47095   8.455   0.518   3.000
15618WAT     H147096   8.357   0.496   2.993
15618WAT     H247097   8.481   0.523   3.096
15619WAT      O47098   3.362   8.649   2.711
15619WAT     H147099   3.360   8.640   2.811
15619WAT     H247100   3.368   8.558   2.670
15620WAT      O47101   1.584   2.689   9.173
15620WAT     H147102   1.680   2.714   9.189
15620WAT     H247103   1.576   2.651   9.081
15621WAT      O47104   4.073   7.189   2.795
15621WAT     H147105   4.127   7.230   2.869
15621WAT     H247106   4.000   7.133   2.835
15622WAT      O47107   5.516   7.188   0.411
15622WAT     H147108   5.521   7.177   0.510
15622WAT     H247109   5.543   7.103   0.367
15623WAT      O47110   2.319   7.959   7.761
15623WAT     H147111   2.290   8.046   7.800
15623WAT     H247112   2.359   7.974   7.671
15624WAT      O47113   1.983   2.723   2.387
15624WAT     H147114   2.064   2.669   2.412
15624WAT     H247115   1.990   2.749   2.291
15625WAT      O47116   2.464   1.171   8.046
15625WAT     H147117   2.539   1.109   8.025
15625WAT     H247118   2.436   1.160   8.141
15626WAT      O47119   3.344   0.497   1.259
15626WAT     H147120   3.382   0.564   1.322
15626WAT     H247121   3.418   0.441   1.221
15627WAT      O47122   8.727   4.233   9.029
15627WAT     H147123   8.755   4.183   8.947
15627WAT     H247124   8.733   4.173   9.108
15628WAT      O47125   6.272   0.552   3.868
15628WAT     H147126   6.193   0.545   3.808
15628WAT     H247127   6.257   0.497   3.950
15629WAT      O47128   9.264   2.346   6.767
15629WAT     H147129   9.167   2.371   6.758
15629WAT     H247130   9.307   2.349   6.676
15630WAT      O47131   1.750   2.332   6.033
15630WAT     H147132   1.772   2.427   6.012
15630WAT     H247133   1.659   2.327   6.073
15631WAT      O47134   9.853   5.472   2.632
15631WAT     H147135   9.922   5.545   2.640
15631WAT     H247136   9.893   5.386   2.663
15632WAT      O47137   4.085   9.474   2.477
15632WAT     H147138   4.021   9.478   2.400
15632WAT     H247139   4.036   9.498   2.562
15633WAT      O47140   1.832   1.387   5.437
15633WAT     H147141   1.917   1.335   5.442
15633WAT     H247142   1.852   1.485   5.444
15634WAT      O47143   2.488   5.065   6.106
15634WAT     H147144   2.491   4.966   6.102
15634WAT     H247145   2.580   5.101   6.124
15635WAT      O47146   7.178   0.023   4.645
15635WAT     H147147   7.171  -0.024   4.732
15635WAT     H247148   7.171   0.122   4.659
15636WAT      O47149   8.963   8.907   4.641
15636WAT     H147150   8.890   8.841   4.625
15636WAT     H247151   8.971   8.924   4.739
15637WAT      O47152   6.268   2.386   1.928
15637WAT     H147153   6.231   2.306   1.974
15637WAT     H247154   6.210   2.409   1.849
15638WAT      O47155   9.878   6.282   4.511
15638WAT     H147156   9.810   6.327   4.453
15638WAT     H247157   9.869   6.183   4.502
15639WAT      O47158   7.395   5.546   2.280
15639WAT     H147159   7.421   5.509   2.190
15639WAT     H247160   7.476   5.581   2.326
15640WAT      O47161   7.524   1.184   3.341
15640WAT     H147162   7.522   1.270   3.391
15640WAT     H247163   7.588   1.121   3.384
15641WAT      O47164   6.340   1.764   3.070
15641WAT     H147165   6.363   1.756   2.973
15641WAT     H247166   6.252   1.719   3.087
15642WAT      O47167   3.025   7.831   3.250
15642WAT     H147168   3.004   7.876   3.336
15642WAT     H247169   3.045   7.734   3.266
15643WAT      O47170   0.099   0.626   1.940
15643WAT     H147171   0.135   0.706   1.892
15643WAT     H247172   0.130   0.626   2.034
15644WAT      O47173   8.367   1.224   0.056
15644WAT     H147174   8.443   1.232  -0.010
15644WAT     H247175   8.397   1.258   0.145
15645WAT      O47176   2.153   8.504   0.662
15645WAT     H147177   2.059   8.535   0.649
15645WAT     H247178   2.216   8.575   0.631
15646WAT      O47179   8.217   7.436   3.318
15646WAT     H147180   8.298   7.495   3.315
15646WAT     H247181   8.158   7.458   3.240
15647WAT      O47182   2.269   4.683   7.341
15647WAT     H147183   2.263   4.767   7.286
15647WAT     H247184   2.302   4.705   7.432
15648WAT      O47185   9.459   4.804   3.532
15648WAT     H147186   9.481   4.900   3.519
15648WAT     H247187   9.480   4.777   3.626
15649WAT      O47188   1.431   8.443   6.780
15649WAT     H147189   1.433   8.412   6.875
15649WAT     H247190   1.343   8.418   6.740
15650WAT      O47191   4.966   6.382   0.301
15650WAT     H147192   4.885   6.344   0.258
15650WAT     H247193   5.035   6.401   0.231
15651WAT      O47194   7.718   3.352   6.926
15651WAT     H147195   7.787   3.302   6.979
15651WAT     H247196   7.710   3.311   6.835
15652WAT      O47197   6.763   8.495   9.616
15652WAT     H147198   6.855   8.469   9.584
15652WAT     H247199   6.726   8.423   9.674
15653WAT      O47200   2.819   1.760   6.265
15653WAT     H147201   2.818   1.724   6.171
15653WAT     H247202   2.725   1.766   6.299
15654WAT      O47203   2.044   1.642   4.393
15654WAT     H147204   2.133   1.626   4.350
15654WAT     H247205   2.057   1.679   4.485
15655WAT      O47206   4.238   5.321   7.870
15655WAT     H147207   4.335   5.318   7.895
15655WAT     H247208   4.204   5.227   7.862
15656WAT      O47209   4.334   0.652   6.501
15656WAT     H147210   4.375   0.687   6.417
15656WAT     H247211   4.378   0.694   6.580
15657WAT      O47212   9.447   2.143   6.830
15657WAT     H147213   9.507   2.195   6.891
15657WAT     H247214   9.377   2.204   6.792
15658WAT      O47215   6.244   9.212   9.095
15658WAT     H147216   6.313   9.246   9.030
15658WAT     H247217   6.153   9.229   9.059
15659WAT      O47218   1.865   1.520   3.302
15659WAT     H147219   1.804   1.599   3.310
15659WAT     H247220   1.925   1.532   3.223
15660WAT      O47221   5.470   8.463   0.234
15660WAT     H147222   5.459   8.555   0.272
15660WAT     H247223   5.529   8.467   0.153
15661WAT      O47224   9.823   1.734   0.681
15661WAT     H147225   9.790   1.828   0.681
15661WAT     H247226   9.920   1.733   0.655
15662WAT      O47227   3.458   9.604   1.550
15662WAT     H147228   3.528   9.642   1.491
15662WAT     H247229   3.373   9.656   1.539
15663WAT      O47230   9.005   3.967   4.075
15663WAT     H147231   9.004   4.064   4.051
15663WAT     H247232   8.945   3.952   4.153
15664WAT      O47233   0.090   8.839   3.184
15664WAT     H147234   0.003   8.792   3.167
15664WAT     H247235   0.072   8.923   3.237
15665WAT      O47236   4.820   0.990   7.976
15665WAT     H147237   4.910   0.964   7.941
15665WAT     H247238   4.828   1.017   8.072
15666WAT      O47239   0.518   1.604   8.771
15666WAT     H147240   0.557   1.592   8.680
15666WAT     H247241   0.477   1.518   8.802
15667WAT      O47242   5.564   6.317   6.290
15667WAT     H147243   5.566   6.389   6.360
15667WAT     H247244   5.529   6.233   6.330
15668WAT      O47245   2.851   7.077   9.601
15668WAT     H147246   2.779   7.141   9.632
15668WAT     H247247   2.895   7.115   9.519
15669WAT      O47248   9.419   9.362   6.964
15669WAT     H147249   9.361   9.344   7.043
15669WAT     H247250   9.416   9.459   6.941
15670WAT      O47251   6.084   7.131   7.719
15670WAT     H147252   6.144   7.159   7.645
15670WAT     H247253   6.137   7.091   7.794
15671WAT      O47254   9.400   7.572   6.838
15671WAT     H147255   9.443   7.514   6.768
15671WAT     H247256   9.464   7.644   6.865
15672WAT      O47257   7.023   0.930   3.150
15672WAT     H147258   7.068   0.845   3.122
15672WAT     H247259   7.015   0.931   3.250
15673WAT      O47260   4.390   6.772   5.799
15673WAT     H147261   4.369   6.860   5.758
15673WAT     H247262   4.453   6.784   5.875
15674WAT      O47263   2.017   0.347   2.144
15674WAT     H147264   1.962   0.387   2.217
15674WAT     H247265   2.091   0.293   2.183
15675WAT      O47266   3.738   0.739   2.370
15675WAT     H147267   3.758   0.807   2.299
15675WAT     H247268   3.793   0.759   2.451
15676WAT      O47269   3.544   1.305   8.276
15676WAT     H147270   3.528   1.207   8.273
15676WAT     H247271   3.610   1.326   8.348
15677WAT      O47272   1.900   6.000   0.005
15677WAT     H147273   1.826   5.952  -0.042
15677WAT     H247274   1.954   5.934   0.057
15678WAT      O47275   1.320   6.421   6.399
15678WAT     H147276   1.239   6.438   6.456
15678WAT     H247277   1.316   6.480   6.319
15679WAT      O47278   8.399   7.932   9.388
15679WAT     H147279   8.468   8.005   9.384
15679WAT     H247280   8.382   7.907   9.483
15680WAT      O47281   5.077   2.517   9.469
15680WAT     H147282   5.012   2.446   9.499
15680WAT     H247283   5.155   2.475   9.425
15681WAT      O47284   9.350   0.916   4.790
15681WAT     H147285   9.343   1.010   4.757
15681WAT     H247286   9.434   0.875   4.756
15682WAT      O47287   7.650   3.931   0.426
15682WAT     H147288   7.716   3.870   0.382
15682WAT     H247289   7.558   3.912   0.390
15683WAT      O47290   3.340   0.806   4.185
15683WAT     H147291   3.399   0.752   4.125
15683WAT     H247292   3.323   0.895   4.143
15684WAT      O47293   1.758   6.988   3.088
15684WAT     H147294   1.737   7.079   3.053
15684WAT     H247295   1.719   6.978   3.179
15685WAT      O47296   7.474   3.266   3.814
15685WAT     H147297   7.431   3.187   3.772
15685WAT     H247298   7.434   3.350   3.777
15686WAT      O47299   0.651   3.774   3.847
15686WAT     H147300   0.663   3.688   3.797
15686WAT     H247301   0.594   3.758   3.928
15687WAT      O47302   7.389   2.962   7.908
15687WAT     H147303   7.317   2.967   7.977
15687WAT     H247304   7.478   2.972   7.953
15688WAT      O47305   3.056   6.697   7.865
15688WAT     H147306   3.095   6.691   7.957
15688WAT     H247307   3.129   6.681   7.797
15689WAT      O47308   4.677   1.128   0.808
15689WAT     H147309   4.650   1.106   0.902
15689WAT     H247310   4.649   1.053   0.747
15690WAT      O47311   5.636   3.619   2.907
15690WAT     H147312   5.732   3.590   2.906
15690WAT     H247313   5.577   3.540   2.926
15691WAT      O47314   0.466   8.266   2.110
15691WAT     H147315   0.432   8.360   2.105
15691WAT     H247316   0.458   8.223   2.021
15692WAT      O47317   3.320   4.483   9.431
15692WAT     H147318   3.307   4.495   9.529
15692WAT     H247319   3.342   4.571   9.389
15693WAT      O47320   0.322   6.222   8.525
15693WAT     H147321   0.260   6.294   8.492
15693WAT     H247322   0.358   6.248   8.614
15694WAT      O47323   2.068   6.879   1.133
15694WAT     H147324   2.070   6.963   1.080
15694WAT     H247325   2.151   6.826   1.115
15695WAT      O47326   1.094   4.955   8.116
15695WAT     H147327   1.180   4.958   8.166
15695WAT     H247328   1.110   4.975   8.019
15696WAT      O47329   5.178   7.337   5.560
15696WAT     H147330   5.102   7.277   5.582
15696WAT     H247331   5.193   7.401   5.636
15697WAT      O47332   0.973   6.538   5.928
15697WAT     H147333   1.063   6.497   5.941
15697WAT     H247334   0.937   6.567   6.017
15698WAT      O47335   9.862   1.251   1.699
15698WAT     H147336   9.832   1.272   1.606
15698WAT     H247337   9.955   1.285   1.712
15699WAT      O47338   3.275   8.609   2.194
15699WAT     H147339   3.290   8.702   2.228
15699WAT     H247340   3.362   8.558   2.197
15700WAT      O47341   3.623   6.283   8.309
15700WAT     H147342   3.681   6.325   8.240
15700WAT     H247343   3.560   6.351   8.346
15701WAT      O47344   6.007   1.882   5.663
15701WAT     H147345   6.107   1.886   5.656
15701WAT     H247346   5.981   1.812   5.729
15702WAT      O47347   3.843   6.944   4.506
15702WAT     H147348   3.835   7.038   4.537
15702WAT     H247349   3.887   6.941   4.417
15703WAT      O47350   4.828   2.489   0.875
15703WAT     H147351   4.790   2.573   0.836
15703WAT     H247352   4.871   2.435   0.802
15704WAT      O47353   4.992   6.287   8.982
15704WAT     H147354   4.965   6.349   8.909
15704WAT     H247355   5.060   6.332   9.041
15705WAT      O47356   3.001   0.227   6.317
15705WAT     H147357   3.067   0.300   6.332
15705WAT     H247358   2.949   0.211   6.400
15706WAT      O47359   6.906   5.426   2.351
15706WAT     H147360   6.849   5.365   2.406
15706WAT     H247361   6.992   5.443   2.399
15707WAT      O47362   2.633   0.296   2.672
15707WAT     H147363   2.571   0.312   2.749
15707WAT     H247364   2.584   0.251   2.598
15708WAT      O47365   7.307   4.214   4.797
15708WAT     H147366   7.316   4.313   4.781
15708WAT     H247367   7.379   4.185   4.860
15709WAT      O47368   8.697   1.312   6.187
15709WAT     H147369   8.638   1.392   6.179
15709WAT     H247370   8.790   1.341   6.208
15710WAT      O47371   7.053   3.400   3.734
15710WAT     H147372   7.025   3.307   3.755
15710WAT     H247373   6.972   3.458   3.725
15711WAT      O47374   7.443   4.181   3.104
15711WAT     H147375   7.484   4.167   3.013
15711WAT     H247376   7.364   4.240   3.095
15712WAT      O47377   0.819   2.761   0.947
15712WAT     H147378   0.763   2.693   0.996
15712WAT     H247379   0.858   2.719   0.865
15713WAT      O47380   0.278   3.053   1.881
15713WAT     H147381   0.181   3.046   1.857
15713WAT     H247382   0.314   3.140   1.847
15714WAT      O47383   1.438   8.229   2.580
15714WAT     H147384   1.472   8.219   2.673
15714WAT     H247385   1.507   8.199   2.515
15715WAT      O47386   0.385   5.167   0.202
15715WAT     H147387   0.321   5.090   0.193
15715WAT     H247388   0.345   5.236   0.262
15716WAT      O47389   0.973   3.809   1.983
15716WAT     H147390   0.883   3.846   2.006
15716WAT     H247391   0.973   3.710   1.997
15717WAT      O47392   5.606   1.144   4.826
15717WAT     H147393   5.681   1.208   4.812
15717WAT     H247394   5.520   1.194   4.834
15718WAT      O47395   8.680   0.248   8.761
15718WAT     H147396   8.713   0.305   8.836
15718WAT     H247397   8.733   0.268   8.678
15719WAT      O47398   4.294   6.600   3.198
15719WAT     H147399   4.194   6.599   3.209
15719WAT     H247400   4.319   6.668   3.129
15720WAT      O47401   8.892   2.862   8.033
15720WAT     H147402   8.945   2.780   8.053
15720WAT     H247403   8.863   2.860   7.937
15721WAT      O47404   5.974   4.626   0.093
15721WAT     H147405   5.938   4.705   0.143
15721WAT     H247406   6.066   4.646   0.060
15722WAT      O47407   6.012   1.443   1.495
15722WAT     H147408   6.027   1.354   1.452
15722WAT     H247409   5.936   1.489   1.449
15723WAT      O47410   8.033   4.783   1.511
15723WAT     H147411   7.971   4.812   1.584
15723WAT     H247412   7.982   4.736   1.439
15724WAT      O47413   9.169   8.156   7.682
15724WAT     H147414   9.154   8.063   7.717
15724WAT     H247415   9.114   8.170   7.601
15725WAT      O47416   1.699   8.278   7.284
15725WAT     H147417   1.737   8.295   7.375
15725WAT     H247418   1.612   8.229   7.293
15726WAT      O47419   3.265   0.615   0.242
15726WAT     H147420   3.243   0.519   0.263
15726WAT     H247421   3.182   0.661   0.211
15727WAT      O47422   1.787   5.574   9.525
15727WAT     H147423   1.804   5.486   9.482
15727WAT     H247424   1.811   5.568   9.622
15728WAT      O47425   2.595   4.024   8.103
15728WAT     H147426   2.536   4.020   8.184
15728WAT     H247427   2.581   3.942   8.048
15729WAT      O47428   1.473   6.867   1.480
15729WAT     H147429   1.526   6.886   1.563
15729WAT     H247430   1.531   6.879   1.399
15730WAT      O47431   0.849   4.209   8.094
15730WAT     H147432   0.768   4.189   8.149
15730WAT     H247433   0.870   4.307   8.100
15731WAT      O47434   5.154   8.222   0.664
15731WAT     H147435   5.080   8.157   0.643
15731WAT     H247436   5.214   8.230   0.584
15732WAT      O47437   2.520   3.271   9.887
15732WAT     H147438   2.457   3.332   9.935
15732WAT     H247439   2.595   3.324   9.848
15733WAT      O47440   5.902   0.569   9.805
15733WAT     H147441   5.902   0.487   9.863
15733WAT     H247442   5.912   0.542   9.709
15734WAT      O47443   2.664   8.168   5.252
15734WAT     H147444   2.750   8.134   5.215
15734WAT     H247445   2.625   8.236   5.190
15735WAT      O47446   0.170   4.352   0.342
15735WAT     H147447   0.231   4.416   0.296
15735WAT     H247448   0.186   4.355   0.441
15736WAT      O47449   2.533   4.488   2.773
15736WAT     H147450   2.509   4.585   2.769
15736WAT     H247451   2.566   4.465   2.864
15737WAT      O47452   2.724   3.219   8.317
15737WAT     H147453   2.789   3.182   8.384
15737WAT     H247454   2.720   3.159   8.238
15738WAT      O47455   5.836   7.049   3.196
15738WAT     H147456   5.838   7.135   3.247
15738WAT     H247457   5.858   7.066   3.101
15739WAT      O47458   5.824   6.969   8.498
15739WAT     H147459   5.778   6.912   8.430
15739WAT     H247460   5.887   7.032   8.452
15740WAT      O47461   7.485   7.332   2.573
15740WAT     H147462   7.549   7.291   2.509
15740WAT     H247463   7.452   7.263   2.637
15741WAT      O47464   7.235   2.428   1.528
15741WAT     H147465   7.323   2.452   1.570
15741WAT     H247466   7.235   2.456   1.432
15742WAT      O47467   5.960   1.283   5.091
15742WAT     H147468   5.967   1.184   5.103
15742WAT     H247469   5.979   1.306   4.995
15743WAT      O47470   8.781   9.005   3.349
15743WAT     H147471   8.833   9.064   3.288
15743WAT     H247472   8.837   8.979   3.427
15744WAT      O47473   7.134   7.932   2.824
15744WAT     H147474   7.074   8.007   2.854
15744WAT     H247475   7.150   7.870   2.901
15745WAT      O47476   7.690   4.890   7.554
15745WAT     H147477   7.757   4.872   7.482
15745WAT     H247478   7.604   4.919   7.513
15746WAT      O47479   7.508   1.372   0.879
15746WAT     H147480   7.534   1.458   0.924
15746WAT     H247481   7.493   1.301   0.947
15747WAT      O47482   0.095   9.353   0.307
15747WAT     H147483   0.183   9.366   0.262
15747WAT     H247484   0.095   9.398   0.396
15748WAT      O47485   8.248   3.228   6.568
15748WAT     H147486   8.332   3.223   6.621
15748WAT     H247487   8.233   3.322   6.537
15749WAT      O47488   9.344   7.129   1.308
15749WAT     H147489   9.392   7.190   1.245
15749WAT     H247490   9.387   7.134   1.399
15750WAT      O47491   6.141   1.133   3.264
15750WAT     H147492   6.063   1.128   3.326
15750WAT     H247493   6.222   1.093   3.309
15751WAT      O47494   6.986   3.222   5.415
15751WAT     H147495   7.021   3.242   5.323
15751WAT     H247496   7.053   3.169   5.466
15752WAT      O47497   5.932   9.370   4.843
15752WAT     H147498   5.863   9.442   4.838
15752WAT     H247499   6.003   9.387   4.774
15753WAT      O47500   1.918   2.110   7.464
15753WAT     H147501   1.973   2.039   7.508
15753WAT     H247502   1.978   2.166   7.406
15754WAT      O47503   0.481   0.053   9.863
15754WAT     H147504   0.423  -0.025   9.841
15754WAT     H247505   0.577   0.031   9.845
15755WAT      O47506   0.747   0.654   1.116
15755WAT     H147507   0.693   0.736   1.094
15755WAT     H247508   0.834   0.681   1.158
15756WAT      O47509   2.364   7.370   9.519
15756WAT     H147510   2.342   7.462   9.551
15756WAT     H247511   2.292   7.307   9.547
15757WAT      O47512   8.258   3.159   3.140
15757WAT     H147513   8.225   3.196   3.052
15757WAT     H247514   8.209   3.075   3.160
15758WAT      O47515   3.530   7.387   5.382
15758WAT     H147516   3.616   7.422   5.344
15758WAT     H247517   3.457   7.452   5.364
15759WAT      O47518   1.120   9.158   8.231
15759WAT     H147519   1.174   9.081   8.264
15759WAT     H247520   1.180   9.231   8.199
15760WAT      O47521   3.408   6.187   5.759
15760WAT     H147522   3.414   6.252   5.682
15760WAT     H247523   3.419   6.094   5.724
15761WAT      O47524   6.682   0.507   3.273
15761WAT     H147525   6.719   0.574   3.338
15761WAT     H247526   6.664   0.421   3.321
15762WAT      O47527   5.329   4.717   7.816
15762WAT     H147528   5.328   4.775   7.897
15762WAT     H247529   5.236   4.684   7.797
15763WAT      O47530   6.089   2.672   7.681
15763WAT     H147531   6.013   2.712   7.630
15763WAT     H247532   6.164   2.738   7.685
15764WAT      O47533   2.877   6.078   9.862
15764WAT     H147534   2.963   6.026   9.854
15764WAT     H247535   2.806   6.032   9.809
15765WAT      O47536   4.583   3.195   7.322
15765WAT     H147537   4.654   3.198   7.251
15765WAT     H247538   4.535   3.108   7.316
15766WAT      O47539   7.407   3.151   1.103
15766WAT     H147540   7.340   3.218   1.135
15766WAT     H247541   7.494   3.198   1.087
15767WAT      O47542   1.325   0.447   6.383
15767WAT     H147543   1.261   0.524   6.389
15767WAT     H247544   1.349   0.431   6.288
15768WAT      O47545   8.887   4.987   6.987
15768WAT     H147546   8.976   4.941   6.994
15768WAT     H247547   8.877   5.028   6.897
15769WAT      O47548   0.343   4.037   3.650
15769WAT     H147549   0.317   4.104   3.580
15769WAT     H247550   0.284   3.956   3.643
15770WAT      O47551   2.477   4.009   7.143
15770WAT     H147552   2.572   4.017   7.174
15770WAT     H247553   2.416   4.012   7.222
15771WAT      O47554   1.925   1.481   7.446
15771WAT     H147555   1.929   1.452   7.542
15771WAT     H247556   1.985   1.423   7.391
15772WAT      O47557   8.995   4.940   3.703
15772WAT     H147558   8.951   4.853   3.680
15772WAT     H247559   9.037   4.933   3.794
15773WAT      O47560   6.673   1.543   9.522
15773WAT     H147561   6.633   1.616   9.466
15773WAT     H247562   6.606   1.471   9.536
15774WAT      O47563   0.583   3.798   3.108
15774WAT     H147564   0.526   3.779   3.188
15774WAT     H247565   0.595   3.714   3.055
15775WAT      O47566   1.754   1.036   8.459
15775WAT     H147567   1.754   0.936   8.464
15775WAT     H247568   1.848   1.070   8.471
15776WAT      O47569   2.318   6.758   3.074
15776WAT     H147570   2.411   6.732   3.103
15776WAT     H247571   2.260   6.677   3.072
15777WAT      O47572   2.119   6.130   5.397
15777WAT     H147573   2.023   6.138   5.370
15777WAT     H247574   2.131   6.047   5.451
15778WAT      O47575   1.303   4.745   2.640
15778WAT     H147576   1.223   4.688   2.621
15778WAT     H247577   1.318   4.808   2.564
15779WAT      O47578   5.380   2.638   5.423
15779WAT     H147579   5.457   2.604   5.370
15779WAT     H247580   5.307   2.668   5.362
15780WAT      O47581   2.327   6.903   0.646
15780WAT     H147582   2.400   6.841   0.618
15780WAT     H247583   2.367   6.987   0.682
15781WAT      O47584   3.502   8.619   3.655
15781WAT     H147585   3.490   8.690   3.724
15781WAT     H247586   3.437   8.632   3.581
15782WAT      O47587   2.695   4.165   6.078
15782WAT     H147588   2.685   4.113   5.993
15782WAT     H247589   2.734   4.255   6.058
15783WAT      O47590   1.416   6.382   1.648
15783WAT     H147591   1.324   6.418   1.665
15783WAT     H247592   1.471   6.453   1.603
15784WAT      O47593   1.212   8.241   4.774
15784WAT     H147594   1.182   8.326   4.818
15784WAT     H247595   1.300   8.213   4.813
15785WAT      O47596   7.048   8.436   6.036
15785WAT     H147597   7.105   8.431   5.954
15785WAT     H247598   6.954   8.411   6.013
15786WAT      O47599   0.849   0.580   6.332
15786WAT     H147600   0.859   0.574   6.431
15786WAT     H247601   0.906   0.654   6.297
15787WAT      O47602   9.697   1.168   0.265
15787WAT     H147603   9.759   1.246   0.255
15787WAT     H247604   9.725   1.113   0.344
15788WAT      O47605   5.089   6.077   8.778
15788WAT     H147606   5.010   6.071   8.839
15788WAT     H247607   5.148   6.153   8.807
15789WAT      O47608   6.230   6.275   1.977
15789WAT     H147609   6.325   6.301   1.959
15789WAT     H247610   6.195   6.222   1.900
15790WAT      O47611   7.032   1.889   2.854
15790WAT     H147612   6.945   1.867   2.897
15790WAT     H247613   7.045   1.830   2.774
15791WAT      O47614   0.662   1.011   4.476
15791WAT     H147615   0.587   1.077   4.478
15791WAT     H247616   0.651   0.951   4.396
15792WAT      O47617   5.759   3.912   2.924
15792WAT     H147618   5.675   3.964   2.906
15792WAT     H247619   5.750   3.820   2.886
15793WAT      O47620   9.023   4.810   0.912
15793WAT     H147621   9.056   4.753   0.986
15793WAT     H247622   9.099   4.862   0.872
15794WAT      O47623   2.684   4.889   2.613
15794WAT     H147624   2.655   4.947   2.537
15794WAT     H247625   2.772   4.846   2.591
15795WAT      O47626   8.369   8.075   0.189
15795WAT     H147627   8.436   8.127   0.242
15795WAT     H247628   8.331   8.134   0.117
15796WAT      O47629   5.326   0.669   7.751
15796WAT     H147630   5.262   0.739   7.782
15796WAT     H247631   5.413   0.679   7.799
15797WAT      O47632   1.511   0.920   2.947
15797WAT     H147633   1.416   0.893   2.960
15797WAT     H247634   1.553   0.938   3.036
15798WAT      O47635   3.476   3.745   9.561
15798WAT     H147636   3.531   3.662   9.557
15798WAT     H247637   3.535   3.824   9.577
15799WAT      O47638   2.443   6.223   3.446
15799WAT     H147639   2.505   6.258   3.516
15799WAT     H247640   2.349   6.243   3.472
15800WAT      O47641   0.882   0.330   6.921
15800WAT     H147642   0.957   0.304   6.861
15800WAT     H247643   0.850   0.250   6.971
15801WAT      O47644   6.440   1.284   4.788
15801WAT     H147645   6.530   1.284   4.831
15801WAT     H247646   6.392   1.368   4.811
15802WAT      O47647   1.919   7.623   8.161
15802WAT     H147648   1.994   7.689   8.150
15802WAT     H247649   1.900   7.611   8.258
15803WAT      O47650   7.016   8.315   3.544
15803WAT     H147651   7.115   8.326   3.538
15803WAT     H247652   6.976   8.393   3.592
15804WAT      O47653   1.517   8.810   7.105
15804WAT     H147654   1.502   8.856   7.193
15804WAT     H247655   1.601   8.756   7.109
15805WAT      O47656   5.023   1.696   6.083
15805WAT     H147657   5.006   1.600   6.107
15805WAT     H247658   5.062   1.701   5.991
15806WAT      O47659   8.823   2.456   0.465
15806WAT     H147660   8.834   2.367   0.510
15806WAT     H247661   8.790   2.443   0.372
15807WAT      O47662   5.611   1.796   5.506
15807WAT     H147663   5.534   1.732   5.512
15807WAT     H247664   5.620   1.845   5.592
15808WAT      O47665   7.350   2.195   4.657
15808WAT     H147666   7.360   2.270   4.591
15808WAT     H247667   7.438   2.177   4.700
15809WAT      O47668   9.403   8.734   1.734
15809WAT     H147669   9.360   8.652   1.772
15809WAT     H247670   9.490   8.710   1.692
15810WAT      O47671   0.806   7.253   9.487
15810WAT     H147672   0.765   7.184   9.546
15810WAT     H247673   0.781   7.344   9.520
15811WAT      O47674   2.551   1.810   3.130
15811WAT     H147675   2.537   1.720   3.089
15811WAT     H247676   2.507   1.880   3.073
15812WAT      O47677   8.899   8.087   6.442
15812WAT     H147678   8.871   8.131   6.357
15812WAT     H247679   8.844   8.123   6.518
15813WAT      O47680   2.624   2.457   7.001
15813WAT     H147681   2.544   2.402   7.024
15813WAT     H247682   2.660   2.429   6.912
15814WAT      O47683   5.583   8.257   5.851
15814WAT     H147684   5.664   8.212   5.815
15814WAT     H247685   5.542   8.200   5.923
15815WAT      O47686   4.287   4.003   3.376
15815WAT     H147687   4.252   3.938   3.443
15815WAT     H247688   4.325   3.954   3.298
15816WAT      O47689   2.582   9.276   0.456
15816WAT     H147690   2.651   9.247   0.390
15816WAT     H247691   2.523   9.199   0.480
15817WAT      O47692   7.055   7.020   9.607
15817WAT     H147693   7.083   6.959   9.533
15817WAT     H247694   6.982   6.977   9.660
15818WAT      O47695   3.025   0.463   2.744
15818WAT     H147696   3.037   0.559   2.716
15818WAT     H247697   2.962   0.418   2.680
15819WAT      O47698   6.473   6.516   8.184
15819WAT     H147699   6.513   6.439   8.233
15819WAT     H247700   6.491   6.600   8.234
15820WAT      O47701   0.649   8.797   9.747
15820WAT     H147702   0.572   8.765   9.692
15820WAT     H247703   0.712   8.849   9.690
15821WAT      O47704   3.656   2.558   8.753
15821WAT     H147705   3.571   2.576   8.801
15821WAT     H247706   3.722   2.631   8.772
15822WAT      O47707   3.307   5.923   1.473
15822WAT     H147708   3.343   5.960   1.558
15822WAT     H247709   3.382   5.885   1.418
15823WAT      O47710   9.384   7.437   2.978
15823WAT     H147711   9.372   7.532   2.950
15823WAT     H247712   9.324   7.378   2.924
15824WAT      O47713   7.730   9.785   7.381
15824WAT     H147714   7.778   9.778   7.294
15824WAT     H247715   7.795   9.810   7.453
15825WAT      O47716   8.610   9.315   6.026
15825WAT     H147717   8.632   9.362   6.112
15825WAT     H247718   8.684   9.253   6.002
15826WAT      O47719   8.719   6.346   9.417
15826WAT     H147720   8.620   6.335   9.423
15826WAT     H247721   8.760   6.261   9.386
15827WAT      O47722   0.451   6.893   7.203
15827WAT     H147723   0.383   6.854   7.141
15827WAT     H247724   0.489   6.820   7.260
15828WAT      O47725   5.212   0.901   3.804
15828WAT     H147726   5.259   0.933   3.886
15828WAT     H247727   5.121   0.868   3.829
15829WAT      O47728   4.355   4.826   8.591
15829WAT     H147729   4.330   4.752   8.652
15829WAT     H247730   4.444   4.863   8.617
15830WAT      O47731   6.152   5.324   7.365
15830WAT     H147732   6.072   5.341   7.422
15830WAT     H247733   6.235   5.331   7.422
15831WAT      O47734   9.146   2.562   8.859
15831WAT     H147735   9.081   2.614   8.914
15831WAT     H247736   9.140   2.465   8.884
15832WAT      O47737   8.935   9.064   5.575
15832WAT     H147738   8.984   9.025   5.497
15832WAT     H247739   8.865   9.127   5.542
15833WAT      O47740   4.946   7.988   7.367
15833WAT     H147741   4.927   7.928   7.289
15833WAT     H247742   5.004   8.064   7.337
15834WAT      O47743   2.677   1.322   5.278
15834WAT     H147744   2.646   1.363   5.364
15834WAT     H247745   2.751   1.378   5.240
15835WAT      O47746   2.220   3.149   9.340
15835WAT     H147747   2.123   3.127   9.352
15835WAT     H247748   2.269   3.131   9.426
15836WAT      O47749   6.855   0.287   9.803
15836WAT     H147750   6.796   0.354   9.758
15836WAT     H247751   6.907   0.236   9.734
15837WAT      O47752   1.484   9.668   9.742
15837WAT     H147753   1.468   9.732   9.817
15837WAT     H247754   1.467   9.714   9.655
15838WAT      O47755   0.816   8.366   2.957
15838WAT     H147756   0.878   8.361   2.878
15838WAT     H247757   0.870   8.366   3.041
15839WAT      O47758   4.166   4.179   3.193
15839WAT     H147759   4.089   4.134   3.147
15839WAT     H247760   4.207   4.116   3.258
15840WAT      O47761   8.813   7.155   0.305
15840WAT     H147762   8.844   7.240   0.261
15840WAT     H247763   8.893   7.102   0.334
15841WAT      O47764   2.636   7.907   7.562
15841WAT     H147765   2.653   7.967   7.640
15841WAT     H247766   2.670   7.815   7.583
15842WAT      O47767   8.757   2.654   3.647
15842WAT     H147768   8.685   2.598   3.687
15842WAT     H247769   8.732   2.750   3.653
15843WAT      O47770   4.796   5.665   2.048
15843WAT     H147771   4.890   5.664   2.014
15843WAT     H247772   4.789   5.731   2.123
15844WAT      O47773   8.020   4.499   5.439
15844WAT     H147774   7.935   4.548   5.455
15844WAT     H247775   8.032   4.483   5.341
15845WAT      O47776   5.172   1.516   3.858
15845WAT     H147777   5.188   1.417   3.866
15845WAT     H247778   5.195   1.546   3.766
15846WAT      O47779   6.999   4.682   2.206
15846WAT     H147780   7.096   4.667   2.186
15846WAT     H247781   6.954   4.718   2.124
15847WAT      O47782   6.410   8.349   0.168
15847WAT     H147783   6.411   8.354   0.069
15847WAT     H247784   6.504   8.354   0.203
15848WAT      O47785   2.728   5.157   2.209
15848WAT     H147786   2.671   5.230   2.245
15848WAT     H247787   2.824   5.182   2.216
15849WAT      O47788   3.452   3.706   5.870
15849WAT     H147789   3.487   3.793   5.906
15849WAT     H247790   3.512   3.631   5.899
15850WAT      O47791   7.765   9.477   5.606
15850WAT     H147792   7.681   9.432   5.634
15850WAT     H247793   7.774   9.471   5.506
15851WAT      O47794   4.737   3.176   7.080
15851WAT     H147795   4.805   3.226   7.028
15851WAT     H247796   4.651   3.171   7.029
15852WAT      O47797   9.778   9.415   2.663
15852WAT     H147798   9.827   9.346   2.716
15852WAT     H247799   9.718   9.369   2.597
15853WAT      O47800   1.145   6.997   3.613
15853WAT     H147801   1.165   7.041   3.700
15853WAT     H247802   1.167   6.899   3.619
15854WAT      O47803   8.656   7.088   9.068
15854WAT     H147804   8.739   7.052   9.109
15854WAT     H247805   8.576   7.057   9.120
15855WAT      O47806   5.186   5.260   8.809
15855WAT     H147807   5.159   5.349   8.846
15855WAT     H247808   5.191   5.266   8.709
15856WAT      O47809   5.353   2.136   9.757
15856WAT     H147810   5.423   2.208   9.760
15856WAT     H247811   5.292   2.153   9.680
15857WAT      O47812   2.756   3.666   9.286
15857WAT     H147813   2.722   3.749   9.332
15857WAT     H247814   2.829   3.691   9.222
15858WAT      O47815   9.343   2.776   9.805
15858WAT     H147816   9.369   2.851   9.865
15858WAT     H247817   9.320   2.696   9.860
15859WAT      O47818   0.660   5.130   0.171
15859WAT     H147819   0.712   5.086   0.244
15859WAT     H247820   0.563   5.125   0.191
15860WAT      O47821   4.651   4.684   1.402
15860WAT     H147822   4.659   4.727   1.491
15860WAT     H247823   4.560   4.644   1.392
15861WAT      O47824   2.391   5.389   8.841
15861WAT     H147825   2.468   5.402   8.779
15861WAT     H247826   2.306   5.388   8.788
15862WAT      O47827   8.391   0.071   1.299
15862WAT     H147828   8.340   0.152   1.273
15862WAT     H247829   8.326  -0.002   1.325
15863WAT      O47830   4.474   5.951   5.919
15863WAT     H147831   4.566   5.985   5.897
15863WAT     H247832   4.444   5.887   5.847
15864WAT      O47833   0.808   7.854   7.445
15864WAT     H147834   0.852   7.829   7.531
15864WAT     H247835   0.826   7.783   7.377
15865WAT      O47836   7.825   8.002   5.148
15865WAT     H147837   7.921   8.014   5.121
15865WAT     H247838   7.772   8.081   5.117
15866WAT      O47839   6.486   8.055   1.359
15866WAT     H147840   6.438   7.983   1.309
15866WAT     H247841   6.434   8.140   1.353
15867WAT      O47842   1.092   1.246   1.204
15867WAT     H147843   1.031   1.325   1.210
15867WAT     H247844   1.039   1.162   1.209
15868WAT      O47845   9.609   6.410   9.055
15868WAT     H147846   9.572   6.489   9.104
15868WAT     H247847   9.708   6.422   9.042
15869WAT      O47848   8.296   4.695   2.643
15869WAT     H147849   8.203   4.667   2.617
15869WAT     H247850   8.317   4.784   2.601
15870WAT      O47851   0.442   1.499   1.862
15870WAT     H147852   0.538   1.502   1.831
15870WAT     H247853   0.385   1.548   1.797
15871WAT      O47854   3.135   1.153   7.830
15871WAT     H147855   3.207   1.088   7.804
15871WAT     H247856   3.122   1.219   7.756
15872WAT      O47857   0.314   0.030   6.491
15872WAT     H147858   0.380   0.028   6.566
15872WAT     H247859   0.362   0.045   6.405
15873WAT      O47860   4.690   8.662   5.860
15873WAT     H147861   4.756   8.731   5.832
15873WAT     H247862   4.739   8.577   5.883
15874WAT      O47863   0.921   1.366   2.790
15874WAT     H147864   0.844   1.423   2.821
15874WAT     H247865   0.911   1.274   2.827
15875WAT      O47866   2.721   0.403   9.831
15875WAT     H147867   2.645   0.422   9.894
15875WAT     H247868   2.694   0.329   9.769
15876WAT      O47869   2.647   3.134   5.098
15876WAT     H147870   2.587   3.209   5.124
15876WAT     H247871   2.685   3.092   5.181
15877WAT      O47872   5.088   5.358   8.529
15877WAT     H147873   5.121   5.452   8.533
15877WAT     H247874   5.121   5.314   8.445
15878WAT      O47875   1.038   1.617   8.301
15878WAT     H147876   0.972   1.542   8.303
15878WAT     H247877   1.064   1.640   8.395
15879WAT      O47878   3.872   8.250   7.419
15879WAT     H147879   3.824   8.331   7.452
15879WAT     H247880   3.971   8.265   7.422
15880WAT      O47881   6.555   1.830   6.288
15880WAT     H147882   6.555   1.928   6.269
15880WAT     H247883   6.511   1.781   6.213
15881WAT      O47884   1.747   6.081   0.804
15881WAT     H147885   1.817   6.150   0.781
15881WAT     H247886   1.754   6.005   0.739
15882WAT      O47887   6.328   7.643   9.171
15882WAT     H147888   6.345   7.740   9.184
15882WAT     H247889   6.354   7.593   9.254
15883WAT      O47890   9.050   2.687   3.388
15883WAT     H147891   9.139   2.728   3.367
15883WAT     H247892   9.036   2.688   3.487
15884WAT      O47893   2.429   9.447   2.705
15884WAT     H147894   2.497   9.519   2.708
15884WAT     H247895   2.448   9.385   2.629
15885WAT      O47896   8.929   1.314   3.059
15885WAT     H147897   8.971   1.326   2.969
15885WAT     H247898   8.830   1.323   3.051
15886WAT      O47899   9.760   3.954   4.698
15886WAT     H147900   9.813   4.037   4.714
15886WAT     H247901   9.775   3.922   4.605
15887WAT      O47902   0.271   8.142   2.725
15887WAT     H147903   0.319   8.208   2.667
15887WAT     H247904   0.319   8.132   2.812
15888WAT      O47905   0.373   5.679   7.474
15888WAT     H147906   0.316   5.597   7.474
15888WAT     H247907   0.339   5.743   7.543
15889WAT      O47908   2.932   8.473   9.650
15889WAT     H147909   2.844   8.502   9.688
15889WAT     H247910   2.966   8.395   9.702
15890WAT      O47911   2.715   4.313   4.063
15890WAT     H147912   2.715   4.230   4.118
15890WAT     H247913   2.753   4.389   4.117
15891WAT      O47914   0.219   7.020   6.877
15891WAT     H147915   0.149   6.972   6.824
15891WAT     H247916   0.175   7.077   6.946
15892WAT      O47917   1.257   3.634   5.287
15892WAT     H147918   1.288   3.633   5.381
15892WAT     H247919   1.160   3.610   5.284
15893WAT      O47920   0.357   8.371   2.538
15893WAT     H147921   0.318   8.324   2.458
15893WAT     H247922   0.423   8.439   2.507
15894WAT      O47923   3.225   6.282   0.249
15894WAT     H147924   3.136   6.291   0.203
15894WAT     H247925   3.290   6.345   0.206
15895WAT      O47926   4.053   7.826   8.213
15895WAT     H147927   4.050   7.762   8.136
15895WAT     H247928   3.964   7.870   8.223
15896WAT      O47929   5.271   7.192   9.314
15896WAT     H147930   5.302   7.204   9.408
15896WAT     H247931   5.345   7.216   9.251
15897WAT      O47932   4.127   3.435   5.209
15897WAT     H147933   4.112   3.353   5.154
15897WAT     H247934   4.098   3.418   5.303
15898WAT      O47935   7.949   0.409   0.407
15898WAT     H147936   7.943   0.414   0.506
15898WAT     H247937   8.042   0.381   0.381
15899WAT      O47938   9.528   6.079   5.797
15899WAT     H147939   9.628   6.075   5.799
15899WAT     H247940   9.499   6.173   5.781
15900WAT      O47941   2.761   9.262   0.957
15900WAT     H147942   2.755   9.309   0.869
15900WAT     H247943   2.685   9.290   1.015
15901WAT      O47944   2.140   8.887   1.188
15901WAT     H147945   2.097   8.971   1.157
15901WAT     H247946   2.212   8.908   1.254
15902WAT      O47947   5.140   3.188   7.813
15902WAT     H147948   5.047   3.216   7.789
15902WAT     H247949   5.159   3.213   7.908
15903WAT      O47950   6.101   5.559   4.227
15903WAT     H147951   6.134   5.611   4.149
15903WAT     H247952   6.169   5.491   4.253
15904WAT      O47953   7.660   9.120   5.625
15904WAT     H147954   7.601   9.199   5.607
15904WAT     H247955   7.604   9.040   5.644
15905WAT      O47956   4.583   5.162   7.932
15905WAT     H147957   4.585   5.173   7.833
15905WAT     H247958   4.623   5.243   7.975
15906WAT      O47959   5.881   1.305   0.656
15906WAT     H147960   5.859   1.386   0.602
15906WAT     H247961   5.965   1.263   0.622
15907WAT      O47962   4.994   4.195   8.256
15907WAT     H147963   5.063   4.184   8.185
15907WAT     H247964   5.040   4.204   8.345
15908WAT      O47965   3.832   3.117   6.797
15908WAT     H147966   3.735   3.130   6.821
15908WAT     H247967   3.841   3.113   6.697
15909WAT      O47968   4.455   9.599   3.663
15909WAT     H147969   4.457   9.682   3.720
15909WAT     H247970   4.362   9.587   3.627
15910WAT      O47971   2.955   1.795   2.879
15910WAT     H147972   3.012   1.856   2.823
15910WAT     H247973   2.991   1.702   2.874
15911WAT      O47974   7.643   0.571   5.715
15911WAT     H147975   7.645   0.471   5.704
15911WAT     H247976   7.728   0.602   5.757
15912WAT      O47977   3.446   1.868   8.987
15912WAT     H147978   3.382   1.794   8.969
15912WAT     H247979   3.396   1.951   9.011
15913WAT      O47980   9.775   9.019   8.733
15913WAT     H147981   9.746   9.052   8.823
15913WAT     H247982   9.840   8.944   8.746
15914WAT      O47983   5.129   7.779   7.637
15914WAT     H147984   5.118   7.878   7.638
15914WAT     H247985   5.094   7.741   7.722
15915WAT      O47986   3.329   2.390   9.714
15915WAT     H147987   3.367   2.478   9.689
15915WAT     H247988   3.386   2.347   9.783
15916WAT      O47989   9.751   8.506   7.307
15916WAT     H147990   9.727   8.486   7.402
15916WAT     H247991   9.794   8.596   7.302
15917WAT      O47992   7.141   5.028   6.192
15917WAT     H147993   7.197   5.085   6.132
15917WAT     H247994   7.046   5.028   6.160
15918WAT      O47995   5.879   7.284   9.337
15918WAT     H147996   5.814   7.349   9.297
15918WAT     H247997   5.959   7.276   9.277
15919WAT      O47998   9.461   6.391   1.117
15919WAT     H147999   9.405   6.433   1.188
15919WAT     H248000   9.508   6.311   1.155
15920WAT      O48001   8.926   0.584   0.773
15920WAT     H148002   8.862   0.660   0.780
15920WAT     H248003   9.014   0.610   0.813
15921WAT      O48004   5.372   6.104   8.241
15921WAT     H148005   5.282   6.065   8.260
15921WAT     H248006   5.419   6.047   8.174
15922WAT      O48007   2.092   2.986   5.498
15922WAT     H148008   1.999   2.953   5.509
15922WAT     H248009   2.103   3.025   5.406
15923WAT      O48010   6.463   9.596   0.331
15923WAT     H148011   6.503   9.673   0.282
15923WAT     H248012   6.384   9.562   0.280
15924WAT      O48013   3.085   7.884   9.790
15924WAT     H148014   3.087   7.857   9.694
15924WAT     H248015   2.992   7.913   9.815
15925WAT      O48016   5.842   8.407   4.191
15925WAT     H148017   5.936   8.439   4.203
15925WAT     H248018   5.785   8.484   4.160
15926WAT      O48019   6.133   5.137   8.510
15926WAT     H148020   6.224   5.175   8.499
15926WAT     H248021   6.076   5.162   8.432
15927WAT      O48022   8.883   6.172   3.044
15927WAT     H148023   8.974   6.145   3.012
15927WAT     H248024   8.814   6.137   2.980
15928WAT      O48025   9.626   9.676   7.158
15928WAT     H148026   9.606   9.747   7.090
15928WAT     H248027   9.650   9.592   7.111
15929WAT      O48028   2.101   4.793   6.987
15929WAT     H148029   2.169   4.854   6.946
15929WAT     H248030   2.124   4.698   6.965
15930WAT      O48031   4.129   7.717   4.261
15930WAT     H148032   4.057   7.774   4.223
15930WAT     H248033   4.098   7.622   4.265
15931WAT      O48034   5.459   6.920   7.066
15931WAT     H148035   5.418   6.915   6.975
15931WAT     H248036   5.432   7.005   7.110
15932WAT      O48037   0.680   1.240   0.691
15932WAT     H148038   0.745   1.314   0.705
15932WAT     H248039   0.587   1.275   0.703
15933WAT      O48040   9.575   1.929   2.436
15933WAT     H148041   9.585   1.844   2.488
15933WAT     H248042   9.501   1.920   2.370
15934WAT      O48043   1.631   0.884   5.286
15934WAT     H148044   1.694   0.838   5.223
15934WAT     H248045   1.553   0.825   5.306
15935WAT      O48046   6.806   6.423   9.387
15935WAT     H148047   6.787   6.457   9.294
15935WAT     H248048   6.757   6.479   9.453
15936WAT      O48049   4.270   9.665   6.663
15936WAT     H148050   4.295   9.700   6.573
15936WAT     H248051   4.212   9.584   6.653
15937WAT      O48052   9.652   6.205   7.429
15937WAT     H148053   9.655   6.270   7.352
15937WAT     H248054   9.719   6.133   7.414
15938WAT      O48055   5.992   5.602   2.653
15938WAT     H148056   6.069   5.666   2.644
15938WAT     H248057   5.929   5.616   2.577
15939WAT      O48058   8.658   4.846   3.593
15939WAT     H148059   8.600   4.794   3.530
15939WAT     H248060   8.730   4.786   3.629
15940WAT      O48061   0.379   3.273   1.754
15940WAT     H148062   0.362   3.226   1.667
15940WAT     H248063   0.444   3.347   1.740
15941WAT      O48064   6.825   6.350   8.949
15941WAT     H148065   6.821   6.314   8.856
15941WAT     H248066   6.919   6.342   8.983
15942WAT      O48067   8.784   0.569   9.445
15942WAT     H148068   8.705   0.533   9.396
15942WAT     H248069   8.796   0.518   9.530
15943WAT      O48070   1.774   0.594   9.699
15943WAT     H148071   1.805   0.687   9.719
15943WAT     H248072   1.734   0.553   9.780
15944WAT      O48073   1.330   7.485   7.071
15944WAT     H148074   1.334   7.499   6.972
15944WAT     H248075   1.346   7.572   7.117
15945WAT      O48076   0.397   8.452   6.143
15945WAT     H148077   0.410   8.365   6.094
15945WAT     H248078   0.300   8.475   6.145
15946WAT      O48079   7.479   8.439   6.144
15946WAT     H148080   7.461   8.380   6.223
15946WAT     H248081   7.401   8.499   6.128
15947WAT      O48082   8.523   6.940   9.430
15947WAT     H148083   8.585   6.980   9.362
15947WAT     H248084   8.503   6.846   9.404
15948WAT      O48085   2.751   9.538   5.170
15948WAT     H148086   2.720   9.451   5.132
15948WAT     H248087   2.807   9.586   5.102
15949WAT      O48088   8.680   6.547   4.570
15949WAT     H148089   8.644   6.458   4.596
15949WAT     H248090   8.619   6.591   4.504
15950WAT      O48091   5.916   1.370   9.121
15950WAT     H148092   6.016   1.372   9.117
15950WAT     H248093   5.878   1.417   9.041
15951WAT      O48094   2.668   6.177   3.644
15951WAT     H148095   2.671   6.199   3.742
15951WAT     H248096   2.739   6.227   3.596
15952WAT      O48097   6.188   8.259   6.703
15952WAT     H148098   6.186   8.358   6.687
15952WAT     H248099   6.104   8.218   6.670
15953WAT      O48100   0.975   0.275   1.390
15953WAT     H148101   0.934   0.362   1.418
15953WAT     H248102   1.074   0.281   1.396
15954WAT      O48103   2.843   9.355   6.576
15954WAT     H148104   2.869   9.449   6.596
15954WAT     H248105   2.797   9.351   6.487
15955WAT      O48106   8.816   2.803   8.301
15955WAT     H148107   8.858   2.803   8.211
15955WAT     H248108   8.861   2.736   8.360
15956WAT      O48109   8.507   2.431   3.862
15956WAT     H148110   8.538   2.417   3.768
15956WAT     H248111   8.423   2.379   3.879
15957WAT      O48112   9.413   4.118   2.586
15957WAT     H148113   9.456   4.193   2.534
15957WAT     H248114   9.432   4.031   2.540
15958WAT      O48115   9.715   6.399   8.781
15958WAT     H148116   9.715   6.321   8.719
15958WAT     H248117   9.721   6.484   8.728
15959WAT      O48118   7.366   9.708   2.748
15959WAT     H148119   7.288   9.714   2.685
15959WAT     H248120   7.344   9.758   2.832
15960WAT      O48121   0.313   2.539   1.931
15960WAT     H148122   0.241   2.481   1.969
15960WAT     H248123   0.341   2.503   1.842
15961WAT      O48124   7.117   1.746   1.290
15961WAT     H148125   7.064   1.720   1.370
15961WAT     H248126   7.212   1.760   1.315
15962WAT      O48127   5.406   9.807   4.008
15962WAT     H148128   5.367   9.759   4.087
15962WAT     H248129   5.380   9.761   3.924
15963WAT      O48130   2.191   4.031   5.696
15963WAT     H148131   2.265   4.097   5.684
15963WAT     H248132   2.152   4.041   5.788
15964WAT      O48133   5.651   1.404   7.480
15964WAT     H148134   5.578   1.453   7.432
15964WAT     H248135   5.634   1.407   7.579
15965WAT      O48136   5.667   5.180   3.752
15965WAT     H148137   5.636   5.238   3.827
15965WAT     H248138   5.621   5.091   3.757
15966WAT      O48139   1.807   0.161   8.206
15966WAT     H148140   1.863   0.132   8.128
15966WAT     H248141   1.781   0.257   8.193
15967WAT      O48142   6.497   6.488   1.113
15967WAT     H148143   6.475   6.527   1.202
15967WAT     H248144   6.431   6.521   1.045
15968WAT      O48145   3.563   2.814   9.163
15968WAT     H148146   3.572   2.819   9.063
15968WAT     H248147   3.652   2.792   9.203
15969WAT      O48148   5.333   1.021   5.119
15969WAT     H148149   5.393   1.101   5.108
15969WAT     H248150   5.387   0.942   5.147
15970WAT      O48151   4.546   2.299   6.055
15970WAT     H148152   4.520   2.394   6.074
15970WAT     H248153   4.644   2.296   6.033
15971WAT      O48154   2.887   2.544   6.311
15971WAT     H148155   2.828   2.565   6.232
15971WAT     H248156   2.972   2.503   6.278
15972WAT      O48157   6.027   6.601   8.811
15972WAT     H148158   6.096   6.554   8.756
15972WAT     H248159   6.004   6.688   8.767
15973WAT      O48160   9.276   1.904   4.057
15973WAT     H148161   9.330   1.891   4.140
15973WAT     H248162   9.233   1.817   4.032
15974WAT      O48163   6.390   6.592   4.119
15974WAT     H148164   6.434   6.596   4.209
15974WAT     H248165   6.299   6.550   4.129
15975WAT      O48166   1.444   2.268   9.427
15975WAT     H148167   1.491   2.265   9.339
15975WAT     H248168   1.351   2.301   9.414
15976WAT      O48169   5.484   4.104   5.768
15976WAT     H148170   5.536   4.112   5.853
15976WAT     H248171   5.524   4.163   5.698
15977WAT      O48172   5.120   1.139   2.277
15977WAT     H148173   5.093   1.045   2.301
15977WAT     H248174   5.199   1.136   2.217
15978WAT      O48175   1.046   0.911   5.134
15978WAT     H148176   1.038   1.011   5.137
15978WAT     H248177   1.003   0.873   5.216
15979WAT      O48178   6.909   7.205   6.661
15979WAT     H148179   6.934   7.300   6.647
15979WAT     H248180   6.817   7.200   6.699
15980WAT      O48181   7.407   2.790   1.973
15980WAT     H148182   7.470   2.866   1.955
15980WAT     H248183   7.319   2.827   2.004
15981WAT      O48184   8.304   1.045   3.010
15981WAT     H148185   8.402   1.025   3.007
15981WAT     H248186   8.253   0.975   2.961
15982WAT      O48187   3.393   7.495   9.408
15982WAT     H148188   3.477   7.473   9.458
15982WAT     H248189   3.368   7.590   9.425
15983WAT      O48190   2.746   0.883   7.157
15983WAT     H148191   2.760   0.869   7.059
15983WAT     H248192   2.714   0.976   7.174
15984WAT      O48193   3.710   6.169   0.719
15984WAT     H148194   3.766   6.098   0.677
15984WAT     H248195   3.674   6.230   0.649
15985WAT      O48196   3.455   3.763   3.560
15985WAT     H148197   3.393   3.821   3.612
15985WAT     H248198   3.548   3.798   3.567
15986WAT      O48199   5.943   4.365   4.198
15986WAT     H148200   6.005   4.442   4.204
15986WAT     H248201   5.854   4.390   4.237
15987WAT      O48202   2.482   2.717   5.809
15987WAT     H148203   2.530   2.805   5.801
15987WAT     H248204   2.521   2.652   5.745
15988WAT      O48205   8.184   3.502   3.763
15988WAT     H148206   8.126   3.503   3.682
15988WAT     H248207   8.231   3.415   3.770
15989WAT      O48208   1.051   7.946   9.781
15989WAT     H148209   0.991   7.878   9.825
15989WAT     H248210   1.133   7.958   9.836
15990WAT      O48211   0.203   5.917   1.483
15990WAT     H148212   0.140   5.964   1.422
15990WAT     H248213   0.207   5.965   1.571
15991WAT      O48214   8.491   0.433   8.712
15991WAT     H148215   8.414   0.417   8.773
15991WAT     H248216   8.557   0.359   8.721
15992WAT      O48217   7.081   6.032   1.259
15992WAT     H148218   7.166   6.005   1.214
15992WAT     H248219   7.100   6.098   1.331
15993WAT      O48220   0.136   6.727   0.641
15993WAT     H148221   0.116   6.764   0.732
15993WAT     H248222   0.213   6.663   0.648
15994WAT      O48223   1.440   7.068   6.617
15994WAT     H148224   1.365   7.122   6.578
15994WAT     H248225   1.403   6.990   6.667
15995WAT      O48226   7.236   1.113   6.140
15995WAT     H148227   7.270   1.049   6.072
15995WAT     H248228   7.145   1.087   6.170
15996WAT      O48229   9.259   4.421   9.010
15996WAT     H148230   9.270   4.348   9.078
15996WAT     H248231   9.162   4.437   8.993
15997WAT      O48232   8.484   3.363   7.678
15997WAT     H148233   8.562   3.416   7.644
15997WAT     H248234   8.433   3.417   7.744
15998WAT      O48235   1.818   2.874   1.467
15998WAT     H148236   1.728   2.857   1.428
15998WAT     H248237   1.811   2.946   1.536
15999WAT      O48238   7.044   4.054   4.830
15999WAT     H148239   7.006   4.030   4.740
15999WAT     H248240   7.137   4.088   4.818
16000WAT      O48241   2.024   5.614   4.656
16000WAT     H148242   2.074   5.645   4.736
16000WAT     H248243   1.940   5.568   4.685
16001WAT      O48244   0.408   8.953   4.899
16001WAT     H148245   0.318   8.919   4.874
16001WAT     H248246   0.464   8.963   4.817
16002WAT      O48247   8.047   4.836   5.273
16002WAT     H148248   8.138   4.802   5.248
16002WAT     H248249   8.042   4.849   5.372
16003WAT      O48250   4.718   2.139   9.885
16003WAT     H148251   4.778   2.218   9.876
16003WAT     H248252   4.679   2.137   9.977
16004WAT      O48253   3.046   3.447   7.689
16004WAT     H148254   2.982   3.383   7.731
16004WAT     H248255   3.060   3.423   7.593
16005WAT      O48256   7.318   3.873   2.068
16005WAT     H148257   7.329   3.777   2.094
16005WAT     H248258   7.245   3.881   1.999
16006WAT      O48259   2.684   3.225   1.221
16006WAT     H148260   2.659   3.221   1.318
16006WAT     H248261   2.639   3.304   1.179
16007WAT      O48262   0.951   9.820   6.717
16007WAT     H148263   0.999   9.800   6.632
16007WAT     H248264   1.017   9.835   6.790
16008WAT      O48265   0.964   9.560   1.728
16008WAT     H148266   1.030   9.591   1.659
16008WAT     H248267   0.882   9.616   1.722
16009WAT      O48268   6.809   8.447   4.273
16009WAT     H148269   6.902   8.411   4.271
16009WAT     H248270   6.777   8.462   4.179
16010WAT      O48271   1.497   7.152   2.287
16010WAT     H148272   1.401   7.176   2.287
16010WAT     H248273   1.548   7.211   2.349
16011WAT      O48274   1.624   5.274   3.942
16011WAT     H148275   1.651   5.178   3.952
16011WAT     H248276   1.527   5.284   3.960
16012WAT      O48277   4.131   2.339   1.603
16012WAT     H148278   4.160   2.254   1.559
16012WAT     H248279   4.037   2.328   1.636
16013WAT      O48280   7.681   8.919   8.921
16013WAT     H148281   7.772   8.896   8.886
16013WAT     H248282   7.683   8.918   9.021
16014WAT      O48283   6.307   8.032   3.025
16014WAT     H148284   6.328   7.994   2.935
16014WAT     H248285   6.291   7.958   3.090
16015WAT      O48286   7.364   7.400   7.450
16015WAT     H148287   7.449   7.365   7.489
16015WAT     H248288   7.306   7.436   7.523
16016WAT      O48289   6.258   3.042   9.449
16016WAT     H148290   6.328   2.971   9.443
16016WAT     H248291   6.302   3.132   9.446
16017WAT      O48292   9.704   1.494   4.748
16017WAT     H148293   9.722   1.396   4.753
16017WAT     H248294   9.790   1.544   4.758
16018WAT      O48295   8.208   8.213   5.385
16018WAT     H148296   8.219   8.128   5.437
16018WAT     H248297   8.177   8.193   5.293
16019WAT      O48298   4.724   6.651   9.663
16019WAT     H148299   4.696   6.656   9.567
16019WAT     H248300   4.652   6.607   9.717
16020WAT      O48301   9.645   7.735   5.562
16020WAT     H148302   9.725   7.736   5.502
16020WAT     H248303   9.591   7.817   5.547
16021WAT      O48304   7.232   7.795   3.047
16021WAT     H148305   7.236   7.864   3.119
16021WAT     H248306   7.291   7.718   3.071
16022WAT      O48307   4.348   9.136   9.658
16022WAT     H148308   4.431   9.135   9.601
16022WAT     H248309   4.299   9.050   9.646
16023WAT      O48310   3.980   3.963   1.003
16023WAT     H148311   3.913   3.894   1.028
16023WAT     H248312   3.989   4.029   1.078
16024WAT      O48313   1.356   4.020   4.438
16024WAT     H148314   1.431   3.985   4.494
16024WAT     H248315   1.374   4.115   4.414
16025WAT      O48316   2.977   8.770   0.963
16025WAT     H148317   2.890   8.750   1.008
16025WAT     H248318   3.041   8.810   1.029
16026WAT      O48319   7.821   3.906   6.450
16026WAT     H148320   7.888   3.867   6.387
16026WAT     H248321   7.729   3.875   6.426
16027WAT      O48322   2.561   3.555   4.157
16027WAT     H148323   2.507   3.639   4.158
16027WAT     H248324   2.518   3.487   4.216
16028WAT      O48325   2.040   1.461   0.080
16028WAT     H148326   2.059   1.417   0.168
16028WAT     H248327   2.024   1.391   0.011
16029WAT      O48328   8.916   8.592   3.957
16029WAT     H148329   8.927   8.493   3.966
16029WAT     H248330   8.856   8.611   3.879
16030WAT      O48331   3.746   7.076   0.436
16030WAT     H148332   3.794   7.146   0.383
16030WAT     H248333   3.730   7.109   0.529
16031WAT      O48334   4.343   0.567   6.952
16031WAT     H148335   4.298   0.546   7.039
16031WAT     H248336   4.384   0.484   6.915
16032WAT      O48337   1.054   4.602   2.614
16032WAT     H148338   1.052   4.615   2.515
16032WAT     H248339   1.020   4.510   2.636
16033WAT      O48340   9.052   8.036   5.294
16033WAT     H148341   9.036   7.938   5.303
16033WAT     H248342   9.102   8.055   5.210
16034WAT      O48343   6.614   0.014   9.524
16034WAT     H148344   6.582  -0.066   9.473
16034WAT     H248345   6.666   0.074   9.463
16035WAT      O48346   4.788   8.822   4.944
16035WAT     H148347   4.791   8.827   5.044
16035WAT     H248348   4.802   8.727   4.915
16036WAT      O48349   0.655   4.281   9.833
16036WAT     H148350   0.577   4.314   9.779
16036WAT     H248351   0.696   4.201   9.788
16037WAT      O48352   0.743   4.246   5.410
16037WAT     H148353   0.766   4.153   5.439
16037WAT     H248354   0.762   4.257   5.313
16038WAT      O48355   2.047   3.624   0.088
16038WAT     H148356   2.103   3.680   0.149
16038WAT     H248357   1.967   3.676   0.059
16039WAT      O48358   3.614   4.572   3.003
16039WAT     H148359   3.563   4.585   3.087
16039WAT     H248360   3.581   4.490   2.956
16040WAT      O48361   2.194   0.189   9.742
16040WAT     H148362   2.282   0.163   9.702
16040WAT     H248363   2.204   0.194   9.842
16041WAT      O48364   4.507   6.457   2.048
16041WAT     H148365   4.457   6.509   1.978
16041WAT     H248366   4.601   6.491   2.054
16042WAT      O48367   4.498   2.555   4.202
16042WAT     H148368   4.552   2.475   4.226
16042WAT     H248369   4.469   2.549   4.107
16043WAT      O48370   8.956   1.701   9.695
16043WAT     H148371   9.032   1.717   9.632
16043WAT     H248372   8.980   1.629   9.760
16044WAT      O48373   0.456   2.959   3.453
16044WAT     H148374   0.380   2.969   3.388
16044WAT     H248375   0.542   2.976   3.406
16045WAT      O48376   1.622   8.714   3.399
16045WAT     H148377   1.578   8.755   3.319
16045WAT     H248378   1.603   8.616   3.401
16046WAT      O48379   8.620   0.399   3.744
16046WAT     H148380   8.557   0.344   3.799
16046WAT     H248381   8.712   0.360   3.751
16047WAT      O48382   4.499   3.132   5.321
16047WAT     H148383   4.428   3.063   5.337
16047WAT     H248384   4.466   3.221   5.355
16048WAT      O48385   4.465   4.122   0.354
16048WAT     H148386   4.439   4.195   0.417
16048WAT     H248387   4.385   4.065   0.335
16049WAT      O48388   1.502   5.307   4.248
16049WAT     H148389   1.404   5.290   4.236
16049WAT     H248390   1.553   5.224   4.226
16050WAT      O48391   8.516   3.048   2.712
16050WAT     H148392   8.592   3.068   2.650
16050WAT     H248393   8.529   2.957   2.752
16051WAT      O48394   7.079   2.874   5.302
16051WAT     H148395   7.110   2.934   5.376
16051WAT     H248396   6.981   2.858   5.312
16052WAT      O48397   8.976   5.918   9.498
16052WAT     H148398   8.984   5.861   9.580
16052WAT     H248399   8.880   5.935   9.478
16053WAT      O48400   8.334   4.620   7.129
16053WAT     H148401   8.349   4.646   7.225
16053WAT     H248402   8.361   4.524   7.117
16054WAT      O48403   6.495   7.591   5.726
16054WAT     H148404   6.537   7.648   5.655
16054WAT     H248405   6.520   7.627   5.816
16055WAT      O48406   3.935   6.129   2.540
16055WAT     H148407   3.975   6.220   2.530
16055WAT     H248408   3.976   6.083   2.619
16056WAT      O48409   7.719   5.341   2.515
16056WAT     H148410   7.797   5.299   2.470
16056WAT     H248411   7.666   5.271   2.563
16057WAT      O48412   2.984   5.815   5.005
16057WAT     H148413   2.960   5.724   5.038
16057WAT     H248414   2.912   5.849   4.945
16058WAT      O48415   4.683   1.383   6.820
16058WAT     H148416   4.586   1.382   6.795
16058WAT     H248417   4.693   1.422   6.911
16059WAT      O48418   2.719   5.662   6.435
16059WAT     H148419   2.680   5.601   6.504
16059WAT     H248420   2.658   5.739   6.420
16060WAT      O48421   4.906   1.674   8.677
16060WAT     H148422   4.812   1.699   8.698
16060WAT     H248423   4.928   1.587   8.721
16061WAT      O48424   3.747   2.038   6.385
16061WAT     H148425   3.678   2.045   6.313
16061WAT     H248426   3.716   2.088   6.466
16062WAT      O48427   1.409   4.018   2.658
16062WAT     H148428   1.341   3.962   2.706
16062WAT     H248429   1.381   4.114   2.661
16063WAT      O48430   8.833   3.334   8.826
16063WAT     H148431   8.764   3.354   8.757
16063WAT     H248432   8.811   3.247   8.871
16064WAT      O48433   3.942   2.379   0.269
16064WAT     H148434   3.907   2.360   0.177
16064WAT     H248435   3.926   2.476   0.291
16065WAT      O48436   2.720   8.630   6.190
16065WAT     H148437   2.635   8.670   6.155
16065WAT     H248438   2.794   8.697   6.183
16066WAT      O48439   7.140   2.845   0.637
16066WAT     H148440   7.057   2.826   0.585
16066WAT     H248441   7.117   2.868   0.732
16067WAT      O48442   5.430   7.030   6.435
16067WAT     H148443   5.498   7.008   6.505
16067WAT     H248444   5.339   7.004   6.467
16068WAT      O48445   0.891   1.988   7.118
16068WAT     H148446   0.914   2.085   7.114
16068WAT     H248447   0.799   1.977   7.156
16069WAT      O48448   3.171   1.573   0.160
16069WAT     H148449   3.209   1.645   0.217
16069WAT     H248450   3.092   1.532   0.206
16070WAT      O48451   3.742   8.748   5.169
16070WAT     H148452   3.734   8.848   5.172
16070WAT     H248453   3.705   8.709   5.253
16071WAT      O48454   6.991   9.139   4.244
16071WAT     H148455   6.991   9.074   4.168
16071WAT     H248456   7.078   9.131   4.293
16072WAT      O48457   0.098   6.462   1.225
16072WAT     H148458   0.039   6.388   1.193
16072WAT     H248459   0.188   6.453   1.182
16073WAT      O48460   5.398   6.884   8.077
16073WAT     H148461   5.345   6.800   8.091
16073WAT     H248462   5.371   6.952   8.146
16074WAT      O48463   8.436   4.906   7.541
16074WAT     H148464   8.338   4.894   7.526
16074WAT     H248465   8.459   5.003   7.534
16075WAT      O48466   8.533   6.726   6.186
16075WAT     H148467   8.551   6.713   6.089
16075WAT     H248468   8.507   6.821   6.203
16076WAT      O48469   0.230   4.304   6.743
16076WAT     H148470   0.225   4.356   6.828
16076WAT     H248471   0.251   4.208   6.763
16077WAT      O48472   9.281   5.261   3.931
16077WAT     H148473   9.194   5.311   3.929
16077WAT     H248474   9.322   5.269   4.022
16078WAT      O48475   4.697   4.420   1.782
16078WAT     H148476   4.784   4.441   1.827
16078WAT     H248477   4.714   4.395   1.687
16079WAT      O48478   4.311   3.825   7.741
16079WAT     H148479   4.276   3.900   7.797
16079WAT     H248480   4.264   3.824   7.653
16080WAT      O48481   4.738   3.110   2.959
16080WAT     H148482   4.732   3.193   3.015
16080WAT     H248483   4.830   3.071   2.968
16081WAT      O48484   0.123   5.076   6.417
16081WAT     H148485   0.066   5.075   6.499
16081WAT     H248486   0.087   5.012   6.349
16082WAT      O48487   3.262   7.012   3.210
16082WAT     H148488   3.271   6.969   3.299
16082WAT     H248489   3.347   7.003   3.159
16083WAT      O48490   9.626   1.279   1.818
16083WAT     H148491   9.654   1.289   1.914
16083WAT     H248492   9.707   1.264   1.761
16084WAT      O48493   1.194   0.054   0.094
16084WAT     H148494   1.186   0.096   0.184
16084WAT     H248495   1.190   0.125   0.024
16085WAT      O48496   7.891   6.423   1.488
16085WAT     H148497   7.955   6.499   1.490
16085WAT     H248498   7.885   6.382   1.579
16086WAT      O48499   0.377   7.927   1.993
16086WAT     H148500   0.286   7.930   2.036
16086WAT     H248501   0.386   8.003   1.929
16087WAT      O48502   3.927   8.593   4.799
16087WAT     H148503   3.970   8.671   4.845
16087WAT     H248504   3.862   8.626   4.731
16088WAT      O48505   4.031   9.544   7.848
16088WAT     H148506   4.019   9.485   7.927
16088WAT     H248507   4.017   9.639   7.874
16089WAT      O48508   0.932   1.451   0.558
16089WAT     H148509   0.999   1.387   0.597
16089WAT     H248510   0.939   1.450   0.458
16090WAT      O48511   5.261   8.831   7.989
16090WAT     H148512   5.271   8.736   8.018
16090WAT     H248513   5.186   8.839   7.923
16091WAT      O48514   7.627   3.897   6.001
16091WAT     H148515   7.533   3.918   5.974
16091WAT     H248516   7.683   3.882   5.920
16092WAT      O48517   2.998   7.144   7.056
16092WAT     H148518   2.967   7.168   6.964
16092WAT     H248519   2.957   7.207   7.123
16093WAT      O48520   7.591   2.297   1.313
16093WAT     H148521   7.555   2.388   1.292
16093WAT     H248522   7.688   2.294   1.288
16094WAT      O48523   3.281   5.719   9.507
16094WAT     H148524   3.229   5.760   9.432
16094WAT     H248525   3.290   5.621   9.492
16095WAT      O48526   3.737   0.707   8.703
16095WAT     H148527   3.760   0.660   8.618
16095WAT     H248528   3.737   0.806   8.688
16096WAT      O48529   3.823   3.589   0.277
16096WAT     H148530   3.744   3.606   0.335
16096WAT     H248531   3.815   3.643   0.193
16097WAT      O48532   0.624   1.391   1.008
16097WAT     H148533   0.535   1.378   0.965
16097WAT     H248534   0.631   1.486   1.041
16098WAT      O48535   1.001   8.988   4.819
16098WAT     H148536   1.026   8.902   4.774
16098WAT     H248537   1.078   9.020   4.875
16099WAT      O48538   9.558   7.334   4.142
16099WAT     H148539   9.534   7.431   4.135
16099WAT     H248540   9.539   7.288   4.055
16100WAT      O48541   8.982   4.223   3.139
16100WAT     H148542   8.935   4.301   3.181
16100WAT     H248543   8.946   4.208   3.047
16101WAT      O48544   9.281   6.980   3.426
16101WAT     H148545   9.260   6.892   3.383
16101WAT     H248546   9.197   7.034   3.435
16102WAT      O48547   3.809   8.372   3.368
16102WAT     H148548   3.780   8.450   3.423
16102WAT     H248549   3.808   8.397   3.272
16103WAT      O48550   8.098   1.463   7.913
16103WAT     H148551   8.048   1.388   7.955
16103WAT     H248552   8.157   1.427   7.840
16104WAT      O48553   8.248   4.272   2.152
16104WAT     H148554   8.252   4.181   2.192
16104WAT     H248555   8.160   4.284   2.105
16105WAT      O48556   3.580   9.740   1.947
16105WAT     H148557   3.623   9.685   1.876
16105WAT     H248558   3.481   9.725   1.945
16106WAT      O48559   9.153   0.829   7.203
16106WAT     H148560   9.167   0.819   7.104
16106WAT     H248561   9.056   0.818   7.225
16107WAT      O48562   6.851   3.866   6.449
16107WAT     H148563   6.941   3.824   6.455
16107WAT     H248564   6.827   3.905   6.538
16108WAT      O48565   4.446   1.422   5.702
16108WAT     H148566   4.498   1.506   5.698
16108WAT     H248567   4.422   1.402   5.797
16109WAT      O48568   8.877   4.282   3.436
16109WAT     H148569   8.933   4.200   3.431
16109WAT     H248570   8.917   4.345   3.503
16110WAT      O48571   6.912   9.811   6.107
16110WAT     H148572   6.998   9.819   6.158
16110WAT     H248573   6.836   9.837   6.166
16111WAT      O48574   2.600   8.491   6.401
16111WAT     H148575   2.646   8.511   6.315
16111WAT     H248576   2.667   8.492   6.475
16112WAT      O48577   3.328   4.525   4.670
16112WAT     H148578   3.426   4.515   4.654
16112WAT     H248579   3.311   4.521   4.769
16113WAT      O48580   5.405   8.782   9.843
16113WAT     H148581   5.338   8.814   9.910
16113WAT     H248582   5.490   8.833   9.855
16114WAT      O48583   9.038   1.699   0.376
16114WAT     H148584   9.092   1.668   0.454
16114WAT     H248585   9.091   1.766   0.323
16115WAT      O48586   2.967   1.161   8.060
16115WAT     H148587   2.982   1.067   8.092
16115WAT     H248588   3.033   1.181   7.987
16116WAT      O48589   1.789   2.408   2.656
16116WAT     H148590   1.861   2.472   2.627
16116WAT     H248591   1.814   2.316   2.628
16117WAT      O48592   4.647   9.000   9.252
16117WAT     H148593   4.659   8.917   9.197
16117WAT     H248594   4.727   9.059   9.240
16118WAT      O48595   1.314   1.421   9.144
16118WAT     H148596   1.381   1.373   9.086
16118WAT     H248597   1.224   1.379   9.132
16119WAT      O48598   8.393   5.071   8.123
16119WAT     H148599   8.334   5.005   8.169
16119WAT     H248600   8.381   5.064   8.024
16120WAT      O48601   0.410   1.886   5.270
16120WAT     H148602   0.465   1.969   5.258
16120WAT     H248603   0.379   1.880   5.365
16121WAT      O48604   7.829   6.147   3.375
16121WAT     H148605   7.922   6.177   3.352
16121WAT     H248606   7.763   6.203   3.325
16122WAT      O48607   7.858   9.219   0.740
16122WAT     H148608   7.795   9.143   0.728
16122WAT     H248609   7.936   9.189   0.795
16123WAT      O48610   2.012   9.122   5.649
16123WAT     H148611   1.985   9.104   5.744
16123WAT     H248612   1.931   9.137   5.593
16124WAT      O48613   9.111   3.589   3.385
16124WAT     H148614   9.098   3.660   3.316
16124WAT     H248615   9.033   3.587   3.447
16125WAT      O48616   5.410   9.093   2.741
16125WAT     H148617   5.369   9.183   2.753
16125WAT     H248618   5.480   9.078   2.811
16126WAT      O48619   6.578   1.514   6.876
16126WAT     H148620   6.525   1.578   6.820
16126WAT     H248621   6.636   1.565   6.939
16127WAT      O48622   6.887   2.232   6.299
16127WAT     H148623   6.986   2.226   6.286
16127WAT     H248624   6.858   2.165   6.368
16128WAT      O48625   1.117   1.347   4.030
16128WAT     H148626   1.138   1.396   3.945
16128WAT     H248627   1.130   1.408   4.108
16129WAT      O48628   3.620   9.676   7.878
16129WAT     H148629   3.525   9.679   7.909
16129WAT     H248630   3.682   9.670   7.956
16130WAT      O48631   1.019   7.767   3.440
16130WAT     H148632   0.966   7.811   3.512
16130WAT     H248633   1.065   7.837   3.385
16131WAT      O48634   0.745   0.191   3.136
16131WAT     H148635   0.795   0.274   3.110
16131WAT     H248636   0.809   0.125   3.175
16132WAT      O48637   5.234   7.214   7.451
16132WAT     H148638   5.162   7.169   7.398
16132WAT     H248639   5.201   7.303   7.482
16133WAT      O48640   0.879   4.974   0.035
16133WAT     H148641   0.911   4.902   0.098
16133WAT     H248642   0.787   4.952   0.004
16134WAT      O48643   0.351   0.515   2.938
16134WAT     H148644   0.399   0.601   2.920
16134WAT     H248645   0.270   0.533   2.995
16135WAT      O48646   1.594   1.120   7.650
16135WAT     H148647   1.682   1.124   7.697
16135WAT     H248648   1.588   1.194   7.583
16136WAT      O48649   3.001   8.720   5.768
16136WAT     H148650   3.024   8.812   5.739
16136WAT     H248651   2.909   8.719   5.808
16137WAT      O48652   2.782   5.234   0.544
16137WAT     H148653   2.781   5.308   0.476
16137WAT     H248654   2.849   5.165   0.517
16138WAT      O48655   4.727   6.251   3.892
16138WAT     H148656   4.699   6.212   3.980
16138WAT     H248657   4.706   6.187   3.818
16139WAT      O48658   0.705   8.213   6.093
16139WAT     H148659   0.662   8.211   6.002
16139WAT     H248660   0.750   8.126   6.110
16140WAT      O48661   5.848   0.752   3.326
16140WAT     H148662   5.888   0.772   3.237
16140WAT     H248663   5.797   0.666   3.322
16141WAT      O48664   0.364   7.304   8.150
16141WAT     H148665   0.337   7.308   8.054
16141WAT     H248666   0.460   7.274   8.156
16142WAT      O48667   2.585   0.022   3.291
16142WAT     H148668   2.671  -0.028   3.280
16142WAT     H248669   2.520  -0.035   3.342
16143WAT      O48670   9.720   3.309   9.128
16143WAT     H148671   9.691   3.261   9.046
16143WAT     H248672   9.654   3.293   9.201
16144WAT      O48673   0.744   1.481   1.792
16144WAT     H148674   0.836   1.442   1.786
16144WAT     H248675   0.751   1.580   1.803
16145WAT      O48676   8.120   7.858   4.747
16145WAT     H148677   8.149   7.809   4.665
16145WAT     H248678   8.042   7.916   4.727
16146WAT      O48679   8.696   0.285   1.529
16146WAT     H148680   8.772   0.286   1.595
16146WAT     H248681   8.622   0.228   1.564
16147WAT      O48682   9.605   9.747   4.087
16147WAT     H148683   9.628   9.668   4.144
16147WAT     H248684   9.653   9.828   4.121
16148WAT      O48685   6.941   6.040   4.475
16148WAT     H148686   6.993   5.957   4.496
16148WAT     H248687   7.001   6.105   4.429
16149WAT      O48688   5.298   2.514   1.617
16149WAT     H148689   5.224   2.522   1.684
16149WAT     H248690   5.386   2.520   1.664
16150WAT      O48691   8.512   0.202   4.248
16150WAT     H148692   8.571   0.262   4.195
16150WAT     H248693   8.568   0.144   4.308
16151WAT      O48694   1.416   7.393   1.277
16151WAT     H148695   1.435   7.350   1.189
16151WAT     H248696   1.331   7.445   1.272
16152WAT      O48697   0.479   0.235   4.141
16152WAT     H148698   0.518   0.210   4.052
16152WAT     H248699   0.380   0.223   4.138
16153WAT      O48700   0.904   7.911   9.092
16153WAT     H148701   0.809   7.940   9.109
16153WAT     H248702   0.905   7.815   9.065
16154WAT      O48703   4.504   0.068   5.516
16154WAT     H148704   4.599   0.098   5.525
16154WAT     H248705   4.497   0.001   5.442
16155WAT      O48706   1.740   7.297   5.033
16155WAT     H148707   1.784   7.212   5.004
16155WAT     H248708   1.658   7.275   5.086
16156WAT      O48709   9.337   3.955   3.675
16156WAT     H148710   9.270   3.881   3.670
16156WAT     H248711   9.350   3.982   3.770
16157WAT      O48712   1.359   9.455   5.597
16157WAT     H148713   1.426   9.519   5.560
16157WAT     H248714   1.404   9.391   5.659
16158WAT      O48715   9.797   2.903   4.441
16158WAT     H148716   9.745   2.975   4.395
16158WAT     H248717   9.842   2.845   4.373
16159WAT      O48718   6.890   9.726   1.261
16159WAT     H148719   6.812   9.758   1.207
16159WAT     H248720   6.925   9.801   1.317
16160WAT      O48721   9.875   3.937   7.839
16160WAT     H148722   9.797   3.968   7.893
16160WAT     H248723   9.847   3.865   7.776
16161WAT      O48724   8.854   4.794   8.213
16161WAT     H148725   8.909   4.868   8.250
16161WAT     H248726   8.784   4.831   8.152
16162WAT      O48727   1.868   1.327   2.176
16162WAT     H148728   1.799   1.296   2.241
16162WAT     H248729   1.890   1.253   2.113
16163WAT      O48730   6.406   7.341   4.658
16163WAT     H148731   6.439   7.405   4.588
16163WAT     H248732   6.471   7.266   4.668
16164WAT      O48733   1.596   6.257   1.217
16164WAT     H148734   1.518   6.295   1.266
16164WAT     H248735   1.594   6.157   1.223
16165WAT      O48736   9.423   0.093   7.666
16165WAT     H148737   9.488   0.050   7.729
16165WAT     H248738   9.380   0.023   7.609
16166WAT      O48739   8.787   1.004   0.405
16166WAT     H148740   8.751   0.987   0.497
16166WAT     H248741   8.731   0.955   0.337
16167WAT      O48742   6.331   0.805   5.749
16167WAT     H148743   6.399   0.879   5.751
16167WAT     H248744   6.240   0.845   5.737
16168WAT      O48745   7.466   5.099   7.043
16168WAT     H148746   7.384   5.106   7.100
16168WAT     H248747   7.484   5.187   6.999
16169WAT      O48748   7.864   3.357   3.338
16169WAT     H148749   7.894   3.296   3.412
16169WAT     H248750   7.919   3.340   3.257
16170WAT      O48751   9.562   8.915   2.942
16170WAT     H148752   9.604   8.910   2.851
16170WAT     H248753   9.464   8.927   2.932
16171WAT      O48754   9.518   0.232   1.962
16171WAT     H148755   9.465   0.234   2.047
16171WAT     H248756   9.476   0.292   1.894
16172WAT      O48757   5.143   8.517   2.670
16172WAT     H148758   5.193   8.502   2.755
16172WAT     H248759   5.195   8.580   2.612
16173WAT      O48760   0.188   6.321   8.156
16173WAT     H148761   0.167   6.224   8.166
16173WAT     H248762   0.220   6.357   8.243
16174WAT      O48763   7.047   3.956   5.315
16174WAT     H148764   7.023   4.052   5.307
16174WAT     H248765   7.010   3.919   5.400
16175WAT      O48766   4.790   9.384   6.264
16175WAT     H148767   4.739   9.308   6.223
16175WAT     H248768   4.877   9.396   6.216
16176WAT      O48769   0.513   3.050   3.954
16176WAT     H148770   0.569   3.133   3.950
16176WAT     H248771   0.430   3.069   4.006
16177WAT      O48772   6.019   8.912   4.823
16177WAT     H148773   5.977   8.992   4.781
16177WAT     H248774   6.011   8.834   4.762
16178WAT      O48775   3.103   4.559   1.910
16178WAT     H148776   3.156   4.492   1.858
16178WAT     H248777   3.154   4.644   1.917
16179WAT      O48778   4.255   7.354   9.418
16179WAT     H148779   4.225   7.445   9.445
16179WAT     H248780   4.176   7.300   9.389
16180WAT      O48781   0.377   2.305   5.670
16180WAT     H148782   0.396   2.220   5.720
16180WAT     H248783   0.408   2.383   5.724
16181WAT      O48784   6.408   2.738   8.832
16181WAT     H148785   6.345   2.757   8.907
16181WAT     H248786   6.485   2.801   8.837
16182WAT      O48787   5.173   4.583   5.216
16182WAT     H148788   5.272   4.575   5.224
16182WAT     H248789   5.142   4.536   5.133
16183WAT      O48790   7.648   2.696   1.057
16183WAT     H148791   7.585   2.712   0.981
16183WAT     H248792   7.705   2.616   1.036
16184WAT      O48793   5.607   6.784   3.618
16184WAT     H148794   5.513   6.814   3.601
16184WAT     H248795   5.612   6.740   3.707
16185WAT      O48796   0.999   2.733   6.069
16185WAT     H148797   1.010   2.826   6.103
16185WAT     H248798   0.987   2.736   5.969
16186WAT      O48799   7.939   1.986   5.436
16186WAT     H148800   7.904   1.987   5.530
16186WAT     H248801   7.988   1.900   5.420
16187WAT      O48802   2.725   2.727   3.468
16187WAT     H148803   2.821   2.711   3.493
16187WAT     H248804   2.685   2.642   3.434
16188WAT      O48805   0.315   7.724   8.752
16188WAT     H148806   0.310   7.652   8.821
16188WAT     H248807   0.223   7.746   8.720
16189WAT      O48808   9.810   5.475   6.592
16189WAT     H148809   9.899   5.430   6.593
16189WAT     H248810   9.820   5.570   6.563
16190WAT      O48811   0.280   1.806   3.982
16190WAT     H148812   0.183   1.793   3.999
16190WAT     H248813   0.317   1.871   4.049
16191WAT      O48814   4.508   5.785   1.248
16191WAT     H148815   4.561   5.701   1.244
16191WAT     H248816   4.568   5.863   1.232
16192WAT      O48817   5.015   2.407   5.972
16192WAT     H148818   5.059   2.477   6.029
16192WAT     H248819   5.018   2.436   5.876
16193WAT      O48820   4.319   6.941   2.020
16193WAT     H148821   4.325   7.033   2.058
16193WAT     H248822   4.364   6.939   1.930
16194WAT      O48823   0.011   1.258   4.029
16194WAT     H148824  -0.020   1.247   3.934
16194WAT     H248825  -0.039   1.333   4.072
16195WAT      O48826   7.068   4.679   8.325
16195WAT     H148827   7.135   4.608   8.302
16195WAT     H248828   7.115   4.766   8.338
16196WAT      O48829   0.896   9.554   9.560
16196WAT     H148830   0.907   9.635   9.502
16196WAT     H248831   0.984   9.507   9.569
16197WAT      O48832   4.078   9.025   5.172
16197WAT     H148833   4.045   9.004   5.080
16197WAT     H248834   4.010   8.995   5.239
16198WAT      O48835   8.464   7.192   3.883
16198WAT     H148836   8.485   7.215   3.978
16198WAT     H248837   8.548   7.160   3.838
16199WAT      O48838   1.515   4.876   0.077
16199WAT     H148839   1.420   4.858   0.051
16199WAT     H248840   1.530   4.847   0.171
16200WAT      O48841   7.888   0.525   8.181
16200WAT     H148842   7.892   0.425   8.185
16200WAT     H248843   7.937   0.563   8.260
16201WAT      O48844   4.012   5.047   5.332
16201WAT     H148845   4.000   4.966   5.390
16201WAT     H248846   4.075   5.110   5.377
16202WAT      O48847   4.021   0.372   1.438
16202WAT     H148848   4.006   0.447   1.502
16202WAT     H248849   3.966   0.387   1.356
16203WAT      O48850   3.597   2.633   3.074
16203WAT     H148851   3.499   2.615   3.081
16203WAT     H248852   3.614   2.691   2.994
16204WAT      O48853   9.669   0.491   9.842
16204WAT     H148854   9.651   0.475   9.939
16204WAT     H248855   9.695   0.404   9.799
16205WAT      O48856   5.161   1.706   9.720
16205WAT     H148857   5.106   1.622   9.719
16205WAT     H248858   5.193   1.724   9.813
16206WAT      O48859   4.030   0.483   0.977
16206WAT     H148860   4.126   0.488   1.006
16206WAT     H248861   4.025   0.483   0.877
16207WAT      O48862   3.979   3.903   3.339
16207WAT     H148863   4.039   3.963   3.391
16207WAT     H248864   3.974   3.935   3.244
16208WAT      O48865   5.030   5.537   4.239
16208WAT     H148866   5.092   5.479   4.187
16208WAT     H248867   5.075   5.624   4.261
16209WAT      O48868   1.925   9.379   5.828
16209WAT     H148869   1.829   9.403   5.844
16209WAT     H248870   1.978   9.462   5.809
16210WAT      O48871   5.544   7.265   4.412
16210WAT     H148872   5.620   7.224   4.462
16210WAT     H248873   5.578   7.314   4.332
16211WAT      O48874   7.197   0.370   9.827
16211WAT     H148875   7.181   0.448   9.766
16211WAT     H248876   7.149   0.385   9.913
16212WAT      O48877   7.900   5.657   0.065
16212WAT     H148878   7.900   5.693  -0.028
16212WAT     H248879   7.861   5.566   0.066
16213WAT      O48880   0.421   3.837   8.697
16213WAT     H148881   0.436   3.843   8.598
16213WAT     H248882   0.351   3.903   8.724
16214WAT      O48883   3.466   3.438   8.203
16214WAT     H148884   3.448   3.362   8.265
16214WAT     H248885   3.407   3.515   8.227
16215WAT      O48886   4.415   6.745   9.362
16215WAT     H148887   4.493   6.763   9.422
16215WAT     H248888   4.334   6.725   9.417
16216WAT      O48889   5.230   8.383   5.032
16216WAT     H148890   5.271   8.342   4.950
16216WAT     H248891   5.157   8.323   5.066
16217WAT      O48892   9.712   3.636   9.674
16217WAT     H148893   9.793   3.608   9.622
16217WAT     H248894   9.740   3.693   9.751
16218WAT      O48895   1.332   3.223   4.791
16218WAT     H148896   1.373   3.228   4.882
16218WAT     H248897   1.365   3.300   4.736
16219WAT      O48898   9.754   2.835   1.519
16219WAT     H148899   9.849   2.866   1.532
16219WAT     H248900   9.750   2.736   1.530
16220WAT      O48901   4.350   0.268   8.405
16220WAT     H148902   4.438   0.232   8.437
16220WAT     H248903   4.364   0.314   8.317
16221WAT      O48904   2.850   3.588   6.409
16221WAT     H148905   2.815   3.660   6.469
16221WAT     H248906   2.879   3.629   6.322
16222WAT      O48907   1.481   6.775   0.983
16222WAT     H148908   1.556   6.719   0.948
16222WAT     H248909   1.425   6.720   1.045
16223WAT      O48910   8.603   6.162   5.876
16223WAT     H148911   8.555   6.108   5.807
16223WAT     H248912   8.666   6.103   5.926
16224WAT      O48913   9.803   7.488   3.988
16224WAT     H148914   9.755   7.470   3.902
16224WAT     H248915   9.787   7.583   4.015
16225WAT      O48916   6.353   3.381   5.382
16225WAT     H148917   6.281   3.418   5.322
16225WAT     H248918   6.442   3.409   5.347
16226WAT      O48919   8.046   2.331   7.788
16226WAT     H148920   7.972   2.298   7.729
16226WAT     H248921   8.134   2.299   7.753
16227WAT      O48922   2.391   9.233   8.917
16227WAT     H148923   2.430   9.159   8.862
16227WAT     H248924   2.296   9.213   8.938
16228WAT      O48925   8.844   0.390   4.915
16228WAT     H148926   8.826   0.475   4.865
16228WAT     H248927   8.858   0.410   5.012
16229WAT      O48928   9.018   5.132   9.563
16229WAT     H148929   9.042   5.035   9.557
16229WAT     H248930   8.955   5.155   9.490
16230WAT      O48931   1.147   4.675   8.050
16230WAT     H148932   1.228   4.652   8.104
16230WAT     H248933   1.124   4.771   8.061
16231WAT      O48934   7.333   3.884   8.400
16231WAT     H148935   7.345   3.838   8.312
16231WAT     H248936   7.236   3.883   8.426
16232WAT      O48937   8.846   6.087   7.652
16232WAT     H148938   8.944   6.080   7.638
16232WAT     H248939   8.810   6.167   7.604
16233WAT      O48940   4.461   8.531   0.884
16233WAT     H148941   4.396   8.467   0.923
16233WAT     H248942   4.440   8.624   0.915
16234WAT      O48943   5.014   2.693   4.226
16234WAT     H148944   4.985   2.788   4.240
16234WAT     H248945   5.086   2.690   4.156
16235WAT      O48946   4.515   3.692   4.033
16235WAT     H148947   4.525   3.641   4.118
16235WAT     H248948   4.563   3.779   4.041
16236WAT      O48949   6.319   4.533   3.461
16236WAT     H148950   6.271   4.573   3.383
16236WAT     H248951   6.307   4.433   3.459
16237WAT      O48952   8.775   9.350   0.328
16237WAT     H148953   8.725   9.279   0.277
16237WAT     H248954   8.848   9.387   0.270
16238WAT      O48955   0.805   2.552   5.469
16238WAT     H148956   0.783   2.455   5.478
16238WAT     H248957   0.782   2.583   5.376
16239WAT      O48958   7.844   4.305   7.428
16239WAT     H148959   7.936   4.328   7.459
16239WAT     H248960   7.826   4.351   7.341
16240WAT      O48961   8.961   1.083   5.314
16240WAT     H148962   9.041   1.101   5.371
16240WAT     H248963   8.904   1.013   5.357
16241WAT      O48964   3.887   5.216   1.101
16241WAT     H148965   3.883   5.189   1.005
16241WAT     H248966   3.883   5.135   1.159
16242WAT      O48967   5.951   6.827   0.669
16242WAT     H148968   5.904   6.827   0.757
16242WAT     H248969   6.050   6.823   0.683
16243WAT      O48970   2.814   1.918   7.257
16243WAT     H148971   2.803   1.929   7.356
16243WAT     H248972   2.756   1.843   7.225
16244WAT      O48973   6.183   4.592   4.769
16244WAT     H148974   6.126   4.636   4.701
16244WAT     H248975   6.277   4.627   4.763
16245WAT      O48976   8.816   4.802   2.302
16245WAT     H148977   8.887   4.867   2.331
16245WAT     H248978   8.782   4.752   2.382
16246WAT      O48979   6.075   8.677   7.206
16246WAT     H148980   6.120   8.593   7.178
16246WAT     H248981   5.997   8.656   7.264
16247WAT      O48982   5.616   0.346   6.353
16247WAT     H148983   5.712   0.348   6.326
16247WAT     H248984   5.584   0.251   6.358
16248WAT      O48985   9.746   7.444   6.107
16248WAT     H148986   9.757   7.484   6.017
16248WAT     H248987   9.745   7.344   6.099
16249WAT      O48988   5.414   4.409   8.289
16249WAT     H148989   5.498   4.356   8.277
16249WAT     H248990   5.364   4.413   8.202
16250WAT      O48991   1.806   6.144   4.077
16250WAT     H148992   1.829   6.229   4.125
16250WAT     H248993   1.781   6.074   4.144
16251WAT      O48994   3.539   6.993   0.755
16251WAT     H148995   3.457   6.958   0.708
16251WAT     H248996   3.559   6.935   0.833
16252WAT      O48997   1.202   4.659   4.167
16252WAT     H148998   1.252   4.574   4.150
16252WAT     H248999   1.212   4.720   4.089
16253WAT      O49000   2.738   1.543   8.629
16253WAT     H149001   2.697   1.469   8.682
16253WAT     H249002   2.833   1.557   8.659
16254WAT      O49003   4.620   9.682   3.436
16254WAT     H149004   4.531   9.684   3.482
16254WAT     H249005   4.633   9.593   3.393
16255WAT      O49006   4.023   4.348   4.875
16255WAT     H149007   3.939   4.321   4.921
16255WAT     H249008   4.007   4.356   4.777
16256WAT      O49009   2.358   7.436   3.427
16256WAT     H149010   2.447   7.425   3.472
16256WAT     H249011   2.310   7.513   3.467
16257WAT      O49012   3.244   9.355   5.930
16257WAT     H149013   3.224   9.452   5.919
16257WAT     H249014   3.167   9.301   5.895
16258WAT      O49015   7.143   1.360   9.650
16258WAT     H149016   7.217   1.348   9.584
16258WAT     H249017   7.079   1.429   9.617
16259WAT      O49018   5.297   1.109   4.017
16259WAT     H149019   5.211   1.095   4.068
16259WAT     H249020   5.295   1.200   3.975
16260WAT      O49021   1.974   1.754   4.636
16260WAT     H149022   2.021   1.838   4.609
16260WAT     H249023   2.023   1.711   4.712
16261WAT      O49024   6.020   7.924   8.535
16261WAT     H149025   6.062   7.859   8.599
16261WAT     H249026   5.994   8.007   8.584
16262WAT      O49027   7.755   8.572   2.360
16262WAT     H149028   7.662   8.577   2.324
16262WAT     H249029   7.776   8.657   2.410
16263WAT      O49030   7.781   9.093   9.830
16263WAT     H149031   7.843   9.024   9.868
16263WAT     H249032   7.824   9.183   9.836
16264WAT      O49033   9.636   3.349   7.466
16264WAT     H149034   9.652   3.328   7.562
16264WAT     H249035   9.539   3.336   7.445
16265WAT      O49036   6.287   4.006   5.893
16265WAT     H149037   6.212   3.968   5.837
16265WAT     H249038   6.255   4.019   5.987
16266WAT      O49039   2.452   1.705   2.118
16266WAT     H149040   2.379   1.703   2.186
16266WAT     H249041   2.441   1.786   2.060
16267WAT      O49042   8.199   7.390   0.213
16267WAT     H149043   8.272   7.439   0.261
16267WAT     H249044   8.110   7.431   0.237
16268WAT      O49045   9.084   3.379   0.990
16268WAT     H149046   9.046   3.384   0.898
16268WAT     H249047   9.088   3.471   1.029
16269WAT      O49048   0.258   2.736   1.537
16269WAT     H149049   0.212   2.820   1.567
16269WAT     H249050   0.216   2.705   1.451
16270WAT      O49051   0.058   4.468   2.808
16270WAT     H149052   0.029   4.558   2.775
16270WAT     H249053   0.144   4.442   2.764
16271WAT      O49054   5.517   2.333   2.248
16271WAT     H149055   5.485   2.284   2.329
16271WAT     H249056   5.441   2.344   2.184
16272WAT      O49057   4.150   7.844   5.154
16272WAT     H149058   4.089   7.924   5.150
16272WAT     H249059   4.111   7.769   5.101
16273WAT      O49060   2.712   7.138   0.718
16273WAT     H149061   2.804   7.176   0.711
16273WAT     H249062   2.717   7.038   0.719
16274WAT      O49063   2.004   0.347   8.899
16274WAT     H149064   1.966   0.262   8.862
16274WAT     H249065   2.083   0.375   8.844
16275WAT      O49066   8.844   5.025   6.359
16275WAT     H149067   8.909   5.000   6.287
16275WAT     H249068   8.771   4.957   6.363
16276WAT      O49069   5.120   4.782   6.948
16276WAT     H149070   5.043   4.729   6.985
16276WAT     H249071   5.204   4.753   6.992
16277WAT      O49072   2.162   5.891   8.251
16277WAT     H149073   2.175   5.801   8.294
16277WAT     H249074   2.193   5.887   8.156
16278WAT      O49075   0.146   5.829   9.360
16278WAT     H149076   0.114   5.833   9.454
16278WAT     H249077   0.082   5.880   9.301
16279WAT      O49078   5.562   0.841   3.219
16279WAT     H149079   5.660   0.829   3.228
16279WAT     H249080   5.515   0.756   3.243
16280WAT      O49081   2.125   3.425   1.924
16280WAT     H149082   2.179   3.429   2.008
16280WAT     H249083   2.028   3.419   1.948
16281WAT      O49084   5.139   2.283   9.889
16281WAT     H149085   5.164   2.362   9.833
16281WAT     H249086   5.212   2.215   9.884
16282WAT      O49087   4.567   6.141   0.759
16282WAT     H149088   4.522   6.092   0.834
16282WAT     H249089   4.646   6.089   0.727
16283WAT      O49090   7.380   3.027   2.679
16283WAT     H149091   7.427   3.016   2.591
16283WAT     H249092   7.326   2.945   2.698
16284WAT      O49093   6.093   3.247   4.171
16284WAT     H149094   6.145   3.317   4.220
16284WAT     H249095   5.997   3.253   4.195
16285WAT      O49096   7.852   5.081   3.621
16285WAT     H149097   7.928   5.016   3.612
16285WAT     H249098   7.806   5.067   3.708
16286WAT      O49099   1.223   5.929   3.627
16286WAT     H149100   1.273   5.946   3.543
16286WAT     H249101   1.224   6.011   3.684
16287WAT      O49102   5.461   5.757   3.327
16287WAT     H149103   5.531   5.777   3.396
16287WAT     H249104   5.445   5.838   3.271
16288WAT      O49105   2.472   8.589   5.253
16288WAT     H149106   2.466   8.496   5.289
16288WAT     H249107   2.475   8.586   5.153
16289WAT      O49108   3.646   3.745   2.172
16289WAT     H149109   3.592   3.699   2.243
16289WAT     H249110   3.743   3.743   2.196
16290WAT      O49111   9.586   9.631   6.595
16290WAT     H149112   9.599   9.703   6.527
16290WAT     H249113   9.601   9.669   6.687
16291WAT      O49114   3.872   7.468   2.936
16291WAT     H149115   3.831   7.410   3.006
16291WAT     H249116   3.964   7.495   2.966
16292WAT      O49117   3.851   0.799   0.323
16292WAT     H149118   3.887   0.845   0.242
16292WAT     H249119   3.866   0.701   0.317
16293WAT      O49120   2.183   8.143   6.774
16293WAT     H149121   2.232   8.060   6.746
16293WAT     H249122   2.156   8.135   6.870
16294WAT      O49123   0.764   1.375   5.879
16294WAT     H149124   0.696   1.314   5.919
16294WAT     H249125   0.751   1.380   5.780
16295WAT      O49126   4.684   7.816   4.683
16295WAT     H149127   4.600   7.867   4.665
16295WAT     H249128   4.663   7.731   4.731
16296WAT      O49129   6.653   2.749   6.783
16296WAT     H149130   6.690   2.722   6.694
16296WAT     H249131   6.559   2.716   6.792
16297WAT      O49132   3.266   4.786   9.004
16297WAT     H149133   3.192   4.728   9.040
16297WAT     H249134   3.352   4.736   9.008
16298WAT      O49135   8.121   2.478   1.200
16298WAT     H149136   8.123   2.414   1.123
16298WAT     H249137   8.094   2.569   1.167
16299WAT      O49138   4.060   5.431   8.267
16299WAT     H149139   4.066   5.447   8.366
16299WAT     H249140   4.046   5.518   8.220
16300WAT      O49141   1.021   3.222   6.439
16300WAT     H149142   0.997   3.172   6.523
16300WAT     H249143   1.121   3.221   6.428
16301WAT      O49144   9.028   2.690   3.650
16301WAT     H149145   9.071   2.610   3.693
16301WAT     H249146   8.929   2.678   3.649
16302WAT      O49147   0.985   7.960   8.246
16302WAT     H149148   0.967   7.920   8.335
16302WAT     H249149   1.077   7.998   8.243
16303WAT      O49150   3.321   4.109   4.859
16303WAT     H149151   3.377   4.173   4.806
16303WAT     H249152   3.321   4.019   4.815
16304WAT      O49153   9.845   6.251   9.385
16304WAT     H149154   9.927   6.280   9.334
16304WAT     H249155   9.792   6.332   9.410
16305WAT      O49156   0.658   0.888   0.062
16305WAT     H149157   0.593   0.951   0.105
16305WAT     H249158   0.671   0.809   0.122
16306WAT      O49159   2.179   2.001   1.788
16306WAT     H149160   2.157   1.949   1.706
16306WAT     H249161   2.116   1.975   1.861
16307WAT      O49162   1.215   7.755   8.498
16307WAT     H149163   1.247   7.719   8.585
16307WAT     H249164   1.176   7.846   8.511
16308WAT      O49165   3.638   6.771   0.057
16308WAT     H149166   3.587   6.772   0.143
16308WAT     H249167   3.721   6.825   0.066
16309WAT      O49168   1.481   5.689   8.662
16309WAT     H149169   1.467   5.615   8.596
16309WAT     H249170   1.550   5.752   8.628
16310WAT      O49171   3.321   9.766   1.861
16310WAT     H149172   3.267   9.761   1.777
16310WAT     H249173   3.317   9.858   1.899
16311WAT      O49174   2.157   6.229   3.489
16311WAT     H149175   2.065   6.267   3.475
16311WAT     H249176   2.164   6.194   3.583
16312WAT      O49177   8.795   1.796   2.328
16312WAT     H149178   8.873   1.827   2.383
16312WAT     H249179   8.827   1.732   2.258
16313WAT      O49180   7.358   3.559   6.476
16313WAT     H149181   7.399   3.510   6.399
16313WAT     H249182   7.429   3.591   6.538
16314WAT      O49183   0.447   6.120   5.474
16314WAT     H149184   0.436   6.092   5.569
16314WAT     H249185   0.478   6.215   5.471
16315WAT      O49186   5.411   8.593   5.100
16315WAT     H149187   5.346   8.517   5.099
16315WAT     H249188   5.462   8.592   5.186
16316WAT      O49189   7.215   2.599   3.535
16316WAT     H149190   7.222   2.698   3.549
16316WAT     H249191   7.141   2.580   3.470
16317WAT      O49192   5.266   1.817   8.269
16317WAT     H149193   5.268   1.877   8.189
16317WAT     H249194   5.180   1.830   8.318
16318WAT      O49195   1.289   9.284   8.564
16318WAT     H149196   1.379   9.286   8.607
16318WAT     H249197   1.274   9.370   8.516
16319WAT      O49198   8.433   1.586   1.096
16319WAT     H149199   8.358   1.594   1.162
16319WAT     H249200   8.475   1.676   1.081
16320WAT      O49201   1.560   1.300   9.059
16320WAT     H149202   1.641   1.290   9.117
16320WAT     H249203   1.589   1.324   8.967
16321WAT      O49204   8.495   4.505   6.609
16321WAT     H149205   8.549   4.437   6.560
16321WAT     H249206   8.556   4.568   6.657
16322WAT      O49207   2.775   2.785   1.761
16322WAT     H149208   2.723   2.779   1.676
16322WAT     H249209   2.873   2.774   1.742
16323WAT      O49210   5.453   5.278   6.187
16323WAT     H149211   5.476   5.184   6.161
16323WAT     H249212   5.529   5.338   6.165
16324WAT      O49213   8.525   3.980   9.520
16324WAT     H149214   8.559   3.887   9.504
16324WAT     H249215   8.442   3.975   9.575
16325WAT      O49216   5.096   7.687   8.279
16325WAT     H149217   5.191   7.666   8.305
16325WAT     H249218   5.038   7.684   8.360
16326WAT      O49219   2.017   0.379   4.938
16326WAT     H149220   2.058   0.291   4.917
16326WAT     H249221   1.965   0.411   4.859
16327WAT      O49222   1.802   5.996   6.335
16327WAT     H149223   1.839   5.961   6.249
16327WAT     H249224   1.841   6.087   6.354
16328WAT      O49225   9.154   3.721   5.554
16328WAT     H149226   9.115   3.718   5.646
16328WAT     H249227   9.253   3.705   5.559
16329WAT      O49228   7.286   2.182   7.944
16329WAT     H149229   7.338   2.180   7.859
16329WAT     H249230   7.298   2.096   7.993
16330WAT      O49231   0.145   2.520   3.391
16330WAT     H149232   0.087   2.476   3.460
16330WAT     H249233   0.241   2.506   3.415
16331WAT      O49234   2.730   9.386   6.336
16331WAT     H149235   2.791   9.337   6.273
16331WAT     H249236   2.660   9.434   6.284
16332WAT      O49237   9.186   0.718   5.850
16332WAT     H149238   9.099   0.690   5.810
16332WAT     H249239   9.181   0.814   5.877
16333WAT      O49240   9.341   7.505   9.226
16333WAT     H149241   9.388   7.592   9.240
16333WAT     H249242   9.243   7.522   9.213
16334WAT      O49243   3.331   4.668   2.181
16334WAT     H149244   3.373   4.693   2.268
16334WAT     H249245   3.281   4.746   2.144
16335WAT      O49246   1.755   1.163   6.608
16335WAT     H149247   1.825   1.167   6.536
16335WAT     H249248   1.745   1.068   6.638
16336WAT      O49249   5.718   3.941   8.051
16336WAT     H149250   5.806   3.983   8.029
16336WAT     H249251   5.658   3.944   7.971
16337WAT      O49252   6.995   0.450   1.523
16337WAT     H149253   7.037   0.471   1.611
16337WAT     H249254   6.916   0.510   1.508
16338WAT      O49255   0.644   0.459   1.288
16338WAT     H149256   0.688   0.375   1.255
16338WAT     H249257   0.621   0.518   1.211
16339WAT      O49258   0.897   3.235   7.552
16339WAT     H149259   0.818   3.295   7.570
16339WAT     H249260   0.908   3.171   7.628
16340WAT      O49261   1.656   6.941   8.338
16340WAT     H149262   1.695   6.951   8.429
16340WAT     H249263   1.556   6.942   8.344
16341WAT      O49264   3.364   2.082   2.501
16341WAT     H149265   3.303   2.092   2.580
16341WAT     H249266   3.458   2.099   2.529
16342WAT      O49267   9.204   1.810   8.346
16342WAT     H149268   9.214   1.850   8.255
16342WAT     H249269   9.196   1.883   8.414
16343WAT      O49270   4.434   0.387   5.706
16343WAT     H149271   4.469   0.474   5.673
16343WAT     H249272   4.458   0.375   5.802
16344WAT      O49273   9.264   1.421   8.066
16344WAT     H149274   9.345   1.396   8.014
16344WAT     H249275   9.248   1.352   8.137
16345WAT      O49276   9.023   1.158   6.130
16345WAT     H149277   9.039   1.073   6.180
16345WAT     H249278   9.042   1.143   6.033
16346WAT      O49279   1.134   7.095   7.186
16346WAT     H149280   1.163   7.114   7.280
16346WAT     H249281   1.035   7.108   7.178
16347WAT      O49282   5.320   8.326   1.593
16347WAT     H149283   5.381   8.281   1.658
16347WAT     H249284   5.357   8.415   1.568
16348WAT      O49285   8.987   4.340   4.714
16348WAT     H149286   9.087   4.348   4.719
16348WAT     H249287   8.963   4.262   4.657
16349WAT      O49288   1.135   9.625   9.882
16349WAT     H149289   1.037   9.603   9.881
16349WAT     H249290   1.147   9.720   9.912
16350WAT      O49291   3.159   6.406   9.182
16350WAT     H149292   3.227   6.336   9.160
16350WAT     H249293   3.119   6.388   9.271
16351WAT      O49294   9.100   8.684   2.191
16351WAT     H149295   9.028   8.754   2.191
16351WAT     H249296   9.187   8.727   2.216
16352WAT      O49297   4.390   2.197   7.730
16352WAT     H149298   4.454   2.149   7.670
16352WAT     H249299   4.296   2.176   7.703
16353WAT      O49300   3.456   6.512   3.243
16353WAT     H149301   3.427   6.585   3.182
16353WAT     H249302   3.508   6.444   3.191
16354WAT      O49303   8.386   8.450   9.328
16354WAT     H149304   8.345   8.445   9.237
16354WAT     H249305   8.480   8.482   9.321
16355WAT      O49306   1.464   8.635   0.475
16355WAT     H149307   1.407   8.653   0.395
16355WAT     H249308   1.558   8.664   0.455
16356WAT      O49309   8.430   4.704   2.882
16356WAT     H149310   8.418   4.686   2.784
16356WAT     H249311   8.417   4.801   2.900
16357WAT      O49312   5.713   7.913   3.986
16357WAT     H149313   5.620   7.886   4.010
16357WAT     H249314   5.778   7.848   4.025
16358WAT      O49315   8.217   3.494   6.516
16358WAT     H149316   8.236   3.548   6.434
16358WAT     H249317   8.192   3.554   6.592
16359WAT      O49318   6.295   0.936   8.704
16359WAT     H149319   6.201   0.950   8.735
16359WAT     H249320   6.296   0.926   8.604
16360WAT      O49321   3.217   1.530   7.326
16360WAT     H149322   3.264   1.573   7.402
16360WAT     H249323   3.283   1.508   7.254
16361WAT      O49324   0.663   7.022   7.109
16361WAT     H149325   0.699   7.076   7.185
16361WAT     H249326   0.580   6.975   7.138
16362WAT      O49327   1.740   7.392   0.798
16362WAT     H149328   1.685   7.360   0.721
16362WAT     H249329   1.764   7.488   0.784
16363WAT      O49330   1.282   3.291   6.362
16363WAT     H149331   1.270   3.383   6.325
16363WAT     H249332   1.307   3.229   6.287
16364WAT      O49333   2.361   8.660   6.401
16364WAT     H149334   2.455   8.628   6.387
16364WAT     H249335   2.360   8.730   6.471
16365WAT      O49336   8.264   1.468   2.304
16365WAT     H149337   8.185   1.490   2.245
16365WAT     H249338   8.232   1.417   2.383
16366WAT      O49339   5.782   8.089   5.805
16366WAT     H149340   5.848   8.113   5.875
16366WAT     H249341   5.830   8.068   5.719
16367WAT      O49342   3.820   2.335   5.894
16367WAT     H149343   3.750   2.271   5.864
16367WAT     H249344   3.888   2.288   5.948
16368WAT      O49345   3.734   3.558   5.104
16368WAT     H149346   3.751   3.619   5.182
16368WAT     H249347   3.808   3.568   5.038
16369WAT      O49348   7.872   8.163   1.057
16369WAT     H149349   7.790   8.213   1.029
16369WAT     H249350   7.906   8.108   0.980
16370WAT      O49351   3.377   4.206   9.393
16370WAT     H149352   3.343   4.296   9.420
16370WAT     H249353   3.473   4.199   9.418
16371WAT      O49354   6.300   0.951   5.174
16371WAT     H149355   6.380   1.009   5.190
16371WAT     H249356   6.269   0.961   5.080
16372WAT      O49357   8.368   9.032   5.681
16372WAT     H149358   8.355   9.107   5.746
16372WAT     H249359   8.309   8.956   5.706
16373WAT      O49360   3.084   8.113   7.179
16373WAT     H149361   3.122   8.182   7.240
16373WAT     H249362   2.984   8.112   7.187
16374WAT      O49363   5.795   8.072   2.228
16374WAT     H149364   5.823   8.047   2.135
16374WAT     H249365   5.870   8.054   2.291
16375WAT      O49366   7.734   6.970   8.195
16375WAT     H149367   7.768   7.048   8.143
16375WAT     H249368   7.752   6.985   8.293
16376WAT      O49369   0.182   4.639   8.297
16376WAT     H149370   0.230   4.553   8.279
16376WAT     H249371   0.086   4.619   8.319
16377WAT      O49372   0.628   5.988   1.016
16377WAT     H149373   0.647   5.893   1.040
16377WAT     H249374   0.637   6.000   0.917
16378WAT      O49375   2.336   7.258   5.476
16378WAT     H149376   2.424   7.287   5.513
16378WAT     H249377   2.288   7.338   5.439
16379WAT      O49378   4.884   0.547   4.567
16379WAT     H149379   4.844   0.553   4.475
16379WAT     H249380   4.848   0.621   4.624
16380WAT      O49381   0.590   8.299   2.363
16380WAT     H149382   0.554   8.309   2.270
16380WAT     H249383   0.683   8.265   2.359
16381WAT      O49384   5.879   5.148   0.841
16381WAT     H149385   5.785   5.155   0.872
16381WAT     H249386   5.887   5.074   0.774
16382WAT      O49387   0.160   8.763   4.816
16382WAT     H149388   0.142   8.781   4.719
16382WAT     H249389   0.135   8.668   4.836
16383WAT      O49390   7.575   3.587   1.139
16383WAT     H149391   7.549   3.617   1.231
16383WAT     H249392   7.637   3.655   1.098
16384WAT      O49393   4.457   4.891   6.495
16384WAT     H149394   4.550   4.882   6.531
16384WAT     H249395   4.452   4.970   6.434
16385WAT      O49396   0.702   9.285   1.743
16385WAT     H149397   0.779   9.225   1.765
16385WAT     H249398   0.668   9.328   1.827
16386WAT      O49399   4.570   0.232   9.715
16386WAT     H149400   4.574   0.236   9.615
16386WAT     H249401   4.621   0.153   9.747
16387WAT      O49402   2.731   8.246   2.066
16387WAT     H149403   2.673   8.323   2.090
16387WAT     H249404   2.691   8.196   1.989
16388WAT      O49405   4.926   8.987   0.556
16388WAT     H149406   4.872   8.936   0.488
16388WAT     H249407   4.895   8.963   0.647
16389WAT      O49408   1.403   3.926   9.729
16389WAT     H149409   1.459   3.882   9.658
16389WAT     H249410   1.374   3.858   9.796
16390WAT      O49411   4.039   2.109   2.130
16390WAT     H149412   3.945   2.144   2.122
16390WAT     H249413   4.039   2.011   2.110
16391WAT      O49414   7.167   2.571   8.753
16391WAT     H149415   7.152   2.658   8.707
16391WAT     H249416   7.180   2.587   8.851
16392WAT      O49417   8.567   7.841   7.194
16392WAT     H149418   8.641   7.773   7.196
16392WAT     H249419   8.601   7.925   7.152
16393WAT      O49420   6.899   9.752   2.121
16393WAT     H149421   6.801   9.743   2.135
16393WAT     H249422   6.945   9.665   2.139
16394WAT      O49423   0.058   3.030   3.088
16394WAT     H149424   0.089   3.072   3.003
16394WAT     H249425  -0.031   3.069   3.113
16395WAT      O49426   1.803   9.060   4.630
16395WAT     H149427   1.895   9.069   4.591
16395WAT     H249428   1.808   9.015   4.719
16396WAT      O49429   2.302   8.738   0.586
16396WAT     H149430   2.355   8.724   0.502
16396WAT     H249431   2.363   8.769   0.659
16397WAT      O49432   2.309   6.561   6.936
16397WAT     H149433   2.257   6.510   6.868
16397WAT     H249434   2.407   6.546   6.921
16398WAT      O49435   9.143   4.362   8.207
16398WAT     H149436   9.105   4.278   8.168
16398WAT     H249437   9.069   4.417   8.246
16399WAT      O49438   7.452   1.711   6.937
16399WAT     H149439   7.547   1.678   6.940
16399WAT     H249440   7.390   1.633   6.947
16400WAT      O49441   8.587   9.331   4.212
16400WAT     H149442   8.635   9.270   4.148
16400WAT     H249443   8.527   9.277   4.271
16401WAT      O49444   8.585   7.262   3.164
16401WAT     H149445   8.554   7.327   3.095
16401WAT     H249446   8.575   7.169   3.130
16402WAT      O49447   9.506   5.549   1.075
16402WAT     H149448   9.509   5.452   1.050
16402WAT     H249449   9.555   5.563   1.161
16403WAT      O49450   7.356   5.413   0.777
16403WAT     H149451   7.372   5.321   0.742
16403WAT     H249452   7.262   5.440   0.757
16404WAT      O49453   6.027   2.725   2.092
16404WAT     H149454   6.020   2.667   2.011
16404WAT     H249455   6.091   2.800   2.073
16405WAT      O49456   0.770   4.995   2.248
16405WAT     H149457   0.782   4.921   2.182
16405WAT     H249458   0.788   4.959   2.340
16406WAT      O49459   9.293   3.502   7.501
16406WAT     H149460   9.330   3.593   7.483
16406WAT     H249461   9.199   3.497   7.468
16407WAT      O49462   1.009   1.336   9.083
16407WAT     H149463   1.006   1.258   9.145
16407WAT     H249464   0.972   1.309   8.993
16408WAT      O49465   2.994   0.593   4.223
16408WAT     H149466   2.953   0.679   4.252
16408WAT     H249467   3.069   0.569   4.285
16409WAT      O49468   1.510   2.343   1.954
16409WAT     H149469   1.598   2.357   1.909
16409WAT     H249470   1.438   2.385   1.898
16410WAT      O49471   6.359   5.293   5.364
16410WAT     H149472   6.422   5.297   5.286
16410WAT     H249473   6.265   5.303   5.331
16411WAT      O49474   7.393   7.215   3.867
16411WAT     H149475   7.343   7.288   3.821
16411WAT     H249476   7.474   7.191   3.813
16412WAT      O49477   1.615   0.275   3.603
16412WAT     H149478   1.592   0.204   3.670
16412WAT     H249479   1.533   0.328   3.582
16413WAT      O49480   0.178   4.848   3.853
16413WAT     H149481   0.140   4.789   3.781
16413WAT     H249482   0.213   4.932   3.812
16414WAT      O49483   9.634   5.111   5.626
16414WAT     H149484   9.580   5.182   5.671
16414WAT     H249485   9.714   5.089   5.682
16415WAT      O49486   8.765   5.837   2.818
16415WAT     H149487   8.796   5.924   2.778
16415WAT     H249488   8.769   5.765   2.748
16416WAT      O49489   6.033   5.614   4.610
16416WAT     H149490   6.083   5.645   4.691
16416WAT     H249491   6.044   5.682   4.537
16417WAT      O49492   2.082   3.589   3.104
16417WAT     H149493   2.174   3.626   3.100
16417WAT     H249494   2.083   3.500   3.149
16418WAT      O49495   1.206   3.770   3.618
16418WAT     H149496   1.120   3.773   3.668
16418WAT     H249497   1.264   3.697   3.655
16419WAT      O49498   7.437   0.519   9.469
16419WAT     H149499   7.375   0.449   9.504
16419WAT     H249500   7.394   0.609   9.478
16420WAT      O49501   7.532   0.083   5.893
16420WAT     H149502   7.563   0.176   5.914
16420WAT     H249503   7.533   0.069   5.795
16421WAT      O49504   7.703   1.514   3.019
16421WAT     H149505   7.696   1.612   3.001
16421WAT     H249506   7.799   1.488   3.026
16422WAT      O49507   3.306   0.654   2.736
16422WAT     H149508   3.227   0.703   2.700
16422WAT     H249509   3.295   0.641   2.835
16423WAT      O49510   3.075   2.008   4.625
16423WAT     H149511   3.104   1.935   4.687
16423WAT     H249512   3.154   2.064   4.599
16424WAT      O49513   4.467   6.809   1.358
16424WAT     H149514   4.477   6.862   1.443
16424WAT     H249515   4.433   6.869   1.286
16425WAT      O49516   4.477   7.270   6.317
16425WAT     H149517   4.433   7.324   6.388
16425WAT     H249518   4.465   7.316   6.229
16426WAT      O49519   4.098   4.537   9.759
16426WAT     H149520   4.185   4.498   9.790
16426WAT     H249521   4.088   4.522   9.661
16427WAT      O49522   4.262   5.717   6.198
16427WAT     H149523   4.264   5.676   6.290
16427WAT     H249524   4.170   5.752   6.179
16428WAT      O49525   4.234   8.771   0.628
16428WAT     H149526   4.145   8.734   0.601
16428WAT     H249527   4.225   8.869   0.646
16429WAT      O49528   2.811   2.240   3.362
16429WAT     H149529   2.810   2.140   3.354
16429WAT     H249530   2.872   2.267   3.436
16430WAT      O49531   6.403   6.687   8.847
16430WAT     H149532   6.475   6.618   8.856
16430WAT     H249533   6.333   6.653   8.783
16431WAT      O49534   9.182   1.698   7.041
16431WAT     H149535   9.237   1.628   7.086
16431WAT     H249536   9.240   1.776   7.017
16432WAT      O49537   0.671   3.370   9.370
16432WAT     H149538   0.584   3.340   9.331
16432WAT     H249539   0.656   3.412   9.459
16433WAT      O49540   3.985   3.105   2.450
16433WAT     H149541   3.977   3.021   2.396
16433WAT     H249542   3.928   3.097   2.532
16434WAT      O49543   6.821   0.538   8.125
16434WAT     H149544   6.817   0.620   8.183
16434WAT     H249545   6.915   0.527   8.092
16435WAT      O49546   7.275   2.275   5.465
16435WAT     H149547   7.280   2.298   5.368
16435WAT     H249548   7.227   2.188   5.476
16436WAT      O49549   3.039   4.768   5.394
16436WAT     H149550   2.991   4.713   5.463
16436WAT     H249551   2.972   4.810   5.333
16437WAT      O49552   4.216   0.929   1.474
16437WAT     H149553   4.268   0.867   1.415
16437WAT     H249554   4.141   0.970   1.421
16438WAT      O49555   0.033   5.011   3.133
16438WAT     H149556   0.012   4.942   3.202
16438WAT     H249557   0.111   5.066   3.164
16439WAT      O49558   1.460   5.188   5.146
16439WAT     H149559   1.377   5.138   5.173
16439WAT     H249560   1.535   5.164   5.207
16440WAT      O49561   6.309   1.931   6.579
16440WAT     H149562   6.253   1.944   6.661
16440WAT     H249563   6.261   1.969   6.499
16441WAT      O49564   7.467   5.509   1.770
16441WAT     H149565   7.530   5.434   1.749
16441WAT     H249566   7.373   5.474   1.765
16442WAT      O49567   0.269   9.729   2.084
16442WAT     H149568   0.343   9.766   2.027
16442WAT     H249569   0.308   9.671   2.156
16443WAT      O49570   4.577   5.933   6.596
16443WAT     H149571   4.523   5.961   6.517
16443WAT     H249572   4.658   5.882   6.566
16444WAT      O49573   3.145   5.920   0.018
16444WAT     H149574   3.203   5.982   0.072
16444WAT     H249575   3.156   5.827   0.052
16445WAT      O49576   7.538   3.858   3.089
16445WAT     H149577   7.608   3.920   3.124
16445WAT     H249578   7.453   3.871   3.139
16446WAT      O49579   6.562   0.780   8.412
16446WAT     H149580   6.542   0.689   8.376
16446WAT     H249581   6.611   0.771   8.499
16447WAT      O49582   7.641   1.467   2.306
16447WAT     H149583   7.571   1.406   2.269
16447WAT     H249584   7.601   1.556   2.326
16448WAT      O49585   3.845   3.680   9.329
16448WAT     H149586   3.874   3.744   9.401
16448WAT     H249587   3.748   3.657   9.342
16449WAT      O49588   5.946   6.814   3.337
16449WAT     H149589   5.887   6.866   3.277
16449WAT     H249590   6.035   6.858   3.343
16450WAT      O49591   2.635   5.793   8.846
16450WAT     H149592   2.651   5.763   8.752
16450WAT     H249593   2.656   5.718   8.909
16451WAT      O49594   5.789   2.803   5.461
16451WAT     H149595   5.714   2.856   5.423
16451WAT     H249596   5.778   2.796   5.560
16452WAT      O49597   2.184   1.860   1.536
16452WAT     H149598   2.276   1.892   1.560
16452WAT     H249599   2.142   1.925   1.473
16453WAT      O49600   5.353   0.213   0.913
16453WAT     H149601   5.395   0.231   1.001
16453WAT     H249602   5.413   0.155   0.858
16454WAT      O49603   4.825   0.910   5.702
16454WAT     H149604   4.772   0.908   5.786
16454WAT     H249605   4.918   0.941   5.721
16455WAT      O49606   5.262   0.558   3.195
16455WAT     H149607   5.208   0.592   3.119
16455WAT     H249608   5.293   0.635   3.251
16456WAT      O49609   1.896   7.228   0.226
16456WAT     H149610   1.980   7.246   0.278
16456WAT     H249611   1.866   7.134   0.243
16457WAT      O49612   2.568   0.377   1.755
16457WAT     H149613   2.655   0.424   1.772
16457WAT     H249614   2.498   0.415   1.815
16458WAT      O49615   9.102   0.464   7.106
16458WAT     H149616   9.016   0.504   7.138
16458WAT     H249617   9.114   0.483   7.009
16459WAT      O49618   4.374   8.615   4.256
16459WAT     H149619   4.428   8.591   4.336
16459WAT     H249620   4.295   8.670   4.284
16460WAT      O49621   6.133   2.336   4.431
16460WAT     H149622   6.036   2.316   4.443
16460WAT     H249623   6.166   2.294   4.346
16461WAT      O49624   5.245   3.179   4.424
16461WAT     H149625   5.252   3.142   4.332
16461WAT     H249626   5.333   3.218   4.452
16462WAT      O49627   0.570   1.991   4.982
16462WAT     H149628   0.493   2.037   4.937
16462WAT     H249629   0.572   2.017   5.079
16463WAT      O49630   6.269   6.967   5.396
16463WAT     H149631   6.249   7.064   5.381
16463WAT     H249632   6.184   6.914   5.388
16464WAT      O49633   4.678   9.591   8.857
16464WAT     H149634   4.778   9.593   8.862
16464WAT     H249635   4.650   9.542   8.775
16465WAT      O49636   5.847   1.144   4.299
16465WAT     H149637   5.923   1.201   4.329
16465WAT     H249638   5.761   1.192   4.317
16466WAT      O49639   1.237   1.754   3.957
16466WAT     H149640   1.205   1.730   4.049
16466WAT     H249641   1.337   1.760   3.957
16467WAT      O49642   5.922   3.139   1.269
16467WAT     H149643   5.938   3.203   1.194
16467WAT     H249644   5.835   3.091   1.254
16468WAT      O49645   7.899   4.031   6.681
16468WAT     H149646   7.869   3.969   6.754
16468WAT     H249647   7.876   3.991   6.593
16469WAT      O49648   2.775   2.206   4.487
16469WAT     H149649   2.685   2.249   4.475
16469WAT     H249650   2.845   2.266   4.449
16470WAT      O49651   8.146   6.611   7.779
16470WAT     H149652   8.176   6.705   7.759
16470WAT     H249653   8.137   6.600   7.878
16471WAT      O49654   6.694   7.942   4.729
16471WAT     H149655   6.676   7.844   4.717
16471WAT     H249656   6.793   7.957   4.738
16472WAT      O49657   9.519   5.219   9.507
16472WAT     H149658   9.461   5.207   9.587
16472WAT     H249659   9.476   5.284   9.445
16473WAT      O49660   3.683   2.434   9.842
16473WAT     H149661   3.651   2.511   9.787
16473WAT     H249662   3.631   2.429   9.927
16474WAT      O49663   8.275   7.896   3.835
16474WAT     H149664   8.344   7.824   3.837
16474WAT     H249665   8.310   7.977   3.882
16475WAT      O49666   6.542   8.069   0.185
16475WAT     H149667   6.561   8.167   0.200
16475WAT     H249668   6.448   8.058   0.153
16476WAT      O49669   5.439   6.670   2.475
16476WAT     H149670   5.487   6.738   2.420
16476WAT     H249671   5.439   6.582   2.427
16477WAT      O49672   9.507   5.267   0.977
16477WAT     H149673   9.604   5.277   0.955
16477WAT     H249674   9.496   5.209   1.057
16478WAT      O49675   0.511   4.383   4.715
16478WAT     H149676   0.412   4.389   4.704
16478WAT     H249677   0.554   4.463   4.675
16479WAT      O49678   8.590   2.584   6.487
16479WAT     H149679   8.673   2.531   6.505
16479WAT     H249680   8.599   2.632   6.401
16480WAT      O49681   8.721   4.884   5.860
16480WAT     H149682   8.684   4.967   5.902
16480WAT     H249683   8.813   4.903   5.825
16481WAT      O49684   5.435   8.981   7.015
16481WAT     H149685   5.457   8.909   7.081
16481WAT     H249686   5.440   9.070   7.061
16482WAT      O49687   3.074   2.338   9.659
16482WAT     H149688   3.035   2.274   9.724
16482WAT     H249689   3.170   2.353   9.679
16483WAT      O49690   8.080   6.251   7.122
16483WAT     H149691   8.042   6.333   7.166
16483WAT     H249692   8.126   6.278   7.037
16484WAT      O49693   1.503   5.844   0.225
16484WAT     H149694   1.455   5.773   0.173
16484WAT     H249695   1.601   5.825   0.224
16485WAT      O49696   7.402   2.342   9.313
16485WAT     H149697   7.336   2.291   9.258
16485WAT     H249698   7.358   2.373   9.397
16486WAT      O49699   0.487   6.387   2.348
16486WAT     H149700   0.469   6.291   2.324
16486WAT     H249701   0.412   6.444   2.315
16487WAT      O49702   8.088   6.531   6.087
16487WAT     H149703   8.150   6.597   6.129
16487WAT     H249704   8.030   6.490   6.158
16488WAT      O49705   8.370   5.264   6.443
16488WAT     H149706   8.460   5.266   6.400
16488WAT     H249707   8.341   5.170   6.457
16489WAT      O49708   2.000   2.041   3.438
16489WAT     H149709   1.962   1.980   3.508
16489WAT     H249710   1.951   2.128   3.439
16490WAT      O49711   3.826   8.630   7.705
16490WAT     H149712   3.793   8.695   7.636
16490WAT     H249713   3.829   8.675   7.794
16491WAT      O49714   2.362   4.424   4.468
16491WAT     H149715   2.281   4.469   4.429
16491WAT     H249716   2.338   4.386   4.558
16492WAT      O49717   2.248   6.390   4.387
16492WAT     H149718   2.179   6.396   4.459
16492WAT     H249719   2.219   6.323   4.319
16493WAT      O49720   6.371   0.521   6.423
16493WAT     H149721   6.460   0.512   6.468
16493WAT     H249722   6.360   0.447   6.357
16494WAT      O49723   2.066   2.055   8.488
16494WAT     H149724   1.995   2.008   8.437
16494WAT     H249725   2.147   1.996   8.493
16495WAT      O49726   7.380   5.324   0.093
16495WAT     H149727   7.337   5.296   0.007
16495WAT     H249728   7.425   5.246   0.135
16496WAT      O49729   5.260   7.976   4.515
16496WAT     H149730   5.344   8.029   4.527
16496WAT     H249731   5.197   8.025   4.455
16497WAT      O49732   9.724   4.288   6.165
16497WAT     H149733   9.774   4.346   6.229
16497WAT     H249734   9.767   4.197   6.162
16498WAT      O49735   6.724   2.320   1.055
16498WAT     H149736   6.634   2.303   1.094
16498WAT     H249737   6.720   2.313   0.956
16499WAT      O49738   3.875   0.878   6.914
16499WAT     H149739   3.906   0.807   6.851
16499WAT     H249740   3.790   0.919   6.880
16500WAT      O49741   2.796   5.869   7.867
16500WAT     H149742   2.718   5.811   7.892
16500WAT     H249743   2.779   5.962   7.900
16501WAT      O49744   6.441   8.935   5.276
16501WAT     H149745   6.383   9.002   5.322
16501WAT     H249746   6.537   8.958   5.291
16502WAT      O49747   3.838   1.565   0.033
16502WAT     H149748   3.927   1.575   0.078
16502WAT     H249749   3.813   1.651  -0.010
16503WAT      O49750   8.226   3.975   6.813
16503WAT     H149751   8.178   4.051   6.768
16503WAT     H249752   8.159   3.916   6.858
16504WAT      O49753   4.377   2.878   0.933
16504WAT     H149754   4.315   2.953   0.907
16504WAT     H249755   4.384   2.874   1.032
16505WAT      O49756   7.576   4.407   1.577
16505WAT     H149757   7.514   4.359   1.515
16505WAT     H249758   7.652   4.446   1.525
16506WAT      O49759   7.247   1.879   6.768
16506WAT     H149760   7.291   1.831   6.844
16506WAT     H249761   7.171   1.935   6.803
16507WAT      O49762   0.037   1.900   1.076
16507WAT     H149763   0.104   1.846   1.127
16507WAT     H249764   0.071   1.917   0.984
16508WAT      O49765   4.450   2.733   0.241
16508WAT     H149766   4.453   2.721   0.340
16508WAT     H249767   4.529   2.687   0.199
16509WAT      O49768   1.530   0.715   1.036
16509WAT     H149769   1.605   0.656   1.005
16509WAT     H249770   1.537   0.729   1.135
16510WAT      O49771   5.389   4.677   3.509
16510WAT     H149772   5.391   4.700   3.606
16510WAT     H249773   5.452   4.602   3.491
16511WAT      O49774   9.480   4.168   3.278
16511WAT     H149775   9.390   4.158   3.236
16511WAT     H249776   9.487   4.106   3.357
16512WAT      O49777   6.549   1.053   5.143
16512WAT     H149778   6.561   1.114   5.064
16512WAT     H249779   6.635   1.049   5.195
16513WAT      O49780   1.779   0.970   5.694
16513WAT     H149781   1.709   0.905   5.726
16513WAT     H249782   1.765   1.059   5.738
16514WAT      O49783   4.933   7.454   9.296
16514WAT     H149784   4.950   7.355   9.289
16514WAT     H249785   4.912   7.477   9.391
16515WAT      O49786   9.584   5.599   1.959
16515WAT     H149787   9.668   5.601   2.013
16515WAT     H249788   9.542   5.508   1.966
16516WAT      O49789   3.551   1.260   7.840
16516WAT     H149790   3.578   1.321   7.766
16516WAT     H249791   3.557   1.308   7.928
16517WAT      O49792   3.252   2.954   0.038
16517WAT     H149793   3.205   2.917   0.118
16517WAT     H249794   3.197   3.029  -0.001
16518WAT      O49795   8.360   8.608   9.816
16518WAT     H149796   8.376   8.591   9.719
16518WAT     H249797   8.422   8.551   9.870
16519WAT      O49798   2.212   6.573   5.144
16519WAT     H149799   2.146   6.504   5.114
16519WAT     H249800   2.237   6.556   5.240
16520WAT      O49801   6.701   0.557   5.679
16520WAT     H149802   6.654   0.585   5.762
16520WAT     H249803   6.672   0.464   5.654
16521WAT      O49804   8.551   2.728   0.500
16521WAT     H149805   8.608   2.772   0.430
16521WAT     H249806   8.604   2.656   0.546
16522WAT      O49807   1.193   1.979   1.383
16522WAT     H149808   1.243   2.024   1.457
16522WAT     H249809   1.170   2.046   1.313
16523WAT      O49810   3.189   6.439   4.466
16523WAT     H149811   3.152   6.461   4.376
16523WAT     H249812   3.246   6.515   4.498
16524WAT      O49813   5.261   1.362   3.168
16524WAT     H149814   5.187   1.423   3.138
16524WAT     H249815   5.345   1.415   3.180
16525WAT      O49816   2.434   3.739   7.730
16525WAT     H149817   2.335   3.727   7.723
16525WAT     H249818   2.457   3.834   7.708
16526WAT      O49819   4.310   5.450   9.018
16526WAT     H149820   4.224   5.398   9.018
16526WAT     H249821   4.367   5.420   9.094
16527WAT      O49822   5.852   2.836   6.202
16527WAT     H149823   5.854   2.904   6.275
16527WAT     H249824   5.880   2.747   6.237
16528WAT      O49825   8.027   0.210   3.438
16528WAT     H149826   7.967   0.289   3.427
16528WAT     H249827   8.118   0.231   3.400
16529WAT      O49828   4.926   6.214   7.098
16529WAT     H149829   4.916   6.150   7.175
16529WAT     H249830   4.837   6.251   7.073
16530WAT      O49831   0.426   4.467   0.474
16530WAT     H149832   0.449   4.518   0.557
16530WAT     H249833   0.447   4.370   0.488
16531WAT      O49834   3.090   0.989   5.554
16531WAT     H149835   3.097   1.082   5.590
16531WAT     H249836   3.083   0.925   5.631
16532WAT      O49837   8.219   5.399   4.906
16532WAT     H149838   8.301   5.369   4.857
16532WAT     H249839   8.188   5.327   4.968
16533WAT      O49840   2.787   1.399   7.162
16533WAT     H149841   2.695   1.439   7.158
16533WAT     H249842   2.854   1.472   7.176
16534WAT      O49843   2.063   8.149   9.809
16534WAT     H149844   2.084   8.186   9.900
16534WAT     H249845   2.113   8.064   9.795
16535WAT      O49846   4.813   6.631   5.586
16535WAT     H149847   4.744   6.569   5.548
16535WAT     H249848   4.899   6.619   5.536
16536WAT      O49849   1.674   0.001   1.143
16536WAT     H149850   1.749  -0.065   1.151
16536WAT     H249851   1.708   0.085   1.100
16537WAT      O49852   0.064   9.340   8.691
16537WAT     H149853   0.037   9.420   8.637
16537WAT     H249854   0.129   9.368   8.761
16538WAT      O49855   2.957   7.783   5.613
16538WAT     H149856   2.900   7.855   5.650
16538WAT     H249857   2.966   7.795   5.514
16539WAT      O49858   6.149   4.540   1.933
16539WAT     H149859   6.191   4.455   1.901
16539WAT     H249860   6.201   4.577   2.009
16540WAT      O49861   5.194   6.315   7.192
16540WAT     H149862   5.217   6.218   7.199
16540WAT     H249863   5.128   6.329   7.118
16541WAT      O49864   7.082   5.394   0.633
16541WAT     H149865   7.097   5.436   0.543
16541WAT     H249866   7.063   5.297   0.621
16542WAT      O49867   1.708   8.747   4.599
16542WAT     H149868   1.701   8.671   4.534
16542WAT     H249869   1.709   8.834   4.550
16543WAT      O49870   1.536   8.833   7.530
16543WAT     H149871   1.524   8.894   7.452
16543WAT     H249872   1.625   8.789   7.524
16544WAT      O49873   1.127   2.699   9.346
16544WAT     H149874   1.194   2.644   9.396
16544WAT     H249875   1.073   2.639   9.287
16545WAT      O49876   3.957   2.520   7.797
16545WAT     H149877   3.864   2.505   7.831
16545WAT     H249878   3.960   2.499   7.699
16546WAT      O49879   0.721   8.528   1.858
16546WAT     H149880   0.816   8.504   1.878
16546WAT     H249881   0.661   8.454   1.889
16547WAT      O49882   6.598   6.993   1.446
16547WAT     H149883   6.616   6.941   1.363
16547WAT     H249884   6.606   7.091   1.426
16548WAT      O49885   6.873   1.622   9.842
16548WAT     H149886   6.775   1.627   9.863
16548WAT     H249887   6.891   1.671   9.756
16549WAT      O49888   9.629   9.463   4.184
16549WAT     H149889   9.642   9.445   4.086
16549WAT     H249890   9.694   9.408   4.237
16550WAT      O49891   9.783   1.104   1.322
16550WAT     H149892   9.728   1.064   1.395
16550WAT     H249893   9.818   1.193   1.351
16551WAT      O49894   8.758   5.414   2.981
16551WAT     H149895   8.781   5.434   2.886
16551WAT     H249896   8.661   5.432   2.997
16552WAT      O49897   4.753   2.998   6.380
16552WAT     H149898   4.842   2.999   6.334
16552WAT     H249899   4.765   2.985   6.478
16553WAT      O49900   2.181   2.588   7.268
16553WAT     H149901   2.277   2.595   7.296
16553WAT     H249902   2.147   2.678   7.242
16554WAT      O49903   8.316   8.927   2.869
16554WAT     H149904   8.388   8.969   2.813
16554WAT     H249905   8.274   8.997   2.927
16555WAT      O49906   0.884   5.187   3.850
16555WAT     H149907   0.806   5.248   3.834
16555WAT     H249908   0.967   5.242   3.859
16556WAT      O49909   2.717   8.662   2.972
16556WAT     H149910   2.753   8.718   3.046
16556WAT     H249911   2.784   8.592   2.947
16557WAT      O49912   4.816   2.716   6.927
16557WAT     H149913   4.844   2.643   6.989
16557WAT     H249914   4.822   2.804   6.975
16558WAT      O49915   4.167   0.765   6.028
16558WAT     H149916   4.131   0.803   5.943
16558WAT     H249917   4.256   0.724   6.011
16559WAT      O49918   1.394   3.614   6.070
16559WAT     H149919   1.492   3.633   6.067
16559WAT     H249920   1.365   3.578   5.981
16560WAT      O49921   8.574   2.162   5.108
16560WAT     H149922   8.539   2.111   5.186
16560WAT     H249923   8.560   2.260   5.123
16561WAT      O49924   5.794   1.183   8.726
16561WAT     H149925   5.792   1.282   8.741
16561WAT     H249926   5.770   1.137   8.811
16562WAT      O49927   0.613   9.418   1.974
16562WAT     H149928   0.687   9.485   1.979
16562WAT     H249929   0.606   9.368   2.061
16563WAT      O49930   2.367   6.632   7.571
16563WAT     H149931   2.303   6.564   7.535
16563WAT     H249932   2.342   6.723   7.537
16564WAT      O49933   0.342   3.881   5.178
16564WAT     H149934   0.370   3.849   5.268
16564WAT     H249935   0.297   3.807   5.129
16565WAT      O49936   3.311   3.647   8.269
16565WAT     H149937   3.228   3.598   8.298
16565WAT     H249938   3.338   3.711   8.341
16566WAT      O49939   9.596   6.723   8.378
16566WAT     H149940   9.610   6.815   8.415
16566WAT     H249941   9.521   6.679   8.428
16567WAT      O49942   0.017   7.936   1.845
16567WAT     H149943   0.010   7.847   1.800
16567WAT     H249944  -0.075   7.967   1.871
16568WAT      O49945   3.797   0.530   4.172
16568WAT     H149946   3.794   0.625   4.203
16568WAT     H249947   3.878   0.485   4.210
16569WAT      O49948   2.011   9.796   2.684
16569WAT     H149949   1.965   9.785   2.772
16569WAT     H249950   2.106   9.767   2.692
16570WAT      O49951   6.412   3.477   8.717
16570WAT     H149952   6.327   3.501   8.763
16570WAT     H249953   6.452   3.559   8.677
16571WAT      O49954   2.564   0.667   6.176
16571WAT     H149955   2.531   0.761   6.175
16571WAT     H249956   2.588   0.639   6.083
16572WAT      O49957   6.854   9.176   2.807
16572WAT     H149958   6.765   9.216   2.832
16572WAT     H249959   6.862   9.085   2.848
16573WAT      O49960   1.851   1.805   2.419
16573WAT     H149961   1.939   1.772   2.453
16573WAT     H249962   1.784   1.731   2.421
16574WAT      O49963   4.288   2.981   8.839
16574WAT     H149964   4.202   3.023   8.868
16574WAT     H249965   4.362   3.012   8.899
16575WAT      O49966   1.226   7.141   2.277
16575WAT     H149967   1.184   7.215   2.330
16575WAT     H249968   1.155   7.081   2.240
16576WAT      O49969   2.955   1.612   9.449
16576WAT     H149970   3.043   1.658   9.444
16576WAT     H249971   2.893   1.666   9.506
16577WAT      O49972   3.691   9.022   8.820
16577WAT     H149973   3.673   8.928   8.849
16577WAT     H249974   3.725   9.021   8.726
16578WAT      O49975   1.164   6.479   3.732
16578WAT     H149976   1.254   6.438   3.718
16578WAT     H249977   1.155   6.510   3.827
16579WAT      O49978   1.946   0.199   6.660
16579WAT     H149979   1.890   0.239   6.587
16579WAT     H249980   1.957   0.265   6.734
16580WAT      O49981   9.167   0.142   7.799
16580WAT     H149982   9.265   0.136   7.780
16580WAT     H249983   9.116   0.136   7.714
16581WAT      O49984   6.151   5.341   5.210
16581WAT     H149985   6.074   5.400   5.234
16581WAT     H249986   6.146   5.316   5.114
16582WAT      O49987   0.187   5.343   4.068
16582WAT     H149988   0.142   5.257   4.096
16582WAT     H249989   0.279   5.323   4.035
16583WAT      O49990   1.387   4.266   7.206
16583WAT     H149991   1.472   4.303   7.171
16583WAT     H249992   1.315   4.274   7.137
16584WAT      O49993   7.043   8.014   7.133
16584WAT     H149994   7.042   7.922   7.174
16584WAT     H249995   7.135   8.053   7.140
16585WAT      O49996   1.377   7.220   0.680
16585WAT     H149997   1.346   7.141   0.733
16585WAT     H249998   1.477   7.224   0.681
16586WAT      O49999   7.660   1.231   5.703
16586WAT     H150000   7.759   1.241   5.704
16586WAT     H250001   7.633   1.172   5.626
16587WAT      O50002   0.634   4.749   0.207
16587WAT     H150003   0.649   4.652   0.226
16587WAT     H250004   0.623   4.762   0.109
16588WAT      O50005   7.445   7.332   2.186
16588WAT     H150006   7.525   7.274   2.174
16588WAT     H250007   7.401   7.310   2.273
16589WAT      O50008   9.538   2.443   8.044
16589WAT     H150009   9.603   2.409   7.976
16589WAT     H250010   9.465   2.493   7.999
16590WAT      O50011   7.092   3.015   0.126
16590WAT     H150012   7.012   3.072   0.143
16590WAT     H250013   7.091   2.937   0.188
16591WAT      O50014   7.219   7.223   0.072
16591WAT     H150015   7.273   7.171   0.137
16591WAT     H250016   7.124   7.190   0.072
16592WAT      O50017   4.349   1.168   1.146
16592WAT     H150018   4.316   1.199   1.057
16592WAT     H250019   4.324   1.072   1.160
16593WAT      O50020   0.509   5.028   5.819
16593WAT     H150021   0.572   4.951   5.819
16593WAT     H250022   0.555   5.108   5.780
16594WAT      O50023   6.124   7.473   7.266
16594WAT     H150024   6.071   7.462   7.182
16594WAT     H250025   6.067   7.447   7.345
16595WAT      O50026   6.931   5.484   4.959
16595WAT     H150027   7.022   5.488   4.918
16595WAT     H250028   6.919   5.395   5.004
16596WAT      O50029   3.753   0.950   1.682
16596WAT     H150030   3.734   0.870   1.739
16596WAT     H250031   3.667   0.999   1.664
16597WAT      O50032   7.582   9.042   8.699
16597WAT     H150033   7.523   9.118   8.724
16597WAT     H250034   7.631   9.010   8.780
16598WAT      O50035   8.630   6.628   1.461
16598WAT     H150036   8.706   6.644   1.524
16598WAT     H250037   8.589   6.539   1.481
16599WAT      O50038   2.000   7.567   0.656
16599WAT     H150039   1.949   7.619   0.724
16599WAT     H250040   2.072   7.515   0.702
16600WAT      O50041   9.887   9.098   3.274
16600WAT     H150042   9.884   9.086   3.374
16600WAT     H250043   9.918   9.191   3.253
16601WAT      O50044   9.624   6.646   7.578
16601WAT     H150045   9.613   6.740   7.611
16601WAT     H250046   9.709   6.640   7.524
16602WAT      O50047   9.613   7.979   9.674
16602WAT     H150048   9.597   7.993   9.577
16602WAT     H250049   9.568   7.894   9.703
16603WAT      O50050   1.743   2.499   7.855
16603WAT     H150051   1.834   2.464   7.835
16603WAT     H250052   1.683   2.422   7.880
16604WAT      O50053   3.033   3.657   0.514
16604WAT     H150054   2.937   3.639   0.535
16604WAT     H250055   3.091   3.588   0.557
16605WAT      O50056   7.508   3.499   9.334
16605WAT     H150057   7.583   3.552   9.295
16605WAT     H250058   7.545   3.427   9.394
16606WAT      O50059   9.281   4.096   2.146
16606WAT     H150060   9.224   4.123   2.223
16606WAT     H250061   9.240   4.017   2.100
16607WAT      O50062   2.611   0.098   1.588
16607WAT     H150063   2.662   0.184   1.580
16607WAT     H250064   2.591   0.064   1.496
16608WAT      O50065   7.845   6.970   1.197
16608WAT     H150066   7.777   6.899   1.219
16608WAT     H250067   7.836   6.995   1.101
16609WAT      O50068   1.894   3.188   4.976
16609WAT     H150069   1.819   3.163   5.038
16609WAT     H250070   1.877   3.280   4.940
16610WAT      O50071   9.204   2.232   9.348
16610WAT     H150072   9.139   2.271   9.282
16610WAT     H250073   9.221   2.298   9.421
16611WAT      O50074   2.254   9.507   9.252
16611WAT     H150075   2.290   9.413   9.253
16611WAT     H250076   2.266   9.548   9.342
16612WAT      O50077   5.556   9.186   5.714
16612WAT     H150078   5.466   9.227   5.726
16612WAT     H250079   5.554   9.092   5.751
16613WAT      O50080   3.183   7.619   1.362
16613WAT     H150081   3.143   7.645   1.449
16613WAT     H250082   3.110   7.601   1.296
16614WAT      O50083   6.368   3.091   0.934
16614WAT     H150084   6.372   3.104   1.033
16614WAT     H250085   6.383   3.179   0.889
16615WAT      O50086   5.969   4.705   9.196
16615WAT     H150087   5.937   4.740   9.284
16615WAT     H250088   6.063   4.735   9.180
16616WAT      O50089   7.644   1.122   3.098
16616WAT     H150090   7.613   1.027   3.105
16616WAT     H250091   7.612   1.173   3.178
16617WAT      O50092   1.873   9.788   4.239
16617WAT     H150093   1.809   9.733   4.293
16617WAT     H250094   1.934   9.727   4.189
16618WAT      O50095   5.201   6.538   6.940
16618WAT     H150096   5.120   6.564   6.888
16618WAT     H250097   5.190   6.565   7.036
16619WAT      O50098   2.777   8.310   4.346
16619WAT     H150099   2.824   8.235   4.393
16619WAT     H250100   2.682   8.285   4.329
16620WAT      O50101   6.983   1.178   2.544
16620WAT     H150102   6.936   1.119   2.610
16620WAT     H250103   7.036   1.121   2.480
16621WAT      O50104   1.496   0.298   4.406
16621WAT     H150105   1.516   0.388   4.445
16621WAT     H250106   1.422   0.305   4.339
16622WAT      O50107   0.388   1.342   8.786
16622WAT     H150108   0.358   1.348   8.881
16622WAT     H250109   0.450   1.265   8.775
16623WAT      O50110   8.463   0.817   9.654
16623WAT     H150111   8.377   0.774   9.683
16623WAT     H250112   8.524   0.824   9.733
16624WAT      O50113   7.962   4.302   1.752
16624WAT     H150114   7.961   4.265   1.659
16624WAT     H250115   7.927   4.232   1.815
16625WAT      O50116   9.052   0.037   9.050
16625WAT     H150117   9.100   0.119   9.082
16625WAT     H250118   9.104  -0.005   8.975
16626WAT      O50119   5.447   0.373   3.291
16626WAT     H150120   5.469   0.296   3.231
16626WAT     H250121   5.377   0.430   3.248
16627WAT      O50122   0.404   1.353   1.203
16627WAT     H150123   0.489   1.309   1.234
16627WAT     H250124   0.418   1.388   1.110
16628WAT      O50125   2.862   0.965   1.479
16628WAT     H150126   2.912   0.945   1.563
16628WAT     H250127   2.920   0.943   1.400
16629WAT      O50128   0.397   3.889   4.389
16629WAT     H150129   0.357   3.976   4.419
16629WAT     H250130   0.327   3.818   4.389
16630WAT      O50131   2.354   2.887   9.241
16630WAT     H150132   2.341   2.907   9.338
16630WAT     H250133   2.358   2.973   9.189
16631WAT      O50134   7.463   2.429   6.506
16631WAT     H150135   7.464   2.471   6.597
16631WAT     H250136   7.519   2.484   6.444
16632WAT      O50137   7.095   6.893   5.359
16632WAT     H150138   7.014   6.843   5.329
16632WAT     H250139   7.119   6.867   5.452
16633WAT      O50140   1.739   6.935   5.989
16633WAT     H150141   1.643   6.919   5.964
16633WAT     H250142   1.783   6.848   6.010
16634WAT      O50143   8.357   8.465   2.772
16634WAT     H150144   8.323   8.405   2.845
16634WAT     H250145   8.433   8.520   2.806
16635WAT      O50146   0.825   5.134   3.462
16635WAT     H150147   0.851   5.230   3.450
16635WAT     H250148   0.893   5.088   3.519
16636WAT      O50149   7.435   0.245   3.491
16636WAT     H150150   7.361   0.179   3.498
16636WAT     H250151   7.403   0.326   3.442
16637WAT      O50152   4.374   7.195   0.570
16637WAT     H150153   4.276   7.214   0.582
16637WAT     H250154   4.406   7.138   0.646
16638WAT      O50155   8.835   4.247   0.009
16638WAT     H150156   8.778   4.216  -0.067
16638WAT     H250157   8.851   4.171   0.072
16639WAT      O50158   2.223   0.813   0.434
16639WAT     H150159   2.317   0.794   0.461
16639WAT     H250160   2.210   0.786   0.339
16640WAT      O50161   1.388   8.926   5.808
16640WAT     H150162   1.289   8.916   5.817
16640WAT     H250163   1.413   8.933   5.712
16641WAT      O50164   1.379   2.960   5.654
16641WAT     H150165   1.451   2.890   5.656
16641WAT     H250166   1.293   2.918   5.625
16642WAT      O50167   6.443   3.271   7.954
16642WAT     H150168   6.347   3.296   7.967
16642WAT     H250169   6.488   3.340   7.897
16643WAT      O50170   2.825   0.362   6.108
16643WAT     H150171   2.867   0.332   6.193
16643WAT     H250172   2.728   0.339   6.108
16644WAT      O50173   9.791   5.875   0.394
16644WAT     H150174   9.692   5.864   0.401
16644WAT     H250175   9.823   5.937   0.466
16645WAT      O50176   3.347   8.930   4.652
16645WAT     H150177   3.288   8.941   4.733
16645WAT     H250178   3.332   8.839   4.613
16646WAT      O50179   7.277   4.192   2.831
16646WAT     H150180   7.335   4.122   2.873
16646WAT     H250181   7.325   4.232   2.753
16647WAT      O50182   3.347   7.874   6.947
16647WAT     H150183   3.283   7.808   6.908
16647WAT     H250184   3.411   7.826   7.007
16648WAT      O50185   9.236   1.974   6.792
16648WAT     H150186   9.309   2.039   6.813
16648WAT     H250187   9.275   1.885   6.768
16649WAT      O50188   5.375   3.911   2.143
16649WAT     H150189   5.322   3.940   2.223
16649WAT     H250190   5.414   3.820   2.161
16650WAT      O50191   5.247   0.883   0.844
16650WAT     H150192   5.268   0.794   0.885
16650WAT     H250193   5.264   0.955   0.911
16651WAT      O50194   3.175   0.113   3.039
16651WAT     H150195   3.266   0.138   3.070
16651WAT     H250196   3.123   0.195   3.014
16652WAT      O50197   6.127   2.066   4.658
16652WAT     H150198   6.070   2.144   4.632
16652WAT     H250199   6.217   2.097   4.686
16653WAT      O50200   6.372   6.936   9.734
16653WAT     H150201   6.301   6.976   9.676
16653WAT     H250202   6.351   6.840   9.752
16654WAT      O50203   0.069   4.127   7.627
16654WAT     H150204   0.063   4.222   7.659
16654WAT     H250205   0.029   4.067   7.696
16655WAT      O50206   8.955   8.842   9.109
16655WAT     H150207   9.026   8.913   9.108
16655WAT     H250208   8.995   8.755   9.136
16656WAT      O50209   7.036   4.253   5.388
16656WAT     H150210   7.084   4.207   5.463
16656WAT     H250211   6.950   4.291   5.422
16657WAT      O50212   0.350   9.325   4.926
16657WAT     H150213   0.407   9.394   4.971
16657WAT     H250214   0.290   9.281   4.993
16658WAT      O50215   8.253   6.342   7.518
16658WAT     H150216   8.162   6.383   7.512
16658WAT     H250217   8.294   6.365   7.607
16659WAT      O50218   2.601   7.738   1.899
16659WAT     H150219   2.676   7.749   1.833
16659WAT     H250220   2.606   7.810   1.968
16660WAT      O50221   7.857   3.917   4.646
16660WAT     H150222   7.859   3.820   4.624
16660WAT     H250223   7.950   3.950   4.662
16661WAT      O50224   7.768   4.798   4.150
16661WAT     H150225   7.858   4.783   4.110
16661WAT     H250226   7.772   4.877   4.211
16662WAT      O50227   1.897   8.136   5.689
16662WAT     H150228   1.831   8.069   5.656
16662WAT     H250229   1.990   8.100   5.675
16663WAT      O50230   9.277   5.526   4.526
16663WAT     H150231   9.329   5.462   4.469
16663WAT     H250232   9.216   5.580   4.468
16664WAT      O50233   3.407   3.790   6.911
16664WAT     H150234   3.429   3.695   6.934
16664WAT     H250235   3.491   3.843   6.904
16665WAT      O50236   7.035   5.521   5.399
16665WAT     H150237   7.082   5.570   5.326
16665WAT     H250238   7.031   5.424   5.377
16666WAT      O50239   5.877   2.730   8.631
16666WAT     H150240   5.787   2.763   8.659
16666WAT     H250241   5.944   2.749   8.703
16667WAT      O50242   1.106   9.751   9.288
16667WAT     H150243   1.018   9.746   9.336
16667WAT     H250244   1.123   9.845   9.260
16668WAT      O50245   9.321   5.872   4.653
16668WAT     H150246   9.317   5.797   4.719
16668WAT     H250247   9.263   5.947   4.685
16669WAT      O50248   8.152   4.639   7.921
16669WAT     H150249   8.132   4.736   7.935
16669WAT     H250250   8.215   4.629   7.843
16670WAT      O50251   2.719   3.844   1.185
16670WAT     H150252   2.760   3.758   1.155
16670WAT     H250253   2.749   3.918   1.126
16671WAT      O50254   0.761   5.844   2.504
16671WAT     H150255   0.682   5.829   2.563
16671WAT     H250256   0.840   5.796   2.541
16672WAT      O50257   5.674   0.977   5.076
16672WAT     H150258   5.714   1.027   5.152
16672WAT     H250259   5.646   1.042   5.005
16673WAT      O50260   1.583   9.724   8.002
16673WAT     H150261   1.605   9.757   7.910
16673WAT     H250262   1.637   9.642   8.021
16674WAT      O50263   0.424   2.572   3.355
16674WAT     H150264   0.443   2.666   3.380
16674WAT     H250265   0.461   2.553   3.264
16675WAT      O50266   6.506   0.499   8.099
16675WAT     H150267   6.605   0.482   8.090
16675WAT     H250268   6.474   0.547   8.017
16676WAT      O50269   0.985   1.201   2.388
16676WAT     H150270   0.905   1.239   2.342
16676WAT     H250271   1.047   1.162   2.319
16677WAT      O50272   6.813   5.298   4.205
16677WAT     H150273   6.751   5.362   4.250
16677WAT     H250274   6.898   5.292   4.257
16678WAT      O50275   5.802   7.802   4.289
16678WAT     H150276   5.835   7.895   4.274
16678WAT     H250277   5.837   7.741   4.218
16679WAT      O50278   0.164   9.430   1.803
16679WAT     H150279   0.118   9.443   1.715
16679WAT     H250280   0.261   9.451   1.792
16680WAT      O50281   1.655   1.607   3.728
16680WAT     H150282   1.750   1.640   3.731
16680WAT     H250283   1.644   1.547   3.649
16681WAT      O50284   9.731   9.165   4.353
16681WAT     H150285   9.677   9.086   4.323
16681WAT     H250286   9.752   9.156   4.450
16682WAT      O50287   8.292   7.026   1.680
16682WAT     H150288   8.367   6.959   1.682
16682WAT     H250289   8.261   7.040   1.586
16683WAT      O50290   7.763   4.469   2.462
16683WAT     H150291   7.776   4.557   2.417
16683WAT     H250292   7.736   4.484   2.558
16684WAT      O50293   2.154   6.910   6.303
16684WAT     H150294   2.238   6.859   6.326
16684WAT     H250295   2.120   6.879   6.214
16685WAT      O50296   5.122   2.441   7.818
16685WAT     H150297   5.054   2.368   7.819
16685WAT     H250298   5.096   2.512   7.884
16686WAT      O50299   4.544   3.012   6.188
16686WAT     H150300   4.618   2.989   6.250
16686WAT     H250301   4.578   3.011   6.094
16687WAT      O50302   7.040   4.249   7.874
16687WAT     H150303   7.026   4.277   7.969
16687WAT     H250304   7.120   4.296   7.837
16688WAT      O50305   6.927   1.645   3.316
16688WAT     H150306   6.912   1.603   3.406
16688WAT     H250307   6.918   1.576   3.245
16689WAT      O50308   5.246   0.933   8.501
16689WAT     H150309   5.275   1.029   8.496
16689WAT     H250310   5.226   0.899   8.409
16690WAT      O50311   1.480   9.090   7.879
16690WAT     H150312   1.417   9.160   7.845
16690WAT     H250313   1.492   9.102   7.977
16691WAT      O50314   4.488   7.880   3.311
16691WAT     H150315   4.461   7.795   3.265
16691WAT     H250316   4.500   7.863   3.409
16692WAT      O50317   3.537   4.865   3.080
16692WAT     H150318   3.605   4.817   3.135
16692WAT     H250319   3.537   4.962   3.103
16693WAT      O50320   7.163   1.954   8.893
16693WAT     H150321   7.196   1.965   8.799
16693WAT     H250322   7.063   1.949   8.892
16694WAT      O50323   4.938   2.349   3.456
16694WAT     H150324   4.920   2.374   3.551
16694WAT     H250325   5.002   2.416   3.416
16695WAT      O50326   8.837   8.067   7.816
16695WAT     H150327   8.916   8.005   7.817
16695WAT     H250328   8.855   8.142   7.753
16696WAT      O50329   3.504   7.136   6.783
16696WAT     H150330   3.440   7.178   6.847
16696WAT     H250331   3.571   7.204   6.754
16697WAT      O50332   6.884   0.350   4.776
16697WAT     H150333   6.867   0.348   4.875
16697WAT     H250334   6.837   0.429   4.736
16698WAT      O50335   4.011   3.134   8.889
16698WAT     H150336   3.951   3.070   8.841
16698WAT     H250337   3.966   3.222   8.897
16699WAT      O50338   8.131   3.580   6.109
16699WAT     H150339   8.039   3.590   6.072
16699WAT     H250340   8.196   3.624   6.047
16700WAT      O50341   4.663   1.073   4.917
16700WAT     H150342   4.640   1.129   4.838
16700WAT     H250343   4.600   1.092   4.992
16701WAT      O50344   2.691   6.220   0.705
16701WAT     H150345   2.762   6.188   0.643
16701WAT     H250346   2.699   6.173   0.793
16702WAT      O50347   6.748   8.853   9.341
16702WAT     H150348   6.705   8.821   9.426
16702WAT     H250349   6.837   8.809   9.330
16703WAT      O50350   8.673   1.003   4.720
16703WAT     H150351   8.768   1.021   4.744
16703WAT     H250352   8.620   0.986   4.803
16704WAT      O50353   9.555   8.803   4.775
16704WAT     H150354   9.601   8.716   4.760
16704WAT     H250355   9.512   8.833   4.690
16705WAT      O50356   7.914   1.055   6.112
16705WAT     H150357   7.903   0.984   6.043
16705WAT     H250358   7.917   1.145   6.067
16706WAT      O50359   1.082   6.293   4.517
16706WAT     H150360   1.053   6.237   4.595
16706WAT     H250361   1.016   6.282   4.442
16707WAT      O50362   1.965   6.549   0.235
16707WAT     H150363   1.867   6.556   0.216
16707WAT     H250364   1.978   6.520   0.330
16708WAT      O50365   0.369   5.149   1.279
16708WAT     H150366   0.294   5.160   1.214
16708WAT     H250367   0.361   5.218   1.351
16709WAT      O50368   6.566   6.870   7.437
16709WAT     H150369   6.519   6.791   7.476
16709WAT     H250370   6.537   6.883   7.342
16710WAT      O50371   6.458   6.331   4.729
16710WAT     H150372   6.489   6.377   4.812
16710WAT     H250373   6.537   6.310   4.671
16711WAT      O50374   7.956   3.588   9.631
16711WAT     H150375   8.052   3.615   9.626
16711WAT     H250376   7.944   3.499   9.587
16712WAT      O50377   7.399   4.840   5.355
16712WAT     H150378   7.409   4.796   5.266
16712WAT     H250379   7.480   4.896   5.374
16713WAT      O50380   2.912   2.244   6.061
16713WAT     H150381   2.956   2.167   6.016
16713WAT     H250382   2.967   2.272   6.140
16714WAT      O50383   7.971   6.932   4.089
16714WAT     H150384   7.944   6.915   4.184
16714WAT     H250385   7.954   6.850   4.034
16715WAT      O50386   9.853   8.104   8.813
16715WAT     H150387   9.796   8.045   8.870
16715WAT     H250388   9.949   8.074   8.820
16716WAT      O50389   3.629   0.976   8.767
16716WAT     H150390   3.555   1.030   8.807
16716WAT     H250391   3.690   1.037   8.715
16717WAT      O50392   3.836   3.622   1.231
16717WAT     H150393   3.907   3.672   1.279
16717WAT     H250394   3.805   3.545   1.287
16718WAT      O50395   8.682   6.246   9.140
16718WAT     H150396   8.633   6.220   9.223
16718WAT     H250397   8.716   6.340   9.151
16719WAT      O50398   8.146   3.905   4.672
16719WAT     H150399   8.186   3.995   4.654
16719WAT     H250400   8.202   3.834   4.630
16720WAT      O50401   0.196   7.572   4.208
16720WAT     H150402   0.225   7.596   4.116
16720WAT     H250403   0.276   7.564   4.267
16721WAT      O50404   0.596   2.555   1.309
16721WAT     H150405   0.513   2.610   1.313
16721WAT     H250406   0.574   2.460   1.330
16722WAT      O50407   1.744   3.219   4.094
16722WAT     H150408   1.760   3.309   4.052
16722WAT     H250409   1.813   3.154   4.062
16723WAT      O50410   5.510   8.951   5.523
16723WAT     H150411   5.579   8.980   5.457
16723WAT     H250412   5.550   8.886   5.587
16724WAT      O50413   6.187   5.021   0.714
16724WAT     H150414   6.092   5.003   0.688
16724WAT     H250415   6.239   4.936   0.709
16725WAT      O50416   0.027   3.676   8.655
16725WAT     H150417  -0.040   3.649   8.586
16725WAT     H250418   0.010   3.626   8.740
16726WAT      O50419   8.297   7.115   4.379
16726WAT     H150420   8.235   7.193   4.381
16726WAT     H250421   8.291   7.069   4.290
16727WAT      O50422   8.685   3.223   0.360
16727WAT     H150423   8.588   3.211   0.339
16727WAT     H250424   8.704   3.188   0.451
16728WAT      O50425   8.158   1.239   9.318
16728WAT     H150426   8.145   1.252   9.416
16728WAT     H250427   8.255   1.226   9.299
16729WAT      O50428   8.310   5.980   7.084
16729WAT     H150429   8.245   6.013   7.016
16729WAT     H250430   8.387   6.044   7.092
16730WAT      O50431   1.641   0.853   0.445
16730WAT     H150432   1.548   0.872   0.478
16730WAT     H250433   1.674   0.768   0.486
16731WAT      O50434   0.066   5.977   3.381
16731WAT     H150435   0.043   6.032   3.301
16731WAT     H250436  -0.009   5.914   3.401
16732WAT      O50437   9.468   1.143   4.174
16732WAT     H150438   9.448   1.045   4.171
16732WAT     H250439   9.490   1.175   4.082
16733WAT      O50440   9.861   7.762   4.272
16733WAT     H150441   9.956   7.732   4.276
16733WAT     H250442   9.842   7.799   4.180
16734WAT      O50443   1.560   2.359   9.125
16734WAT     H150444   1.616   2.395   9.051
16734WAT     H250445   1.618   2.323   9.198
16735WAT      O50446   1.944   9.272   8.584
16735WAT     H150447   1.883   9.347   8.609
16735WAT     H250448   1.897   9.185   8.598
16736WAT      O50449   8.836   0.309   7.938
16736WAT     H150450   8.765   0.375   7.912
16736WAT     H250451   8.844   0.306   8.037
16737WAT      O50452   5.677   4.945   7.979
16737WAT     H150453   5.602   4.972   7.919
16737WAT     H250454   5.675   4.846   7.993
16738WAT      O50455   9.568   9.772   3.807
16738WAT     H150456   9.641   9.713   3.771
16738WAT     H250457   9.574   9.775   3.907
16739WAT      O50458   6.144   1.338   6.543
16739WAT     H150459   6.148   1.275   6.620
16739WAT     H250460   6.123   1.430   6.576
16740WAT      O50461   8.235   7.041   2.112
16740WAT     H150462   8.296   7.085   2.046
16740WAT     H250463   8.141   7.074   2.098
16741WAT      O50464   2.109   2.455   0.766
16741WAT     H150465   2.096   2.547   0.803
16741WAT     H250466   2.197   2.419   0.796
16742WAT      O50467   7.259   7.572   1.094
16742WAT     H150468   7.251   7.500   1.026
16742WAT     H250469   7.356   7.595   1.107
16743WAT      O50470   6.832   5.128   6.672
16743WAT     H150471   6.742   5.160   6.702
16743WAT     H250472   6.877   5.200   6.619
16744WAT      O50473   0.886   0.932   2.658
16744WAT     H150474   0.828   0.852   2.674
16744WAT     H250475   0.970   0.924   2.712
16745WAT      O50476   1.515   8.077   1.112
16745WAT     H150477   1.457   8.009   1.067
16745WAT     H250478   1.466   8.116   1.190
16746WAT      O50479   4.512   2.533   2.325
16746WAT     H150480   4.500   2.509   2.229
16746WAT     H250481   4.489   2.454   2.383
16747WAT      O50482   0.581   4.987   3.987
16747WAT     H150483   0.539   4.934   4.061
16747WAT     H250484   0.678   4.963   3.979
16748WAT      O50485   0.839   1.435   3.151
16748WAT     H150486   0.812   1.527   3.179
16748WAT     H250487   0.938   1.434   3.135
16749WAT      O50488   7.288   7.973   3.279
16749WAT     H150489   7.380   8.011   3.290
16749WAT     H250490   7.224   8.047   3.254
16750WAT      O50491   8.209   1.212   7.746
16750WAT     H150492   8.116   1.177   7.738
16750WAT     H250493   8.271   1.155   7.692
16751WAT      O50494   6.142   6.370   7.600
16751WAT     H150495   6.156   6.394   7.504
16751WAT     H250496   6.205   6.296   7.626
16752WAT      O50497   7.150   0.055   8.390
16752WAT     H150498   7.191   0.124   8.449
16752WAT     H250499   7.050   0.055   8.402
16753WAT      O50500   4.557   8.425   4.743
16753WAT     H150501   4.639   8.480   4.753
16753WAT     H250502   4.491   8.474   4.686
16754WAT      O50503   8.397   1.823   3.629
16754WAT     H150504   8.332   1.793   3.559
16754WAT     H250505   8.426   1.745   3.683
16755WAT      O50506   6.193   8.288   3.056
16755WAT     H150507   6.253   8.212   3.029
16755WAT     H250508   6.116   8.294   2.993
16756WAT      O50509   1.204   6.310   0.132
16756WAT     H150510   1.166   6.399   0.105
16756WAT     H250511   1.292   6.323   0.176
16757WAT      O50512   7.419   2.953   4.360
16757WAT     H150513   7.484   2.932   4.287
16757WAT     H250514   7.465   2.945   4.449
16758WAT      O50515   2.259   5.275   2.295
16758WAT     H150516   2.325   5.218   2.246
16758WAT     H250517   2.281   5.371   2.281
16759WAT      O50518   7.968   8.609   4.446
16759WAT     H150519   7.892   8.546   4.431
16759WAT     H250520   8.022   8.617   4.362
16760WAT      O50521   4.790   0.855   0.251
16760WAT     H150522   4.809   0.758   0.237
16760WAT     H250523   4.876   0.906   0.253
16761WAT      O50524   0.957   5.675   2.635
16761WAT     H150525   0.947   5.577   2.614
16761WAT     H250526   0.910   5.696   2.721
16762WAT      O50527   5.164   9.590   6.468
16762WAT     H150528   5.195   9.558   6.379
16762WAT     H250529   5.079   9.545   6.493
16763WAT      O50530   1.224   4.412   6.983
16763WAT     H150531   1.278   4.367   6.911
16763WAT     H250532   1.282   4.478   7.031
16764WAT      O50533   9.163   0.787   6.937
16764WAT     H150534   9.142   0.693   6.911
16764WAT     H250535   9.249   0.815   6.894
16765WAT      O50536   8.503   5.148   9.352
16765WAT     H150537   8.534   5.054   9.367
16765WAT     H250538   8.437   5.149   9.276
16766WAT      O50539   4.588   3.971   0.116
16766WAT     H150540   4.677   3.933   0.093
16766WAT     H250541   4.578   3.975   0.216
16767WAT      O50542   3.162   6.377   6.809
16767WAT     H150543   3.230   6.414   6.745
16767WAT     H250544   3.149   6.279   6.790
16768WAT      O50545   3.923   8.964   0.165
16768WAT     H150546   4.017   8.944   0.138
16768WAT     H250547   3.881   9.026   0.099
16769WAT      O50548   1.082   6.969   9.280
16769WAT     H150549   1.168   7.015   9.262
16769WAT     H250550   1.048   6.928   9.195
16770WAT      O50551   7.522   2.640   9.443
16770WAT     H150552   7.550   2.603   9.355
16770WAT     H250553   7.577   2.721   9.464
16771WAT      O50554   7.741   6.223   1.959
16771WAT     H150555   7.724   6.191   2.052
16771WAT     H250556   7.769   6.146   1.902
16772WAT      O50557   3.394   5.094   6.485
16772WAT     H150558   3.410   4.996   6.470
16772WAT     H250559   3.442   5.123   6.567
16773WAT      O50560   0.579   1.381   9.813
16773WAT     H150561   0.560   1.462   9.757
16773WAT     H250562   0.633   1.408   9.892
16774WAT      O50563   3.729   7.317   7.753
16774WAT     H150564   3.734   7.217   7.747
16774WAT     H250565   3.790   7.349   7.825
16775WAT      O50566   1.195   1.125   5.499
16775WAT     H150567   1.131   1.195   5.466
16775WAT     H250568   1.261   1.104   5.427
16776WAT      O50569   9.034   6.995   6.085
16776WAT     H150570   8.970   6.919   6.089
16776WAT     H250571   9.004   7.068   6.146
16777WAT      O50572   2.329   7.607   6.280
16777WAT     H150573   2.417   7.580   6.240
16777WAT     H250574   2.318   7.560   6.368
16778WAT      O50575   4.642   7.840   3.553
16778WAT     H150576   4.687   7.927   3.573
16778WAT     H250577   4.573   7.821   3.623
16779WAT      O50578   9.834   5.669   9.810
16779WAT     H150579   9.910   5.605   9.813
16779WAT     H250580   9.842   5.735   9.885
16780WAT      O50581   3.576   7.546   5.123
16780WAT     H150582   3.550   7.635   5.087
16780WAT     H250583   3.495   7.502   5.164
16781WAT      O50584   6.286   3.164   0.074
16781WAT     H150585   6.260   3.169  -0.022
16781WAT     H250586   6.377   3.123   0.082
16782WAT      O50587   8.770   0.540   5.840
16782WAT     H150588   8.812   0.470   5.782
16782WAT     H250589   8.752   0.623   5.786
16783WAT      O50590   7.832   1.519   5.827
16783WAT     H150591   7.835   1.430   5.873
16783WAT     H250592   7.826   1.592   5.896
16784WAT      O50593   2.429   7.354   5.846
16784WAT     H150594   2.331   7.361   5.827
16784WAT     H250595   2.470   7.445   5.846
16785WAT      O50596   6.488   2.046   9.040
16785WAT     H150597   6.509   1.972   8.977
16785WAT     H250598   6.498   2.134   8.994
16786WAT      O50599   7.473   4.574   0.691
16786WAT     H150600   7.411   4.535   0.623
16786WAT     H250601   7.459   4.673   0.695
16787WAT      O50602   4.721   2.295   1.067
16787WAT     H150603   4.747   2.202   1.042
16787WAT     H250604   4.751   2.358   0.995
16788WAT      O50605   1.246   3.550   6.297
16788WAT     H150606   1.288   3.556   6.206
16788WAT     H250607   1.262   3.635   6.347
16789WAT      O50608   6.491   3.807   0.952
16789WAT     H150609   6.466   3.870   0.879
16789WAT     H250610   6.408   3.771   0.995
16790WAT      O50611   1.157   6.236   2.827
16790WAT     H150612   1.162   6.316   2.888
16790WAT     H250613   1.159   6.152   2.881
16791WAT      O50614   4.259   3.001   0.096
16791WAT     H150615   4.251   2.903   0.115
16791WAT     H250616   4.207   3.024   0.014
16792WAT      O50617   1.237   7.895   2.468
16792WAT     H150618   1.163   7.950   2.505
16792WAT     H250619   1.266   7.828   2.537
16793WAT      O50620   1.269   9.073   3.253
16793WAT     H150621   1.352   9.120   3.280
16793WAT     H250622   1.191   9.113   3.302
16794WAT      O50623   7.954   8.409   1.710
16794WAT     H150624   8.010   8.430   1.790
16794WAT     H250625   7.997   8.335   1.658
16795WAT      O50626   1.881   2.152   9.079
16795WAT     H150627   1.851   2.081   9.015
16795WAT     H250628   1.829   2.236   9.061
16796WAT      O50629   6.356   7.581   6.852
16796WAT     H150630   6.347   7.656   6.918
16796WAT     H250631   6.317   7.497   6.892
16797WAT      O50632   4.291   1.690   9.428
16797WAT     H150633   4.337   1.606   9.461
16797WAT     H250634   4.196   1.669   9.408
16798WAT      O50635   6.651   5.269   8.261
16798WAT     H150636   6.672   5.277   8.163
16798WAT     H250637   6.559   5.303   8.278
16799WAT      O50638   5.260   0.700   2.287
16799WAT     H150639   5.246   0.708   2.386
16799WAT     H250640   5.355   0.723   2.265
16800WAT      O50641   6.851   9.618   8.416
16800WAT     H150642   6.812   9.552   8.352
16800WAT     H250643   6.878   9.700   8.366
16801WAT      O50644   1.114   0.758   6.000
16801WAT     H150645   1.079   0.684   5.943
16801WAT     H250646   1.174   0.816   5.946
16802WAT      O50647   8.949   2.041   0.044
16802WAT     H150648   9.016   2.095   0.094
16802WAT     H250649   8.858   2.080   0.056
16803WAT      O50650   9.673   6.101   3.719
16803WAT     H150651   9.679   6.124   3.622
16803WAT     H250652   9.679   6.185   3.773
16804WAT      O50653   9.188   8.383   7.815
16804WAT     H150654   9.171   8.295   7.770
16804WAT     H250655   9.274   8.422   7.780
16805WAT      O50656   0.401   8.896   9.074
16805WAT     H150657   0.449   8.984   9.077
16805WAT     H250658   0.424   8.849   8.989
16806WAT      O50659   1.572   2.023   9.065
16806WAT     H150660   1.519   2.097   9.024
16806WAT     H250661   1.571   1.944   9.004
16807WAT      O50662   4.491   8.944   1.790
16807WAT     H150663   4.485   8.909   1.884
16807WAT     H250664   4.399   8.958   1.754
16808WAT      O50665   4.889   1.124   7.360
16808WAT     H150666   4.915   1.031   7.334
16808WAT     H250667   4.934   1.149   7.446
16809WAT      O50668   1.460   6.247   4.684
16809WAT     H150669   1.546   6.282   4.722
16809WAT     H250670   1.475   6.217   4.590
16810WAT      O50671   3.394   9.514   2.186
16810WAT     H150672   3.393   9.442   2.256
16810WAT     H250673   3.469   9.497   2.123
16811WAT      O50674   8.877   9.763   5.461
16811WAT     H150675   8.843   9.857   5.462
16811WAT     H250676   8.967   9.760   5.505
16812WAT      O50677   8.584   8.933   1.235
16812WAT     H150678   8.497   8.893   1.208
16812WAT     H250679   8.610   9.004   1.169
16813WAT      O50680   6.224   4.946   3.615
16813WAT     H150681   6.204   5.035   3.655
16813WAT     H250682   6.139   4.894   3.606
16814WAT      O50683   1.037   8.873   0.253
16814WAT     H150684   1.088   8.906   0.174
16814WAT     H250685   0.959   8.933   0.271
16815WAT      O50686   1.359   4.287   2.308
16815WAT     H150687   1.421   4.337   2.370
16815WAT     H250688   1.399   4.198   2.286
16816WAT      O50689   3.317   4.702   5.740
16816WAT     H150690   3.347   4.778   5.799
16816WAT     H250691   3.397   4.653   5.707
16817WAT      O50692   8.546   1.393   8.988
16817WAT     H150693   8.515   1.300   8.969
16817WAT     H250694   8.508   1.455   8.919
16818WAT      O50695   3.792   1.617   1.926
16818WAT     H150696   3.805   1.555   2.003
16818WAT     H250697   3.881   1.636   1.884
16819WAT      O50698   3.375   3.617   3.336
16819WAT     H150699   3.386   3.660   3.425
16819WAT     H250700   3.428   3.533   3.332
16820WAT      O50701   6.994   9.579   3.244
16820WAT     H150702   6.935   9.603   3.320
16820WAT     H250703   7.070   9.523   3.276
16821WAT      O50704   3.834   8.086   1.539
16821WAT     H150705   3.760   8.032   1.500
16821WAT     H250706   3.907   8.096   1.472
16822WAT      O50707   8.196   0.472   2.954
16822WAT     H150708   8.101   0.501   2.937
16822WAT     H250709   8.218   0.396   2.894
16823WAT      O50710   7.871   3.138   5.917
16823WAT     H150711   7.914   3.095   5.838
16823WAT     H250712   7.776   3.159   5.897
16824WAT      O50713   2.921   5.324   0.271
16824WAT     H150714   2.923   5.225   0.259
16824WAT     H250715   2.883   5.366   0.189
16825WAT      O50716   7.539   1.101   2.212
16825WAT     H150717   7.597   1.171   2.168
16825WAT     H250718   7.591   1.016   2.221
16826WAT      O50719   5.398   6.155   3.196
16826WAT     H150720   5.497   6.159   3.193
16826WAT     H250721   5.367   6.064   3.167
16827WAT      O50722   6.268   8.000   0.817
16827WAT     H150723   6.199   7.943   0.773
16827WAT     H250724   6.335   7.942   0.864
16828WAT      O50725   0.770   5.982   8.545
16828WAT     H150726   0.857   5.951   8.582
16828WAT     H250727   0.716   5.903   8.515
16829WAT      O50728   8.431   7.854   1.589
16829WAT     H150729   8.399   7.840   1.683
16829WAT     H250730   8.425   7.951   1.566
16830WAT      O50731   8.120   5.003   1.933
16830WAT     H150732   8.177   4.921   1.930
16830WAT     H250733   8.154   5.071   1.868
16831WAT      O50734   6.516   1.086   6.342
16831WAT     H150735   6.432   1.057   6.388
16831WAT     H250736   6.544   1.016   6.277
16832WAT      O50737   1.789   2.091   1.888
16832WAT     H150738   1.861   2.055   1.946
16832WAT     H250739   1.829   2.151   1.818
16833WAT      O50740   3.321   1.674   2.158
16833WAT     H150741   3.416   1.696   2.181
16833WAT     H250742   3.271   1.758   2.138
16834WAT      O50743   8.095   7.960   8.102
16834WAT     H150744   8.092   8.014   8.186
16834WAT     H250745   8.147   7.876   8.118
16835WAT      O50746   1.243   2.415   8.091
16835WAT     H150747   1.237   2.321   8.058
16835WAT     H250748   1.295   2.417   8.177
16836WAT      O50749   4.264   1.683   3.067
16836WAT     H150750   4.335   1.728   3.121
16836WAT     H250751   4.187   1.658   3.126
16837WAT      O50752   1.066   9.184   9.764
16837WAT     H150753   1.102   9.255   9.826
16837WAT     H250754   0.966   9.183   9.770
16838WAT      O50755   0.383   2.298   6.668
16838WAT     H150756   0.338   2.209   6.677
16838WAT     H250757   0.389   2.341   6.758
16839WAT      O50758   6.812   8.732   0.057
16839WAT     H150759   6.726   8.685   0.042
16839WAT     H250760   6.798   8.809   0.121
16840WAT      O50761   5.282   3.592   2.775
16840WAT     H150762   5.320   3.593   2.682
16840WAT     H250763   5.205   3.527   2.779
16841WAT      O50764   2.049   1.933   8.727
16841WAT     H150765   2.136   1.950   8.773
16841WAT     H250766   2.046   1.987   8.642
16842WAT      O50767   0.503   1.902   7.780
16842WAT     H150768   0.528   1.954   7.862
16842WAT     H250769   0.536   1.808   7.789
16843WAT      O50770   4.093   7.155   4.888
16843WAT     H150771   4.130   7.239   4.847
16843WAT     H250772   4.103   7.079   4.824
16844WAT      O50773   0.822   4.652   7.423
16844WAT     H150774   0.885   4.606   7.360
16844WAT     H250775   0.731   4.612   7.414
16845WAT      O50776   6.815   9.648   3.470
16845WAT     H150777   6.726   9.689   3.493
16845WAT     H250778   6.883   9.676   3.538
16846WAT      O50779   0.742   7.633   1.776
16846WAT     H150780   0.807   7.680   1.836
16846WAT     H250781   0.649   7.658   1.802
16847WAT      O50782   7.435   0.526   5.913
16847WAT     H150783   7.416   0.594   5.983
16847WAT     H250784   7.489   0.567   5.840
16848WAT      O50785   7.334   9.496   4.730
16848WAT     H150786   7.389   9.554   4.791
16848WAT     H250787   7.292   9.423   4.784
16849WAT      O50788   0.532   3.307   0.130
16849WAT     H150789   0.505   3.319   0.035
16849WAT     H250790   0.610   3.244   0.135
16850WAT      O50791   8.277   7.573   7.410
16850WAT     H150792   8.281   7.654   7.469
16850WAT     H250793   8.226   7.594   7.327
16851WAT      O50794   5.509   9.243   2.549
16851WAT     H150795   5.607   9.244   2.568
16851WAT     H250796   5.464   9.179   2.612
16852WAT      O50797   6.712   2.576   5.140
16852WAT     H150798   6.634   2.535   5.186
16852WAT     H250799   6.791   2.515   5.146
16853WAT      O50800   1.748   9.407   7.274
16853WAT     H150801   1.709   9.445   7.190
16853WAT     H250802   1.789   9.318   7.254
16854WAT      O50803   6.489   6.219   9.755
16854WAT     H150804   6.585   6.201   9.731
16854WAT     H250805   6.439   6.133   9.758
16855WAT      O50806   4.192   0.991   0.859
16855WAT     H150807   4.235   1.052   0.792
16855WAT     H250808   4.227   0.898   0.846
16856WAT      O50809   7.777   3.032   5.300
16856WAT     H150810   7.690   2.989   5.323
16856WAT     H250811   7.785   3.119   5.349
16857WAT      O50812   1.304   0.046   7.802
16857WAT     H150813   1.299   0.134   7.848
16857WAT     H250814   1.399   0.019   7.791
16858WAT      O50815   1.015   8.699   6.458
16858WAT     H150816   1.023   8.788   6.414
16858WAT     H250817   0.919   8.679   6.476
16859WAT      O50818   2.569   4.675   3.184
16859WAT     H150819   2.565   4.765   3.140
16859WAT     H250820   2.639   4.675   3.255
16860WAT      O50821   4.518   1.306   2.971
16860WAT     H150822   4.523   1.212   3.007
16860WAT     H250823   4.585   1.317   2.897
16861WAT      O50824   3.404   4.156   5.988
16861WAT     H150825   3.343   4.152   6.067
16861WAT     H250826   3.369   4.223   5.923
16862WAT      O50827   8.725   7.715   4.830
16862WAT     H150828   8.627   7.712   4.852
16862WAT     H250829   8.739   7.777   4.753
16863WAT      O50830   2.754   7.403   6.012
16863WAT     H150831   2.831   7.375   5.955
16863WAT     H250832   2.719   7.325   6.064
16864WAT      O50833   8.572   2.395   5.922
16864WAT     H150834   8.605   2.305   5.894
16864WAT     H250835   8.649   2.457   5.933
16865WAT      O50836   4.980   3.405   3.358
16865WAT     H150837   4.928   3.334   3.405
16865WAT     H250838   4.921   3.450   3.291
16866WAT      O50839   9.523   7.278   4.821
16866WAT     H150840   9.514   7.202   4.756
16866WAT     H250841   9.433   7.300   4.859
16867WAT      O50842   0.650   4.568   9.331
16867WAT     H150843   0.674   4.513   9.411
16867WAT     H250844   0.556   4.549   9.305
16868WAT      O50845   1.774   4.148   3.505
16868WAT     H150846   1.767   4.192   3.415
16868WAT     H250847   1.852   4.184   3.555
16869WAT      O50848   6.253   3.063   9.022
16869WAT     H150849   6.233   3.040   8.927
16869WAT     H250850   6.188   3.016   9.082
16870WAT      O50851   9.824   4.950   5.773
16870WAT     H150852   9.777   4.926   5.857
16870WAT     H250853   9.781   4.904   5.695
16871WAT      O50854   2.138   1.388   3.282
16871WAT     H150855   2.127   1.296   3.246
16871WAT     H250856   2.114   1.455   3.212
16872WAT      O50857   1.053   0.670   3.737
16872WAT     H150858   1.088   0.593   3.789
16872WAT     H250859   0.976   0.712   3.786
16873WAT      O50860   1.820   3.751   9.040
16873WAT     H150861   1.811   3.697   9.124
16873WAT     H250862   1.830   3.689   8.962
16874WAT      O50863   3.181   0.072   5.980
16874WAT     H150864   3.099   0.118   5.947
16874WAT     H250865   3.235   0.136   6.035
16875WAT      O50866   7.833   0.352   1.177
16875WAT     H150867   7.898   0.277   1.166
16875WAT     H250868   7.796   0.351   1.270
16876WAT      O50869   8.855   6.975   1.490
16876WAT     H150870   8.886   7.059   1.535
16876WAT     H250871   8.770   6.992   1.441
16877WAT      O50872   3.989   4.604   1.069
16877WAT     H150873   4.017   4.698   1.054
16877WAT     H250874   4.056   4.542   1.028
16878WAT      O50875   4.827   0.809   4.694
16878WAT     H150876   4.772   0.813   4.777
16878WAT     H250877   4.920   0.779   4.718
16879WAT      O50878   7.812   2.707   5.668
16879WAT     H150879   7.738   2.641   5.671
16879WAT     H250880   7.858   2.710   5.757
16880WAT      O50881   6.972   1.327   1.309
16880WAT     H150882   6.901   1.272   1.352
16880WAT     H250883   7.034   1.267   1.258
16881WAT      O50884   7.362   1.863   7.818
16881WAT     H150885   7.320   1.888   7.730
16881WAT     H250886   7.306   1.794   7.863
16882WAT      O50887   9.332   2.352   2.132
16882WAT     H150888   9.290   2.392   2.051
16882WAT     H250889   9.363   2.425   2.193
16883WAT      O50890   2.032   8.286   2.247
16883WAT     H150891   2.122   8.272   2.207
16883WAT     H250892   2.020   8.224   2.325
16884WAT      O50893   5.744   7.064   6.241
16884WAT     H150894   5.829   7.034   6.284
16884WAT     H250895   5.682   6.986   6.233
16885WAT      O50896   8.071   1.683   2.794
16885WAT     H150897   8.084   1.782   2.803
16885WAT     H250898   8.009   1.664   2.718
16886WAT      O50899   0.141   5.344   4.933
16886WAT     H150900   0.085   5.398   4.996
16886WAT     H250901   0.140   5.248   4.961
16887WAT      O50902   5.845   2.119   7.818
16887WAT     H150903   5.846   2.022   7.842
16887WAT     H250904   5.867   2.174   7.899
16888WAT      O50905   5.013   4.417   7.829
16888WAT     H150906   5.047   4.508   7.850
16888WAT     H250907   5.063   4.381   7.750
16889WAT      O50908   1.226   5.253   7.085
16889WAT     H150909   1.274   5.332   7.046
16889WAT     H250910   1.169   5.211   7.015
16890WAT      O50911   3.481   1.439   0.676
16890WAT     H150912   3.441   1.471   0.762
16890WAT     H250913   3.462   1.342   0.664
16891WAT      O50914   9.331   4.157   8.460
16891WAT     H150915   9.284   4.080   8.416
16891WAT     H250916   9.263   4.221   8.495
16892WAT      O50917   9.192   4.473   4.086
16892WAT     H150918   9.290   4.460   4.102
16892WAT     H250919   9.147   4.384   4.079
16893WAT      O50920   2.943   7.814   2.659
16893WAT     H150921   2.850   7.812   2.696
16893WAT     H250922   3.008   7.826   2.734
16894WAT      O50923   2.002   2.920   1.027
16894WAT     H150924   1.988   2.941   1.124
16894WAT     H250925   1.964   2.994   0.972
16895WAT      O50926   6.985   2.150   5.988
16895WAT     H150927   6.899   2.183   6.027
16895WAT     H250928   6.966   2.077   5.922
16896WAT      O50929   9.386   8.169   5.737
16896WAT     H150930   9.292   8.180   5.769
16896WAT     H250931   9.444   8.237   5.781
16897WAT      O50932   5.822   0.884   4.334
16897WAT     H150933   5.819   0.984   4.331
16897WAT     H250934   5.864   0.849   4.250
16898WAT      O50935   1.599   4.767   1.822
16898WAT     H150936   1.671   4.766   1.891
16898WAT     H250937   1.624   4.707   1.746
16899WAT      O50938   7.823   4.413   8.346
16899WAT     H150939   7.791   4.486   8.287
16899WAT     H250940   7.919   4.393   8.326
16900WAT      O50941   2.631   4.694   8.817
16900WAT     H150942   2.718   4.727   8.780
16900WAT     H250943   2.557   4.722   8.756
16901WAT      O50944   3.823   2.919   3.109
16901WAT     H150945   3.849   3.015   3.098
16901WAT     H250946   3.762   2.909   3.187
16902WAT      O50947   8.049   3.948   8.427
16902WAT     H150948   8.052   3.987   8.519
16902WAT     H250949   7.962   3.902   8.413
16903WAT      O50950   0.357   5.964   2.042
16903WAT     H150951   0.290   5.926   1.979
16903WAT     H250952   0.404   6.040   1.998
16904WAT      O50953   8.006   7.863   7.293
16904WAT     H150954   8.000   7.768   7.322
16904WAT     H250955   7.971   7.923   7.365
16905WAT      O50956   8.563   3.732   6.162
16905WAT     H150957   8.615   3.783   6.230
16905WAT     H250958   8.622   3.664   6.119
16906WAT      O50959   8.326   8.933   8.419
16906WAT     H150960   8.341   9.028   8.449
16906WAT     H250961   8.232   8.906   8.438
16907WAT      O50962   4.553   8.849   5.518
16907WAT     H150963   4.500   8.787   5.577
16907WAT     H250964   4.631   8.885   5.569
16908WAT      O50965   1.141   9.587   5.711
16908WAT     H150966   1.170   9.681   5.695
16908WAT     H250967   1.207   9.524   5.670
16909WAT      O50968   0.855   7.397   0.383
16909WAT     H150969   0.920   7.473   0.383
16909WAT     H250970   0.779   7.419   0.444
16910WAT      O50971   1.498   6.181   0.930
16910WAT     H150972   1.493   6.114   1.004
16910WAT     H250973   1.576   6.159   0.871
16911WAT      O50974   3.548   0.066   4.775
16911WAT     H150975   3.560  -0.009   4.840
16911WAT     H250976   3.556   0.153   4.823
16912WAT      O50977   7.331   4.033   3.432
16912WAT     H150978   7.314   3.981   3.348
16912WAT     H250979   7.363   4.125   3.409
16913WAT      O50980   2.772   7.207   9.072
16913WAT     H150981   2.832   7.130   9.095
16913WAT     H250982   2.828   7.284   9.041
16914WAT      O50983   6.179   8.889   6.558
16914WAT     H150984   6.216   8.813   6.505
16914WAT     H250985   6.112   8.939   6.502
16915WAT      O50986   3.425   0.785   6.391
16915WAT     H150987   3.471   0.697   6.393
16915WAT     H250988   3.344   0.782   6.450
16916WAT      O50989   9.613   1.016   8.907
16916WAT     H150990   9.696   0.989   8.860
16916WAT     H250991   9.608   1.115   8.913
16917WAT      O50992   2.469   8.663   2.328
16917WAT     H150993   2.478   8.719   2.410
16917WAT     H250994   2.388   8.605   2.336
16918WAT      O50995   8.795   7.573   0.224
16918WAT     H150996   8.806   7.489   0.170
16918WAT     H250997   8.734   7.636   0.177
16919WAT      O50998   4.134   6.332   6.970
16919WAT     H150999   4.093   6.415   7.007
16919WAT     H251000   4.220   6.355   6.925
16920WAT      O51001   5.191   5.956   3.633
16920WAT     H151002   5.219   5.882   3.694
16920WAT     H251003   5.271   5.997   3.591
16921WAT      O51004   1.380   2.581   7.927
16921WAT     H151005   1.311   2.528   7.976
16921WAT     H251006   1.372   2.565   7.829
16922WAT      O51007   3.472   6.026   8.277
16922WAT     H151008   3.499   6.122   8.265
16922WAT     H251009   3.396   6.006   8.215
16923WAT      O51010   3.867   1.242   7.835
16923WAT     H151011   3.817   1.179   7.775
16923WAT     H251012   3.961   1.250   7.804
16924WAT      O51013   6.418   9.749   2.990
16924WAT     H151014   6.370   9.758   2.903
16924WAT     H251015   6.356   9.772   3.065
16925WAT      O51016   4.644   7.973   1.261
16925WAT     H151017   4.596   8.060   1.258
16925WAT     H251018   4.613   7.919   1.339
16926WAT      O51019   8.271   2.318   5.020
16926WAT     H151020   8.236   2.388   4.958
16926WAT     H251021   8.359   2.348   5.057
16927WAT      O51022   8.551   8.093   2.193
16927WAT     H151023   8.451   8.090   2.195
16927WAT     H251024   8.586   8.015   2.141
16928WAT      O51025   7.061   6.501   4.401
16928WAT     H151026   7.009   6.560   4.463
16928WAT     H251027   7.069   6.545   4.312
16929WAT      O51028   5.510   5.722   8.467
16929WAT     H151029   5.517   5.691   8.562
16929WAT     H251030   5.514   5.643   8.406
16930WAT      O51031   7.216   2.946   2.109
16930WAT     H151032   7.146   3.017   2.117
16930WAT     H251033   7.230   2.902   2.198
16931WAT      O51034   8.449   6.436   5.363
16931WAT     H151035   8.461   6.524   5.317
16931WAT     H251036   8.361   6.396   5.335
16932WAT      O51037   7.448   3.215   9.759
16932WAT     H151038   7.535   3.179   9.794
16932WAT     H251039   7.387   3.234   9.835
16933WAT      O51040   9.287   6.659   7.851
16933WAT     H151041   9.260   6.571   7.889
16933WAT     H251042   9.206   6.706   7.815
16934WAT      O51043   1.592   6.996   4.205
16934WAT     H151044   1.626   6.921   4.147
16934WAT     H251045   1.662   7.067   4.211
16935WAT      O51046   1.158   9.791   6.967
16935WAT     H151047   1.174   9.735   7.049
16935WAT     H251048   1.197   9.882   6.981
16936WAT      O51049   8.750   6.329   1.398
16936WAT     H151050   8.770   6.235   1.370
16936WAT     H251051   8.751   6.335   1.498
16937WAT      O51052   1.818   0.146   1.934
16937WAT     H151053   1.908   0.101   1.939
16937WAT     H251054   1.775   0.123   1.847
16938WAT      O51055   7.776   5.896   9.518
16938WAT     H151056   7.755   5.846   9.434
16938WAT     H251057   7.828   5.978   9.496
16939WAT      O51058   6.137   1.479   0.060
16939WAT     H151059   6.215   1.506   0.003
16939WAT     H251060   6.108   1.387   0.034
16940WAT      O51061   5.486   8.506   0.699
16940WAT     H151062   5.543   8.463   0.768
16940WAT     H251063   5.527   8.494   0.609
16941WAT      O51064   3.526   4.554   2.007
16941WAT     H151065   3.612   4.605   2.017
16941WAT     H251066   3.460   4.585   2.076
16942WAT      O51067   3.193   2.396   5.982
16942WAT     H151068   3.185   2.445   5.894
16942WAT     H251069   3.214   2.300   5.964
16943WAT      O51070   8.036   8.658   2.548
16943WAT     H151071   8.056   8.747   2.588
16943WAT     H251072   8.014   8.593   2.621
16944WAT      O51073   3.143   6.830   0.382
16944WAT     H151074   3.164   6.751   0.440
16944WAT     H251075   3.045   6.848   0.384
16945WAT      O51076   3.438   2.191   6.975
16945WAT     H151077   3.414   2.207   7.070
16945WAT     H251078   3.423   2.095   6.951
16946WAT      O51079   6.880   8.223   4.920
16946WAT     H151080   6.782   8.209   4.938
16946WAT     H251081   6.893   8.244   4.823
16947WAT      O51082   4.728   8.389   0.977
16947WAT     H151083   4.803   8.405   0.913
16947WAT     H251084   4.650   8.446   0.952
16948WAT      O51085   8.714   9.277   7.720
16948WAT     H151086   8.680   9.367   7.692
16948WAT     H251087   8.803   9.260   7.678
16949WAT      O51088   4.016   8.967   4.893
16949WAT     H151089   3.920   8.950   4.871
16949WAT     H251090   4.048   9.047   4.841
16950WAT      O51091   3.706   6.009   7.780
16950WAT     H151092   3.679   6.016   7.876
16950WAT     H251093   3.624   5.993   7.724
16951WAT      O51094   4.494   6.273   8.308
16951WAT     H151095   4.448   6.270   8.397
16951WAT     H251096   4.494   6.182   8.267
16952WAT      O51097   0.314   2.124   5.895
16952WAT     H151098   0.322   2.092   5.989
16952WAT     H251099   0.276   2.217   5.895
16953WAT      O51100   7.246   1.509   6.897
16953WAT     H151101   7.294   1.463   6.972
16953WAT     H251102   7.191   1.442   6.847
16954WAT      O51103   5.798   0.930   6.143
16954WAT     H151104   5.821   0.884   6.057
16954WAT     H251105   5.827   1.025   6.139
16955WAT      O51106   4.277   6.610   0.274
16955WAT     H151107   4.375   6.599   0.258
16955WAT     H251108   4.242   6.531   0.324
16956WAT      O51109   1.748   5.170   9.839
16956WAT     H151110   1.676   5.128   9.783
16956WAT     H251111   1.764   5.264   9.807
16957WAT      O51112   6.892   2.066   0.765
16957WAT     H151113   6.935   2.146   0.807
16957WAT     H251114   6.797   2.087   0.744
16958WAT      O51115   1.625   7.760   3.524
16958WAT     H151116   1.664   7.773   3.432
16958WAT     H251117   1.537   7.807   3.529
16959WAT      O51118   2.385   7.272   3.711
16959WAT     H151119   2.300   7.270   3.658
16959WAT     H251120   2.461   7.292   3.649
16960WAT      O51121   3.196   2.119   5.853
16960WAT     H151122   3.175   2.152   5.761
16960WAT     H251123   3.193   2.019   5.854
16961WAT      O51124   4.880   1.865   7.561
16961WAT     H151125   4.897   1.857   7.463
16961WAT     H251126   4.868   1.962   7.585
16962WAT      O51127   9.126   3.624   0.079
16962WAT     H151128   9.099   3.534   0.046
16962WAT     H251129   9.177   3.615   0.164
16963WAT      O51130   9.528   7.696   9.270
16963WAT     H151131   9.574   7.774   9.229
16963WAT     H251132   9.580   7.613   9.252
16964WAT      O51133   5.323   4.805   3.998
16964WAT     H151134   5.339   4.902   3.977
16964WAT     H251135   5.297   4.795   4.094
16965WAT      O51136   9.432   2.762   7.201
16965WAT     H151137   9.505   2.757   7.134
16965WAT     H251138   9.442   2.844   7.257
16966WAT      O51139   7.909   8.026   9.744
16966WAT     H151140   7.933   8.123   9.742
16966WAT     H251141   7.881   8.001   9.837
16967WAT      O51142   5.320   2.869   0.553
16967WAT     H151143   5.255   2.831   0.619
16967WAT     H251144   5.279   2.950   0.509
16968WAT      O51145   3.701   2.376   2.267
16968WAT     H151146   3.784   2.423   2.236
16968WAT     H251147   3.647   2.438   2.323
16969WAT      O51148   4.002   0.472   0.720
16969WAT     H151149   4.099   0.451   0.709
16969WAT     H251150   3.973   0.533   0.647
16970WAT      O51151   7.652   5.297   1.229
16970WAT     H151152   7.604   5.266   1.148
16970WAT     H251153   7.645   5.397   1.236
16971WAT      O51154   8.674   8.575   5.464
16971WAT     H151155   8.709   8.611   5.551
16971WAT     H251156   8.685   8.476   5.463
16972WAT      O51157   3.886   9.694   4.598
16972WAT     H151158   3.975   9.669   4.560
16972WAT     H251159   3.857   9.625   4.664
16973WAT      O51160   9.547   4.919   8.791
16973WAT     H151161   9.606   4.998   8.772
16973WAT     H251162   9.458   4.934   8.748
16974WAT      O51163   1.274   8.612   6.480
16974WAT     H151164   1.296   8.515   6.469
16974WAT     H251165   1.175   8.626   6.467
16975WAT      O51166   1.474   6.187   6.667
16975WAT     H151167   1.496   6.169   6.762
16975WAT     H251168   1.535   6.134   6.607
16976WAT      O51169   4.412   4.669   2.028
16976WAT     H151170   4.487   4.649   1.965
16976WAT     H251171   4.444   4.728   2.101
16977WAT      O51172   8.911   5.856   5.074
16977WAT     H151173   8.967   5.907   5.140
16977WAT     H251174   8.924   5.894   4.983
16978WAT      O51175   9.879   4.079   8.269
16978WAT     H151176   9.845   4.006   8.329
16978WAT     H251177   9.965   4.050   8.226
16979WAT      O51178   4.597   0.430   5.935
16979WAT     H151179   4.683   0.407   5.890
16979WAT     H251180   4.613   0.442   6.034
16980WAT      O51181   1.625   0.509   8.021
16980WAT     H151182   1.623   0.579   7.949
16980WAT     H251183   1.542   0.516   8.076
16981WAT      O51184   2.395   1.542   0.281
16981WAT     H151185   2.327   1.519   0.350
16981WAT     H251186   2.483   1.558   0.325
16982WAT      O51187   2.286   5.641   1.333
16982WAT     H151188   2.265   5.543   1.341
16982WAT     H251189   2.349   5.656   1.257
16983WAT      O51190   2.983   2.181   9.851
16983WAT     H151191   2.944   2.129   9.774
16983WAT     H251192   3.056   2.128   9.893
16984WAT      O51193   7.817   5.489   7.436
16984WAT     H151194   7.767   5.418   7.486
16984WAT     H251195   7.780   5.579   7.463
16985WAT      O51196   2.948   5.525   1.180
16985WAT     H151197   2.936   5.432   1.145
16985WAT     H251198   2.874   5.583   1.147
16986WAT      O51199   8.616   5.450   5.139
16986WAT     H151200   8.716   5.442   5.145
16986WAT     H251201   8.574   5.362   5.162
16987WAT      O51202   4.828   0.490   8.284
16987WAT     H151203   4.734   0.523   8.278
16987WAT     H251204   4.886   0.562   8.323
16988WAT      O51205   3.310   9.818   2.726
16988WAT     H151206   3.392   9.808   2.783
16988WAT     H251207   3.304   9.740   2.663
16989WAT      O51208   3.207   7.560   0.218
16989WAT     H151209   3.156   7.643   0.243
16989WAT     H251210   3.162   7.516   0.140
16990WAT      O51211   0.450   7.244   4.609
16990WAT     H151212   0.514   7.218   4.681
16990WAT     H251213   0.467   7.339   4.582
16991WAT      O51214   4.674   9.187   1.628
16991WAT     H151215   4.613   9.255   1.669
16991WAT     H251216   4.633   9.096   1.638
16992WAT      O51217   8.301   4.125   4.560
16992WAT     H151218   8.224   4.181   4.589
16992WAT     H251219   8.386   4.175   4.576
16993WAT      O51220   0.056   2.976   8.994
16993WAT     H151221   0.058   2.877   9.014
16993WAT     H251222   0.045   3.026   9.079
16994WAT      O51223   6.732   0.511   9.710
16994WAT     H151224   6.638   0.542   9.699
16994WAT     H251225   6.783   0.577   9.766
16995WAT      O51226   9.115   5.358   9.437
16995WAT     H151227   9.112   5.325   9.343
16995WAT     H251228   9.075   5.289   9.498
16996WAT      O51229   9.705   8.891   1.064
16996WAT     H151230   9.688   8.968   1.125
16996WAT     H251231   9.621   8.838   1.053
16997WAT      O51232   2.287   9.424   6.884
16997WAT     H151233   2.315   9.347   6.827
16997WAT     H251234   2.357   9.443   6.953
16998WAT      O51235   8.768   0.411   8.961
16998WAT     H151236   8.795   0.506   8.948
16998WAT     H251237   8.849   0.354   8.971
16999WAT      O51238   5.475   1.702   8.397
16999WAT     H151239   5.505   1.759   8.473
16999WAT     H251240   5.402   1.748   8.346
17000WAT      O51241   9.736   4.440   3.301
17000WAT     H151242   9.675   4.481   3.369
17000WAT     H251243   9.753   4.505   3.228
17001WAT      O51244   3.144   1.057   6.731
17001WAT     H151245   3.210   1.113   6.681
17001WAT     H251246   3.136   0.968   6.688
17002WAT      O51247   9.150   0.648   6.260
17002WAT     H151248   9.073   0.711   6.264
17002WAT     H251249   9.129   0.565   6.311
17003WAT      O51250   2.759   0.763   3.263
17003WAT     H151251   2.770   0.720   3.353
17003WAT     H251252   2.725   0.856   3.275
17004WAT      O51253   1.903   2.649   7.690
17004WAT     H151254   1.924   2.747   7.687
17004WAT     H251255   1.837   2.631   7.763
17005WAT      O51256   0.372   7.966   8.399
17005WAT     H151257   0.390   7.979   8.496
17005WAT     H251258   0.334   7.875   8.383
17006WAT      O51259   4.428   9.080   6.957
17006WAT     H151260   4.402   9.157   6.899
17006WAT     H251261   4.443   8.999   6.900
17007WAT      O51262   2.217   5.588   0.745
17007WAT     H151263   2.152   5.567   0.672
17007WAT     H251264   2.256   5.679   0.730
17008WAT      O51265   4.905   6.826   6.241
17008WAT     H151266   4.926   6.915   6.200
17008WAT     H251267   4.829   6.784   6.190
17009WAT      O51268   5.801   0.391   0.116
17009WAT     H151269   5.862   0.325   0.071
17009WAT     H251270   5.855   0.466   0.153
17010WAT      O51271   2.181   2.466   4.276
17010WAT     H151272   2.169   2.450   4.374
17010WAT     H251273   2.129   2.547   4.249
17011WAT      O51274   6.647   6.721   8.564
17011WAT     H151275   6.601   6.756   8.646
17011WAT     H251276   6.736   6.766   8.554
17012WAT      O51277   5.578   4.655   7.734
17012WAT     H151278   5.595   4.726   7.666
17012WAT     H251279   5.485   4.664   7.769
17013WAT      O51280   0.388   8.138   7.881
17013WAT     H151281   0.422   8.133   7.975
17013WAT     H251282   0.464   8.125   7.817
17014WAT      O51283   0.096   7.634   8.047
17014WAT     H151284   0.014   7.674   8.088
17014WAT     H251285   0.158   7.707   8.020
17015WAT      O51286   5.746   3.181   2.920
17015WAT     H151287   5.795   3.099   2.892
17015WAT     H251288   5.716   3.172   3.015
17016WAT      O51289   2.134   2.479   2.327
17016WAT     H151290   2.185   2.504   2.409
17016WAT     H251291   2.134   2.380   2.316
17017WAT      O51292   6.995   3.046   5.102
17017WAT     H151293   7.019   2.962   5.150
17017WAT     H251294   6.909   3.033   5.053
17018WAT      O51295   6.661   0.124   0.498
17018WAT     H151296   6.721   0.103   0.575
17018WAT     H251297   6.673   0.220   0.473
17019WAT      O51298   4.010   4.489   8.780
17019WAT     H151299   3.996   4.395   8.750
17019WAT     H251300   4.104   4.501   8.811
17020WAT      O51301   1.761   5.031   9.258
17020WAT     H151302   1.801   5.041   9.349
17020WAT     H251303   1.753   4.934   9.236
17021WAT      O51304   3.396   1.626   3.638
17021WAT     H151305   3.403   1.590   3.731
17021WAT     H251306   3.426   1.722   3.638
17022WAT      O51307   9.269   1.518   7.217
17022WAT     H151308   9.250   1.435   7.165
17022WAT     H251309   9.212   1.520   7.299
17023WAT      O51310   7.424   6.018   1.200
17023WAT     H151311   7.467   5.929   1.188
17023WAT     H251312   7.383   6.024   1.291
17024WAT      O51313   5.923   3.078   8.975
17024WAT     H151314   5.968   3.010   9.032
17024WAT     H251315   5.865   3.136   9.032
17025WAT      O51316   7.355   1.137   7.935
17025WAT     H151317   7.413   1.055   7.937
17025WAT     H251318   7.411   1.218   7.955
17026WAT      O51319   4.535   0.903   9.734
17026WAT     H151320   4.463   0.964   9.700
17026WAT     H251321   4.621   0.923   9.687
17027WAT      O51322   3.895   1.759   5.714
17027WAT     H151323   3.940   1.700   5.781
17027WAT     H251324   3.866   1.704   5.636
17028WAT      O51325   1.642   1.813   0.715
17028WAT     H151326   1.687   1.801   0.626
17028WAT     H251327   1.546   1.785   0.707
17029WAT      O51328   2.093   7.304   9.087
17029WAT     H151329   2.049   7.276   9.001
17029WAT     H251330   2.188   7.330   9.068
17030WAT      O51331   3.045   0.311   9.077
17030WAT     H151332   3.011   0.404   9.065
17030WAT     H251333   3.048   0.289   9.175
17031WAT      O51334   6.859   6.958   6.528
17031WAT     H151335   6.863   7.055   6.553
17031WAT     H251336   6.784   6.944   6.464
17032WAT      O51337   8.686   5.441   0.685
17032WAT     H151338   8.601   5.488   0.709
17032WAT     H251339   8.696   5.437   0.586
17033WAT      O51340   7.295   0.366   4.061
17033WAT     H151341   7.233   0.335   3.989
17033WAT     H251342   7.273   0.461   4.085
17034WAT      O51343   7.341   2.716   2.622
17034WAT     H151344   7.295   2.653   2.685
17034WAT     H251345   7.401   2.664   2.561
17035WAT      O51346   4.027   2.357   2.512
17035WAT     H151347   4.055   2.440   2.464
17035WAT     H251348   4.068   2.278   2.467
17036WAT      O51349   1.169   9.054   5.932
17036WAT     H151350   1.216   9.142   5.939
17036WAT     H251351   1.184   9.002   6.016
17037WAT      O51352   3.680   4.467   7.065
17037WAT     H151353   3.680   4.374   7.028
17037WAT     H251354   3.772   4.506   7.059
17038WAT      O51355   4.892   9.299   1.525
17038WAT     H151356   4.847   9.361   1.460
17038WAT     H251357   4.822   9.250   1.578
17039WAT      O51358   2.415   9.294   9.246
17039WAT     H151359   2.417   9.233   9.166
17039WAT     H251360   2.356   9.254   9.317
17040WAT      O51361   4.334   8.662   2.376
17040WAT     H151362   4.326   8.749   2.423
17040WAT     H251363   4.431   8.640   2.362
17041WAT      O51364   5.990   2.093   8.457
17041WAT     H151365   6.023   2.184   8.431
17041WAT     H251366   5.972   2.090   8.555
17042WAT      O51367   4.210   9.034   2.155
17042WAT     H151368   4.266   9.036   2.238
17042WAT     H251369   4.127   8.981   2.172
17043WAT      O51370   0.396   6.146   1.089
17043WAT     H151371   0.316   6.099   1.051
17043WAT     H251372   0.479   6.097   1.062
17044WAT      O51373   2.929   0.031   9.261
17044WAT     H151374   2.987  -0.031   9.208
17044WAT     H251375   2.986   0.104   9.300
17045WAT      O51376   4.892   1.808   6.313
17045WAT     H151377   4.948   1.789   6.232
17045WAT     H251378   4.952   1.820   6.392
17046WAT      O51379   3.176   3.345   0.974
17046WAT     H151380   3.130   3.261   0.944
17046WAT     H251381   3.261   3.321   1.020
17047WAT      O51382   5.223   9.489   6.226
17047WAT     H151383   5.314   9.491   6.185
17047WAT     H251384   5.156   9.522   6.160
17048WAT      O51385   4.862   6.752   0.380
17048WAT     H151386   4.847   6.848   0.404
17048WAT     H251387   4.841   6.738   0.283
17049WAT      O51388   2.874   5.251   5.510
17049WAT     H151389   2.944   5.322   5.509
17049WAT     H251390   2.798   5.280   5.569
17050WAT      O51391   8.923   0.560   3.888
17050WAT     H151392   8.850   0.621   3.859
17050WAT     H251393   9.004   0.614   3.912
17051WAT      O51394   8.472   6.007   1.777
17051WAT     H151395   8.505   6.009   1.872
17051WAT     H251396   8.498   6.092   1.731
17052WAT      O51397   4.868   4.254   0.621
17052WAT     H151398   4.853   4.334   0.564
17052WAT     H251399   4.803   4.182   0.596
17053WAT      O51400   4.677   0.460   2.203
17053WAT     H151401   4.675   0.558   2.222
17053WAT     H251402   4.771   0.427   2.206
17054WAT      O51403   8.128   0.652   0.253
17054WAT     H151404   8.154   0.694   0.339
17054WAT     H251405   8.134   0.553   0.261
17055WAT      O51406   7.074   9.439   1.359
17055WAT     H151407   7.154   9.433   1.299
17055WAT     H251408   7.084   9.518   1.420
17056WAT      O51409   8.555   6.996   3.162
17056WAT     H151410   8.600   6.984   3.251
17056WAT     H251411   8.589   6.927   3.098
17057WAT      O51412   8.522   2.244   4.693
17057WAT     H151413   8.504   2.328   4.641
17057WAT     H251414   8.438   2.213   4.737
17058WAT      O51415   7.831   3.085   3.465
17058WAT     H151416   7.750   3.050   3.512
17058WAT     H251417   7.836   3.046   3.373
17059WAT      O51418   1.709   6.086   9.513
17059WAT     H151419   1.712   6.033   9.428
17059WAT     H251420   1.678   6.027   9.588
17060WAT      O51421   8.545   0.113   9.696
17060WAT     H151422   8.491   0.073   9.770
17060WAT     H251423   8.484   0.157   9.630
17061WAT      O51424   0.519   5.412   3.007
17061WAT     H151425   0.590   5.434   2.939
17061WAT     H251426   0.557   5.351   3.076
17062WAT      O51427   6.583   4.741   5.546
17062WAT     H151428   6.664   4.696   5.509
17062WAT     H251429   6.503   4.718   5.490
17063WAT      O51430   8.160   8.807   0.681
17063WAT     H151431   8.109   8.730   0.721
17063WAT     H251432   8.227   8.773   0.616
17064WAT      O51433   1.687   7.428   1.788
17064WAT     H151434   1.658   7.522   1.771
17064WAT     H251435   1.607   7.368   1.796
17065WAT      O51436   9.259   4.285   5.482
17065WAT     H151437   9.207   4.231   5.416
17065WAT     H251438   9.221   4.271   5.574
17066WAT      O51439   0.930   2.193   2.572
17066WAT     H151440   0.970   2.275   2.614
17066WAT     H251441   0.980   2.172   2.487
17067WAT      O51442   4.086   7.637   4.973
17067WAT     H151443   4.179   7.601   4.984
17067WAT     H251444   4.080   7.685   4.885
17068WAT      O51445   0.123   6.789   9.639
17068WAT     H151446   0.139   6.691   9.635
17068WAT     H251447   0.036   6.810   9.595
17069WAT      O51448   1.281   4.437   6.374
17069WAT     H151449   1.237   4.415   6.461
17069WAT     H251450   1.318   4.353   6.333
17070WAT      O51451   0.372   8.996   3.251
17070WAT     H151452   0.418   8.909   3.236
17070WAT     H251453   0.278   8.990   3.217
17071WAT      O51454   9.318   9.483   9.467
17071WAT     H151455   9.305   9.518   9.374
17071WAT     H251456   9.374   9.400   9.464
17072WAT      O51457   5.177   6.339   8.622
17072WAT     H151458   5.225   6.253   8.607
17072WAT     H251459   5.081   6.320   8.644
17073WAT      O51460   1.082   3.447   3.507
17073WAT     H151461   1.059   3.536   3.468
17073WAT     H251462   1.066   3.449   3.606
17074WAT      O51463   8.956   0.766   9.349
17074WAT     H151464   8.966   0.791   9.253
17074WAT     H251465   8.897   0.685   9.356
17075WAT      O51466   7.172   9.057   9.664
17075WAT     H151467   7.166   9.066   9.764
17075WAT     H251468   7.191   8.962   9.640
17076WAT      O51469   3.133   2.864   0.241
17076WAT     H151470   3.034   2.858   0.258
17076WAT     H251471   3.183   2.833   0.321
17077WAT      O51472   0.858   4.934   3.964
17077WAT     H151473   0.844   5.010   3.901
17077WAT     H251474   0.897   4.857   3.915
17078WAT      O51475   8.829   0.750   5.066
17078WAT     H151476   8.908   0.767   5.125
17078WAT     H251477   8.788   0.662   5.089
17079WAT      O51478   0.291   3.889   1.993
17079WAT     H151479   0.362   3.954   2.020
17079WAT     H251480   0.201   3.928   2.010
17080WAT      O51481   0.729   9.125   1.534
17080WAT     H151482   0.810   9.116   1.475
17080WAT     H251483   0.734   9.210   1.585
17081WAT      O51484   1.418   2.373   8.295
17081WAT     H151485   1.425   2.273   8.298
17081WAT     H251486   1.417   2.409   8.388
17082WAT      O51487   6.296   1.903   6.123
17082WAT     H151488   6.233   1.846   6.176
17082WAT     H251489   6.337   1.972   6.182
17083WAT      O51490   9.504   1.763   9.543
17083WAT     H151491   9.574   1.697   9.519
17083WAT     H251492   9.495   1.768   9.643
17084WAT      O51493   4.923   5.021   8.792
17084WAT     H151494   5.014   4.978   8.797
17084WAT     H251495   4.931   5.109   8.744
17085WAT      O51496   8.272   7.885   3.088
17085WAT     H151497   8.191   7.840   3.125
17085WAT     H251498   8.274   7.875   2.988
17086WAT      O51499   4.927   3.918   4.022
17086WAT     H151500   5.025   3.936   4.011
17086WAT     H251501   4.884   3.915   3.932
17087WAT      O51502   6.895   2.479   2.471
17087WAT     H151503   6.950   2.561   2.456
17087WAT     H251504   6.946   2.398   2.442
17088WAT      O51505   1.271   2.126   4.195
17088WAT     H151506   1.210   2.084   4.263
17088WAT     H251507   1.217   2.159   4.117
17089WAT      O51508   0.179   6.811   4.735
17089WAT     H151509   0.129   6.886   4.778
17089WAT     H251510   0.265   6.845   4.698
17090WAT      O51511   3.166   7.794   0.401
17090WAT     H151512   3.094   7.864   0.397
17090WAT     H251513   3.200   7.788   0.495
17091WAT      O51514   7.434   9.791   7.256
17091WAT     H151515   7.336   9.779   7.240
17091WAT     H251516   7.483   9.711   7.223
17092WAT      O51517   6.422   8.930   8.886
17092WAT     H151518   6.420   8.951   8.984
17092WAT     H251519   6.488   8.990   8.841
17093WAT      O51520   6.456   3.609   9.721
17093WAT     H151521   6.431   3.682   9.659
17093WAT     H251522   6.555   3.603   9.728
17094WAT      O51523   2.335   4.809   3.976
17094WAT     H151524   2.349   4.742   4.049
17094WAT     H251525   2.373   4.774   3.891
17095WAT      O51526   5.081   6.252   6.613
17095WAT     H151527   4.982   6.260   6.604
17095WAT     H251528   5.119   6.217   6.528
17096WAT      O51529   0.931   9.310   0.946
17096WAT     H151530   1.007   9.329   0.885
17096WAT     H251531   0.875   9.236   0.908
17097WAT      O51532   8.596   0.343   0.457
17097WAT     H151533   8.531   0.403   0.504
17097WAT     H251534   8.684   0.347   0.504
17098WAT      O51535   4.148   3.087   5.218
17098WAT     H151536   4.201   3.022   5.163
17098WAT     H251537   4.197   3.106   5.303
17099WAT      O51538   8.148   5.859   4.949
17099WAT     H151539   8.233   5.816   4.918
17099WAT     H251540   8.084   5.865   4.872
17100WAT      O51541   4.864   9.649   8.001
17100WAT     H151542   4.782   9.633   7.947
17100WAT     H251543   4.943   9.611   7.953
17101WAT      O51544   0.198   8.972   7.888
17101WAT     H151545   0.145   8.964   7.973
17101WAT     H251546   0.272   8.905   7.889
17102WAT      O51547   9.443   3.686   1.427
17102WAT     H151548   9.384   3.616   1.388
17102WAT     H251549   9.409   3.777   1.400
17103WAT      O51550   3.955   3.794   8.873
17103WAT     H151551   3.975   3.743   8.789
17103WAT     H251552   3.905   3.736   8.936
17104WAT      O51553   8.800   5.935   5.382
17104WAT     H151554   8.714   5.973   5.349
17104WAT     H251555   8.813   5.843   5.345
17105WAT      O51556   1.535   1.721   9.358
17105WAT     H151557   1.528   1.732   9.457
17105WAT     H251558   1.605   1.783   9.322
17106WAT      O51559   6.815   6.784   4.908
17106WAT     H151560   6.724   6.742   4.918
17106WAT     H251561   6.884   6.712   4.904
17107WAT      O51562   7.796   0.248   6.707
17107WAT     H151563   7.763   0.205   6.623
17107WAT     H251564   7.733   0.228   6.782
17108WAT      O51565   8.127   4.785   2.862
17108WAT     H151566   8.142   4.818   2.955
17108WAT     H251567   8.212   4.747   2.827
17109WAT      O51568   2.907   8.216   9.038
17109WAT     H151569   2.973   8.278   9.080
17109WAT     H251570   2.922   8.214   8.939
17110WAT      O51571   2.016   1.740   3.933
17110WAT     H151572   1.932   1.767   3.980
17110WAT     H251573   2.083   1.813   3.940
17111WAT      O51574   9.874   7.179   6.810
17111WAT     H151575   9.877   7.086   6.775
17111WAT     H251576   9.950   7.232   6.771
17112WAT      O51577   3.157   2.978   1.135
17112WAT     H151578   3.178   2.908   1.066
17112WAT     H251579   3.218   3.056   1.122
17113WAT      O51580   4.422   9.697   8.674
17113WAT     H151581   4.414   9.638   8.594
17113WAT     H251582   4.374   9.783   8.656
17114WAT      O51583   0.931   1.932   6.869
17114WAT     H151584   0.913   1.969   6.961
17114WAT     H251585   0.890   1.841   6.861
17115WAT      O51586   6.603   1.791   8.558
17115WAT     H151587   6.556   1.821   8.476
17115WAT     H251588   6.673   1.859   8.583
17116WAT      O51589   4.256   5.234   8.221
17116WAT     H151590   4.180   5.299   8.229
17116WAT     H251591   4.299   5.223   8.311
17117WAT      O51592   0.935   6.836   2.875
17117WAT     H151593   0.987   6.846   2.960
17117WAT     H251594   0.954   6.746   2.835
17118WAT      O51595   9.699   8.010   2.412
17118WAT     H151596   9.706   7.937   2.345
17118WAT     H251597   9.765   8.082   2.390
17119WAT      O51598   5.719   7.957   7.219
17119WAT     H151599   5.698   7.861   7.238
17119WAT     H251600   5.811   7.964   7.180
17120WAT      O51601   5.411   5.874   6.720
17120WAT     H151602   5.503   5.847   6.694
17120WAT     H251603   5.407   5.890   6.818
17121WAT      O51604   1.893   7.649   4.651
17121WAT     H151605   1.964   7.699   4.701
17121WAT     H251606   1.886   7.556   4.688
17122WAT      O51607   8.814   4.059   4.978
17122WAT     H151608   8.808   3.980   5.039
17122WAT     H251609   8.769   4.137   5.021
17123WAT      O51610   3.669   5.450   1.459
17123WAT     H151611   3.750   5.454   1.518
17123WAT     H251612   3.698   5.451   1.364
17124WAT      O51613   3.631   1.174   0.441
17124WAT     H151614   3.611   1.089   0.392
17124WAT     H251615   3.563   1.243   0.416
17125WAT      O51616   2.646   3.976   6.432
17125WAT     H151617   2.703   4.058   6.436
17125WAT     H251618   2.550   4.001   6.441
17126WAT      O51619   8.840   0.448   1.367
17126WAT     H151620   8.926   0.398   1.355
17126WAT     H251621   8.777   0.394   1.422
17127WAT      O51622   9.827   4.665   2.426
17127WAT     H151623   9.803   4.698   2.517
17127WAT     H251624   9.744   4.642   2.375
17128WAT      O51625   4.102   5.904   8.248
17128WAT     H151626   4.167   5.963   8.297
17128WAT     H251627   4.028   5.877   8.309
17129WAT      O51628   6.408   4.095   0.964
17129WAT     H151629   6.467   4.064   1.038
17129WAT     H251630   6.463   4.126   0.887
17130WAT      O51631   2.449   8.682   6.115
17130WAT     H151632   2.377   8.620   6.146
17130WAT     H251633   2.448   8.765   6.171
17131WAT      O51634   9.648   8.542   4.665
17131WAT     H151635   9.724   8.555   4.603
17131WAT     H251636   9.580   8.482   4.623
17132WAT      O51637   4.832   3.666   3.507
17132WAT     H151638   4.754   3.728   3.500
17132WAT     H251639   4.799   3.572   3.514
17133WAT      O51640   3.054   8.587   4.234
17133WAT     H151641   3.049   8.633   4.146
17133WAT     H251642   3.113   8.507   4.227
17134WAT      O51643   2.217   3.113   6.415
17134WAT     H151644   2.201   3.099   6.317
17134WAT     H251645   2.134   3.088   6.465
17135WAT      O51646   6.397   8.598   5.712
17135WAT     H151647   6.350   8.631   5.630
17135WAT     H251648   6.454   8.519   5.688
17136WAT      O51649   4.308   5.058   7.995
17136WAT     H151650   4.302   5.106   8.082
17136WAT     H251651   4.400   5.069   7.956
17137WAT      O51652   5.969   7.393   7.040
17137WAT     H151653   5.927   7.480   7.013
17137WAT     H251654   5.901   7.321   7.035
17138WAT      O51655   3.991   8.689   5.557
17138WAT     H151656   4.044   8.615   5.598
17138WAT     H251657   3.973   8.668   5.461
17139WAT      O51658   3.064   4.332   5.299
17139WAT     H151659   3.124   4.297   5.227
17139WAT     H251660   3.003   4.260   5.330
17140WAT      O51661   1.548   4.399   3.966
17140WAT     H151662   1.531   4.304   3.938
17140WAT     H251663   1.605   4.444   3.897
17141WAT      O51664   8.864   2.633   6.975
17141WAT     H151665   8.896   2.705   6.913
17141WAT     H251666   8.935   2.563   6.985
17142WAT      O51667   2.648   8.218   9.767
17142WAT     H151668   2.653   8.185   9.861
17142WAT     H251669   2.739   8.219   9.726
17143WAT      O51670   5.202   6.028   0.274
17143WAT     H151671   5.293   6.006   0.308
17143WAT     H251672   5.136   6.023   0.349
17144WAT      O51673   2.551   7.637   2.440
17144WAT     H151674   2.560   7.724   2.392
17144WAT     H251675   2.629   7.579   2.417
17145WAT      O51676   5.431   1.877   2.205
17145WAT     H151677   5.369   1.932   2.149
17145WAT     H251678   5.453   1.793   2.156
17146WAT      O51679   0.956   4.761   2.811
17146WAT     H151680   1.024   4.810   2.865
17146WAT     H251681   1.002   4.707   2.740
17147WAT      O51682   8.043   3.379   7.798
17147WAT     H151683   8.094   3.364   7.713
17147WAT     H251684   7.948   3.350   7.786
17148WAT      O51685   2.308   0.991   2.090
17148WAT     H151686   2.221   0.944   2.102
17148WAT     H251687   2.297   1.066   2.024
17149WAT      O51688   9.308   6.174   0.701
17149WAT     H151689   9.336   6.148   0.608
17149WAT     H251690   9.247   6.104   0.738
17150WAT      O51691   9.693   0.309   3.238
17150WAT     H151692   9.628   0.299   3.164
17150WAT     H251693   9.645   0.304   3.326
17151WAT      O51694   3.641   2.773   6.729
17151WAT     H151695   3.610   2.868   6.724
17151WAT     H251696   3.604   2.722   6.651
17152WAT      O51697   3.218   1.989   9.423
17152WAT     H151698   3.276   2.070   9.437
17152WAT     H251699   3.173   1.995   9.334
17153WAT      O51700   2.266   1.954   0.167
17153WAT     H151701   2.245   1.860   0.141
17153WAT     H251702   2.263   1.963   0.267
17154WAT      O51703   0.432   8.836   0.564
17154WAT     H151704   0.387   8.865   0.649
17154WAT     H251705   0.493   8.909   0.532
17155WAT      O51706   2.734   0.347   6.831
17155WAT     H151707   2.767   0.331   6.924
17155WAT     H251708   2.634   0.354   6.832
17156WAT      O51709   9.102   5.477   0.213
17156WAT     H151710   9.042   5.557   0.204
17156WAT     H251711   9.166   5.475   0.136
17157WAT      O51712   3.302   3.197   5.656
17157WAT     H151713   3.362   3.150   5.722
17157WAT     H251714   3.353   3.272   5.613
17158WAT      O51715   4.596   2.321   8.870
17158WAT     H151716   4.518   2.299   8.928
17158WAT     H251717   4.668   2.362   8.925
17159WAT      O51718   0.453   2.167   8.629
17159WAT     H151719   0.432   2.073   8.601
17159WAT     H251720   0.422   2.181   8.723
17160WAT      O51721   2.466   3.253   4.030
17160WAT     H151722   2.456   3.305   4.115
17160WAT     H251723   2.560   3.220   4.022
17161WAT      O51724   7.137   6.194   6.109
17161WAT     H151725   7.081   6.124   6.065
17161WAT     H251726   7.164   6.262   6.041
17162WAT      O51727   6.405   5.930   9.399
17162WAT     H151728   6.338   6.003   9.413
17162WAT     H251729   6.382   5.851   9.457
17163WAT      O51730   5.525   6.500   0.237
17163WAT     H151731   5.616   6.504   0.278
17163WAT     H251732   5.528   6.538   0.145
17164WAT      O51733   9.387   8.646   6.327
17164WAT     H151734   9.350   8.555   6.309
17164WAT     H251735   9.312   8.710   6.343
17165WAT      O51736   3.617   7.959   2.279
17165WAT     H151737   3.669   8.000   2.355
17165WAT     H251738   3.633   7.861   2.276
17166WAT      O51739   0.572   6.837   1.900
17166WAT     H151740   0.617   6.919   1.934
17166WAT     H251741   0.497   6.863   1.840
17167WAT      O51742   5.586   8.391   3.438
17167WAT     H151743   5.563   8.480   3.478
17167WAT     H251744   5.680   8.367   3.460
17168WAT      O51745   9.440   4.847   4.583
17168WAT     H151746   9.516   4.782   4.581
17168WAT     H251747   9.376   4.825   4.509
17169WAT      O51748   1.060   9.744   0.549
17169WAT     H151749   1.144   9.699   0.519
17169WAT     H251750   1.083   9.822   0.607
17170WAT      O51751   3.115   5.609   6.004
17170WAT     H151752   3.055   5.569   6.074
17170WAT     H251753   3.135   5.704   6.029
17171WAT      O51754   6.816   0.643   4.707
17171WAT     H151755   6.817   0.728   4.654
17171WAT     H251756   6.724   0.605   4.706
17172WAT      O51757   6.161   8.008   6.297
17172WAT     H151758   6.208   8.002   6.209
17172WAT     H251759   6.225   8.040   6.366
17173WAT      O51760   8.687   5.659   8.270
17173WAT     H151761   8.727   5.569   8.257
17173WAT     H251762   8.607   5.652   8.329
17174WAT      O51763   2.742   8.670   1.057
17174WAT     H151764   2.772   8.622   1.139
17174WAT     H251765   2.687   8.609   1.000
17175WAT      O51766   3.149   4.050   1.009
17175WAT     H151767   3.241   4.028   0.976
17175WAT     H251768   3.083   4.038   0.935
17176WAT      O51769   9.130   7.597   3.569
17176WAT     H151770   9.187   7.576   3.490
17176WAT     H251771   9.184   7.648   3.636
17177WAT      O51772   6.598   2.275   4.470
17177WAT     H151773   6.576   2.283   4.373
17177WAT     H251774   6.559   2.352   4.520
17178WAT      O51775   1.094   7.395   0.571
17178WAT     H151776   1.098   7.447   0.485
17178WAT     H251777   1.144   7.445   0.642
17179WAT      O51778   4.056   4.801   9.791
17179WAT     H151779   4.094   4.708   9.797
17179WAT     H251780   3.963   4.800   9.826
17180WAT      O51781   2.760   6.853   0.173
17180WAT     H151782   2.753   6.785   0.246
17180WAT     H251783   2.780   6.943   0.212
17181WAT      O51784   2.607   5.275   7.357
17181WAT     H151785   2.703   5.263   7.382
17181WAT     H251786   2.599   5.352   7.293
17182WAT      O51787   1.186   0.918   1.396
17182WAT     H151788   1.222   0.947   1.308
17182WAT     H251789   1.193   0.993   1.462
17183WAT      O51790   0.637   1.888   3.361
17183WAT     H151791   0.579   1.934   3.428
17183WAT     H251792   0.673   1.956   3.296
17184WAT      O51793   8.554   2.352   2.884
17184WAT     H151794   8.478   2.333   2.822
17184WAT     H251795   8.598   2.266   2.910
17185WAT      O51796   9.703   6.955   0.768
17185WAT     H151797   9.642   6.941   0.846
17185WAT     H251798   9.723   7.053   0.759
17186WAT      O51799   7.208   8.435   8.512
17186WAT     H151800   7.117   8.400   8.531
17186WAT     H251801   7.268   8.359   8.486
17187WAT      O51802   0.054   6.026   8.211
17187WAT     H151803  -0.006   6.067   8.281
17187WAT     H251804   0.139   5.997   8.253
17188WAT      O51805   9.602   2.908   1.297
17188WAT     H151806   9.646   2.877   1.381
17188WAT     H251807   9.557   2.996   1.313
17189WAT      O51808   1.070   6.230   3.159
17189WAT     H151809   0.990   6.257   3.213
17189WAT     H251810   1.112   6.311   3.118
17190WAT      O51811   7.387   9.198   9.562
17190WAT     H151812   7.305   9.152   9.595
17190WAT     H251813   7.459   9.190   9.631
17191WAT      O51814   7.003   1.634   6.142
17191WAT     H151815   7.065   1.631   6.221
17191WAT     H251816   6.966   1.543   6.126
17192WAT      O51817   8.073   3.135   6.743
17192WAT     H151818   8.134   3.153   6.666
17192WAT     H251819   8.119   3.155   6.829
17193WAT      O51820   0.649   8.303   4.130
17193WAT     H151821   0.645   8.240   4.208
17193WAT     H251822   0.726   8.366   4.141
17194WAT      O51823   0.746   3.372   4.602
17194WAT     H151824   0.722   3.417   4.517
17194WAT     H251825   0.796   3.287   4.582
17195WAT      O51826   5.453   9.642   7.041
17195WAT     H151827   5.396   9.707   7.092
17195WAT     H251828   5.402   9.608   6.963
17196WAT      O51829   9.312   5.707   0.021
17196WAT     H151830   9.281   5.616  -0.007
17196WAT     H251831   9.261   5.736   0.102
17197WAT      O51832   0.029   2.801   2.649
17197WAT     H151833   0.017   2.782   2.552
17197WAT     H251834   0.097   2.737   2.687
17198WAT      O51835   6.790   9.508   5.058
17198WAT     H151836   6.873   9.528   5.005
17198WAT     H251837   6.747   9.594   5.086
17199WAT      O51838   2.121   9.676   3.040
17199WAT     H151839   2.114   9.578   3.022
17199WAT     H251840   2.215   9.706   3.024
17200WAT      O51841   4.881   5.844   5.630
17200WAT     H151842   4.902   5.751   5.659
17200WAT     H251843   4.786   5.849   5.599
17201WAT      O51844   4.412   0.725   0.027
17201WAT     H151845   4.486   0.779  -0.013
17201WAT     H251846   4.449   0.659   0.092
17202WAT      O51847   0.984   5.232   0.123
17202WAT     H151848   0.911   5.172   0.090
17202WAT     H251849   0.976   5.322   0.079
17203WAT      O51850   1.737   9.247   2.115
17203WAT     H151851   1.817   9.187   2.126
17203WAT     H251852   1.675   9.208   2.047
17204WAT      O51853   3.305   0.108   8.249
17204WAT     H151854   3.236   0.136   8.182
17204WAT     H251855   3.288   0.013   8.276
17205WAT      O51856   3.451   3.519   5.063
17205WAT     H151857   3.549   3.508   5.081
17205WAT     H251858   3.422   3.610   5.093
17206WAT      O51859   1.738   5.763   3.607
17206WAT     H151860   1.758   5.836   3.673
17206WAT     H251861   1.782   5.678   3.637
17207WAT      O51862   5.767   2.996   7.389
17207WAT     H151863   5.721   3.058   7.325
17207WAT     H251864   5.785   3.044   7.474
17208WAT      O51865   6.443   5.498   9.408
17208WAT     H151866   6.397   5.575   9.364
17208WAT     H251867   6.542   5.515   9.412
17209WAT      O51868   8.576   2.754   8.808
17209WAT     H151869   8.646   2.821   8.785
17209WAT     H251870   8.619   2.666   8.829
17210WAT      O51871   8.064   4.323   4.300
17210WAT     H151872   8.037   4.378   4.379
17210WAT     H251873   7.995   4.254   4.282
17211WAT      O51874   6.322   5.866   2.864
17211WAT     H151875   6.375   5.950   2.859
17211WAT     H251876   6.381   5.790   2.890
17212WAT      O51877   0.681   3.629   8.119
17212WAT     H151878   0.643   3.691   8.051
17212WAT     H251879   0.612   3.561   8.145
17213WAT      O51880   8.147   4.990   2.212
17213WAT     H151881   8.107   4.988   2.120
17213WAT     H251882   8.076   4.967   2.279
17214WAT      O51883   6.098   0.297   1.097
17214WAT     H151884   6.180   0.346   1.126
17214WAT     H251885   6.118   0.246   1.013
17215WAT      O51886   5.989   1.013   5.137
17215WAT     H151887   6.056   0.991   5.066
17215WAT     H251888   6.033   1.013   5.226
17216WAT      O51889   0.155   1.937   0.829
17216WAT     H151890   0.157   1.880   0.747
17216WAT     H251891   0.214   2.016   0.815
17217WAT      O51892   5.900   3.644   9.146
17217WAT     H151893   5.890   3.742   9.131
17217WAT     H251894   5.881   3.595   9.060
17218WAT      O51895   0.005   8.760   2.856
17218WAT     H151896  -0.060   8.763   2.932
17218WAT     H251897   0.095   8.791   2.887
17219WAT      O51898   4.538   7.955   2.840
17219WAT     H151899   4.609   7.902   2.885
17219WAT     H251900   4.531   8.045   2.883
17220WAT      O51901   4.238   3.680   0.211
17220WAT     H151902   4.177   3.722   0.145
17220WAT     H251903   4.241   3.581   0.197
17221WAT      O51904   0.844   8.135   0.215
17221WAT     H151905   0.841   8.122   0.115
17221WAT     H251906   0.939   8.142   0.244
17222WAT      O51907   6.055   7.255   6.757
17222WAT     H151908   6.091   7.164   6.779
17222WAT     H251909   5.968   7.268   6.805
17223WAT      O51910   7.319   1.329   2.967
17223WAT     H151911   7.378   1.372   3.035
17223WAT     H251912   7.240   1.388   2.949
17224WAT      O51913   6.584   0.165   0.988
17224WAT     H151914   6.603   0.109   0.908
17224WAT     H251915   6.507   0.226   0.968
17225WAT      O51916   2.144   7.151   6.139
17225WAT     H151917   2.089   7.111   6.066
17225WAT     H251918   2.168   7.081   6.205
17226WAT      O51919   6.187   4.418   7.509
17226WAT     H151920   6.153   4.402   7.416
17226WAT     H251921   6.272   4.367   7.523
17227WAT      O51922   3.387   4.825   9.760
17227WAT     H151923   3.309   4.786   9.809
17227WAT     H251924   3.358   4.856   9.670
17228WAT      O51925   1.623   2.890   0.191
17228WAT     H151926   1.540   2.843   0.161
17228WAT     H251927   1.700   2.859   0.135
17229WAT      O51928   1.970   0.140   8.510
17229WAT     H151929   1.923   0.228   8.498
17229WAT     H251930   1.934   0.074   8.445
17230WAT      O51931   2.538   6.038   2.717
17230WAT     H151932   2.549   5.962   2.653
17230WAT     H251933   2.597   6.113   2.689
17231WAT      O51934   1.261   7.030   5.003
17231WAT     H151935   1.238   7.122   5.037
17231WAT     H251936   1.304   7.038   4.913
17232WAT      O51937   6.683   8.814   6.147
17232WAT     H151938   6.714   8.882   6.213
17232WAT     H251939   6.693   8.722   6.186
17233WAT      O51940   2.301   5.372   0.879
17233WAT     H151941   2.348   5.319   0.808
17233WAT     H251942   2.262   5.455   0.839
17234WAT      O51943   9.013   4.245   1.962
17234WAT     H151944   9.008   4.319   1.895
17234WAT     H251945   9.031   4.159   1.916
17235WAT      O51946   4.511   1.176   7.617
17235WAT     H151947   4.481   1.133   7.532
17235WAT     H251948   4.578   1.248   7.596
17236WAT      O51949   5.010   6.490   0.908
17236WAT     H151950   4.943   6.538   0.851
17236WAT     H251951   5.011   6.393   0.886
17237WAT      O51952   1.292   9.404   9.223
17237WAT     H151953   1.270   9.314   9.185
17237WAT     H251954   1.337   9.393   9.312
17238WAT      O51955   4.044   9.393   0.805
17238WAT     H151956   3.962   9.442   0.774
17238WAT     H251957   4.118   9.459   0.821
17239WAT      O51958   2.274   1.641   4.273
17239WAT     H151959   2.244   1.602   4.186
17239WAT     H251960   2.338   1.716   4.256
17240WAT      O51961   9.618   4.314   9.292
17240WAT     H151962   9.575   4.255   9.224
17240WAT     H251963   9.716   4.321   9.272
17241WAT      O51964   5.954   9.625   9.650
17241WAT     H151965   5.857   9.607   9.633
17241WAT     H251966   5.989   9.686   9.579
17242WAT      O51967   9.588   7.084   5.518
17242WAT     H151968   9.558   7.105   5.425
17242WAT     H251969   9.605   7.169   5.568
17243WAT      O51970   7.513   4.164   8.151
17243WAT     H151971   7.596   4.163   8.095
17243WAT     H251972   7.534   4.133   8.243
17244WAT      O51973   0.094   3.464   3.115
17244WAT     H151974   0.154   3.403   3.167
17244WAT     H251975   0.099   3.556   3.152
17245WAT      O51976   9.034   1.324   8.468
17245WAT     H151977   8.957   1.292   8.412
17245WAT     H251978   9.048   1.422   8.453
17246WAT      O51979   8.797   5.532   4.821
17246WAT     H151980   8.861   5.461   4.792
17246WAT     H251981   8.816   5.558   4.916
17247WAT      O51982   8.493   0.921   6.820
17247WAT     H151983   8.508   0.878   6.909
17247WAT     H251984   8.527   0.861   6.748
17248WAT      O51985   0.952   5.598   0.517
17248WAT     H151986   1.012   5.611   0.438
17248WAT     H251987   0.875   5.539   0.492
17249WAT      O51988   4.230   6.003   8.004
17249WAT     H151989   4.197   5.964   8.090
17249WAT     H251990   4.306   6.066   8.023
17250WAT      O51991   8.654   0.725   5.657
17250WAT     H151992   8.565   0.691   5.625
17250WAT     H251993   8.647   0.822   5.678
17251WAT      O51994   0.879   3.753   0.678
17251WAT     H151995   0.923   3.797   0.756
17251WAT     H251996   0.905   3.800   0.594
17252WAT      O51997   0.709   9.223   5.248
17252WAT     H151998   0.771   9.296   5.275
17252WAT     H251999   0.688   9.232   5.150
17253WAT      O52000   2.123   6.817   6.033
17253WAT     H152001   2.138   6.888   5.964
17253WAT     H252002   2.205   6.760   6.040
17254WAT      O52003   7.865   6.630   7.125
17254WAT     H152004   7.852   6.644   7.224
17254WAT     H252005   7.776   6.638   7.079
17255WAT      O52006   1.272   3.206   5.752
17255WAT     H152007   1.305   3.118   5.716
17255WAT     H252008   1.261   3.271   5.677
17256WAT      O52009   9.659   1.931   5.576
17256WAT     H152010   9.630   1.888   5.662
17256WAT     H252011   9.638   2.029   5.580
17257WAT      O52012   8.172   9.364   4.032
17257WAT     H152013   8.141   9.323   3.946
17257WAT     H252014   8.174   9.294   4.104
17258WAT      O52015   3.333   1.012   4.967
17258WAT     H152016   3.282   1.058   5.040
17258WAT     H252017   3.281   0.933   4.934
17259WAT      O52018   5.768   4.732   0.504
17259WAT     H152019   5.740   4.671   0.430
17259WAT     H252020   5.835   4.686   0.562
17260WAT      O52021   3.472   7.581   3.065
17260WAT     H152022   3.379   7.556   3.092
17260WAT     H252023   3.468   7.662   3.006
17261WAT      O52024   7.128   1.125   9.797
17261WAT     H152025   7.051   1.119   9.861
17261WAT     H252026   7.129   1.216   9.756
17262WAT      O52027   0.997   8.994   3.909
17262WAT     H152028   1.087   9.037   3.906
17262WAT     H252029   1.008   8.896   3.924
17263WAT      O52030   7.491   3.300   4.396
17263WAT     H152031   7.451   3.376   4.345
17263WAT     H252032   7.421   3.229   4.410
17264WAT      O52033   7.347   4.490   9.299
17264WAT     H152034   7.283   4.531   9.364
17264WAT     H252035   7.422   4.447   9.348
17265WAT      O52036   2.697   5.800   1.406
17265WAT     H152037   2.699   5.726   1.339
17265WAT     H252038   2.618   5.787   1.466
17266WAT      O52039   4.835   1.147   8.596
17266WAT     H152040   4.901   1.136   8.523
17266WAT     H252041   4.773   1.223   8.575
17267WAT      O52042   1.376   8.550   4.577
17267WAT     H152043   1.339   8.615   4.644
17267WAT     H252044   1.314   8.544   4.498
17268WAT      O52045   0.711   1.937   3.784
17268WAT     H152046   0.811   1.936   3.777
17268WAT     H252047   0.674   1.856   3.739
17269WAT      O52048   3.818   6.994   0.123
17269WAT     H152049   3.867   6.953   0.200
17269WAT     H252050   3.729   7.029   0.155
17270WAT      O52051   0.510   8.367   3.645
17270WAT     H152052   0.515   8.400   3.739
17270WAT     H252053   0.508   8.445   3.582
17271WAT      O52054   3.946   3.690   8.623
17271WAT     H152055   3.874   3.671   8.556
17271WAT     H252056   4.022   3.737   8.578
17272WAT      O52057   9.881   6.786   9.018
17272WAT     H152058   9.912   6.808   9.110
17272WAT     H252059   9.889   6.687   9.003
17273WAT      O52060   2.777   9.019   5.392
17273WAT     H152061   2.679   9.027   5.373
17273WAT     H252062   2.809   8.928   5.365
17274WAT      O52063   3.158   6.843   3.871
17274WAT     H152064   3.238   6.786   3.852
17274WAT     H252065   3.103   6.852   3.788
17275WAT      O52066   5.603   7.417   6.329
17275WAT     H152067   5.580   7.507   6.291
17275WAT     H252068   5.554   7.346   6.279
17276WAT      O52069   5.310   9.116   5.440
17276WAT     H152070   5.252   9.074   5.370
17276WAT     H252071   5.358   9.044   5.491
17277WAT      O52072   0.257   4.328   9.479
17277WAT     H152073   0.167   4.354   9.511
17277WAT     H252074   0.261   4.228   9.468
17278WAT      O52075   8.458   8.499   0.546
17278WAT     H152076   8.407   8.440   0.485
17278WAT     H252077   8.522   8.444   0.600
17279WAT      O52078   4.223   1.236   2.492
17279WAT     H152079   4.248   1.170   2.421
17279WAT     H252080   4.136   1.209   2.533
17280WAT      O52081   5.041   8.700   1.002
17280WAT     H152082   5.000   8.750   1.078
17280WAT     H252083   5.104   8.760   0.953
17281WAT      O52084   9.875   6.308   5.859
17281WAT     H152085   9.862   6.339   5.765
17281WAT     H252086   9.801   6.343   5.917
17282WAT      O52087   6.077   5.420   9.208
17282WAT     H152088   5.979   5.406   9.224
17282WAT     H252089   6.105   5.508   9.248
17283WAT      O52090   2.564   8.172   3.737
17283WAT     H152091   2.602   8.165   3.829
17283WAT     H252092   2.627   8.223   3.678
17284WAT      O52093   8.798   3.299   2.001
17284WAT     H152094   8.885   3.348   1.999
17284WAT     H252095   8.813   3.204   2.028
17285WAT      O52096   0.358   3.112   7.984
17285WAT     H152097   0.357   3.212   7.973
17285WAT     H252098   0.320   3.087   8.073
17286WAT      O52099   5.779   8.646   3.965
17286WAT     H152100   5.769   8.549   3.943
17286WAT     H252101   5.724   8.669   4.046
17287WAT      O52102   6.699   6.627   6.243
17287WAT     H152103   6.653   6.615   6.155
17287WAT     H252104   6.631   6.628   6.317
17288WAT      O52105   3.453   7.520   3.790
17288WAT     H152106   3.426   7.424   3.783
17288WAT     H252107   3.455   7.548   3.886
17289WAT      O52108   0.233   6.301   7.108
17289WAT     H152109   0.322   6.288   7.065
17289WAT     H252110   0.203   6.396   7.096
17290WAT      O52111   2.009   4.242   8.543
17290WAT     H152112   2.020   4.328   8.592
17290WAT     H252113   1.921   4.201   8.567
17291WAT      O52114   7.186   5.935   7.923
17291WAT     H152115   7.157   5.842   7.900
17291WAT     H252116   7.106   5.995   7.921
17292WAT      O52117   0.962   8.224   1.259
17292WAT     H152118   0.937   8.234   1.355
17292WAT     H252119   1.049   8.175   1.252
17293WAT      O52120   3.080   2.780   7.636
17293WAT     H152121   3.088   2.715   7.712
17293WAT     H252122   3.135   2.861   7.656
17294WAT      O52123   6.106   0.066   6.711
17294WAT     H152124   6.136  -0.029   6.703
17294WAT     H252125   6.024   0.070   6.768
17295WAT      O52126   0.252   4.421   0.825
17295WAT     H152127   0.253   4.323   0.846
17295WAT     H252128   0.342   4.460   0.844
17296WAT      O52129   1.783   0.318   3.392
17296WAT     H152130   1.723   0.310   3.471
17296WAT     H252131   1.740   0.376   3.323
17297WAT      O52132   5.129   6.222   3.164
17297WAT     H152133   5.220   6.186   3.186
17297WAT     H252134   5.061   6.150   3.175
17298WAT      O52135   2.510   0.219   0.143
17298WAT     H152136   2.499   0.130   0.100
17298WAT     H252137   2.428   0.274   0.125
17299WAT      O52138   2.559   7.681   1.134
17299WAT     H152139   2.630   7.658   1.200
17299WAT     H252140   2.484   7.616   1.143
17300WAT      O52141   7.209   5.788   4.768
17300WAT     H152142   7.238   5.693   4.757
17300WAT     H252143   7.270   5.835   4.832
17301WAT      O52144   2.033   6.012   5.681
17301WAT     H152145   2.066   5.964   5.600
17301WAT     H252146   2.096   5.996   5.758
17302WAT      O52147   2.929   5.269   1.041
17302WAT     H152148   2.902   5.291   0.947
17302WAT     H252149   3.023   5.237   1.041
17303WAT      O52150   4.615   7.464   8.057
17303WAT     H152151   4.663   7.472   7.969
17303WAT     H252152   4.562   7.547   8.073
17304WAT      O52153   9.349   8.710   9.497
17304WAT     H152154   9.293   8.787   9.465
17304WAT     H252155   9.429   8.700   9.438
17305WAT      O52156   6.594   7.672   5.967
17305WAT     H152157   6.676   7.730   5.960
17305WAT     H252158   6.592   7.628   6.056
17306WAT      O52159   9.726   2.330   4.800
17306WAT     H152160   9.784   2.252   4.824
17306WAT     H252161   9.731   2.399   4.873
17307WAT      O52162   6.745   2.046   4.906
17307WAT     H152163   6.757   2.143   4.883
17307WAT     H252164   6.830   2.010   4.944
17308WAT      O52165   8.217   4.107   0.427
17308WAT     H152166   8.264   4.194   0.414
17308WAT     H252167   8.277   4.044   0.475
17309WAT      O52168   9.688   8.750   3.658
17309WAT     H152169   9.680   8.771   3.561
17309WAT     H252170   9.734   8.826   3.705
17310WAT      O52171   9.194   6.114   4.700
17310WAT     H152172   9.292   6.136   4.702
17310WAT     H252173   9.142   6.191   4.736
17311WAT      O52174   8.575   2.441   8.720
17311WAT     H152175   8.586   2.371   8.790
17311WAT     H252176   8.479   2.444   8.691
17312WAT      O52177   4.542   9.345   0.622
17312WAT     H152178   4.460   9.382   0.579
17312WAT     H252179   4.545   9.246   0.608
17313WAT      O52180   7.543   5.852   9.003
17313WAT     H152181   7.535   5.937   8.952
17313WAT     H252182   7.464   5.794   8.985
17314WAT      O52183   6.312   7.144   9.889
17314WAT     H152184   6.354   7.066   9.843
17314WAT     H252185   6.239   7.112   9.950
17315WAT      O52186   7.257   3.860   9.438
17315WAT     H152187   7.214   3.776   9.472
17315WAT     H252188   7.305   3.841   9.353
17316WAT      O52189   3.841   1.456   1.277
17316WAT     H152190   3.878   1.527   1.338
17316WAT     H252191   3.905   1.440   1.202
17317WAT      O52192   6.275   3.358   0.545
17317WAT     H152193   6.265   3.357   0.445
17317WAT     H252194   6.218   3.430   0.583
17318WAT      O52195   3.106   7.702   4.869
17318WAT     H152196   3.009   7.680   4.864
17318WAT     H252197   3.118   7.800   4.885
17319WAT      O52198   8.950   8.789   8.151
17319WAT     H152199   8.967   8.849   8.072
17319WAT     H252200   8.957   8.843   8.235
17320WAT      O52201   1.972   5.665   7.260
17320WAT     H152202   1.883   5.661   7.304
17320WAT     H252203   2.042   5.630   7.322
17321WAT      O52204   6.106   2.730   3.382
17321WAT     H152205   6.131   2.791   3.457
17321WAT     H252206   6.059   2.650   3.418
17322WAT      O52207   3.112   6.102   9.066
17322WAT     H152208   3.047   6.175   9.044
17322WAT     H252209   3.065   6.028   9.114
17323WAT      O52210   2.217   0.880   8.025
17323WAT     H152211   2.295   0.893   8.086
17323WAT     H252212   2.220   0.788   7.986
17324WAT      O52213   8.335   7.208   1.027
17324WAT     H152214   8.248   7.255   1.013
17324WAT     H252215   8.375   7.183   0.939
17325WAT      O52216   7.221   8.041   4.828
17325WAT     H152217   7.254   8.116   4.772
17325WAT     H252218   7.215   8.071   4.924
17326WAT      O52219   1.172   9.659   8.757
17326WAT     H152220   1.093   9.621   8.708
17326WAT     H252221   1.155   9.654   8.855
17327WAT      O52222   1.068   3.120   5.889
17327WAT     H152223   0.993   3.187   5.890
17327WAT     H252224   1.144   3.157   5.836
17328WAT      O52225   5.172   3.757   9.154
17328WAT     H152226   5.204   3.755   9.059
17328WAT     H252227   5.137   3.849   9.175
17329WAT      O52228   5.543   2.596   6.670
17329WAT     H152229   5.538   2.622   6.574
17329WAT     H252230   5.460   2.624   6.717
17330WAT      O52231   3.852   8.405   5.297
17330WAT     H152232   3.890   8.491   5.331
17330WAT     H252233   3.752   8.408   5.307
17331WAT      O52234   0.371   1.838   2.261
17331WAT     H152235   0.321   1.789   2.189
17331WAT     H252236   0.306   1.886   2.319
17332WAT      O52237   2.004   9.512   9.160
17332WAT     H152238   2.096   9.527   9.194
17332WAT     H252239   2.003   9.520   9.060
17333WAT      O52240   7.322   6.138   4.363
17333WAT     H152241   7.369   6.192   4.434
17333WAT     H252242   7.231   6.176   4.349
17334WAT      O52243   0.034   4.620   9.526
17334WAT     H152244   0.090   4.666   9.457
17334WAT     H252245  -0.002   4.688   9.590
17335WAT      O52246   2.129   8.588   3.942
17335WAT     H152247   2.033   8.613   3.950
17335WAT     H252248   2.181   8.629   4.017
17336WAT      O52249   7.347   8.412   2.255
17336WAT     H152250   7.365   8.315   2.239
17336WAT     H252251   7.254   8.424   2.290
17337WAT      O52252   9.272   8.623   4.862
17337WAT     H152253   9.299   8.528   4.845
17337WAT     H252254   9.304   8.651   4.952
17338WAT      O52255   3.233   0.817   5.812
17338WAT     H152256   3.146   0.852   5.848
17338WAT     H252257   3.215   0.751   5.739
17339WAT      O52258   1.114   8.897   0.566
17339WAT     H152259   1.189   8.924   0.506
17339WAT     H252260   1.089   8.802   0.548
17340WAT      O52261   2.612   9.118   5.998
17340WAT     H152262   2.656   9.208   5.993
17340WAT     H252263   2.683   9.047   5.999
17341WAT      O52264   2.251   1.971   7.431
17341WAT     H152265   2.188   1.944   7.504
17341WAT     H252266   2.332   2.014   7.472
17342WAT      O52267   6.817   2.909   4.248
17342WAT     H152268   6.815   2.973   4.171
17342WAT     H252269   6.750   2.836   4.232
17343WAT      O52270   5.729   8.720   6.815
17343WAT     H152271   5.746   8.720   6.914
17343WAT     H252272   5.812   8.748   6.767
17344WAT      O52273   4.430   4.162   1.267
17344WAT     H152274   4.478   4.120   1.190
17344WAT     H252275   4.418   4.260   1.249
17345WAT      O52276   6.554   9.373   3.179
17345WAT     H152277   6.650   9.349   3.191
17345WAT     H252278   6.497   9.293   3.199
17346WAT      O52279   0.145   8.952   8.171
17346WAT     H152280   0.120   9.036   8.219
17346WAT     H252281   0.181   8.885   8.235
17347WAT      O52282   4.707   3.271   5.878
17347WAT     H152283   4.633   3.318   5.926
17347WAT     H252284   4.762   3.220   5.945
17348WAT      O52285   6.938   8.933   3.256
17348WAT     H152286   6.878   8.947   3.177
17348WAT     H252287   6.898   8.976   3.337
17349WAT      O52288   8.199   5.371   7.495
17349WAT     H152289   8.145   5.449   7.462
17349WAT     H252290   8.293   5.400   7.511
17350WAT      O52291   2.548   1.808   8.365
17350WAT     H152292   2.547   1.801   8.266
17350WAT     H252293   2.576   1.720   8.405
17351WAT      O52294   7.172   9.087   5.245
17351WAT     H152295   7.261   9.046   5.224
17351WAT     H252296   7.169   9.180   5.210
17352WAT      O52297   5.318   0.101   3.483
17352WAT     H152298   5.289   0.005   3.486
17352WAT     H252299   5.328   0.130   3.388
17353WAT      O52300   9.771   3.320   8.397
17353WAT     H152301   9.802   3.304   8.491
17353WAT     H252302   9.850   3.320   8.336
17354WAT      O52303   1.190   7.094   6.874
17354WAT     H152304   1.185   7.086   6.973
17354WAT     H252305   1.266   7.038   6.840
17355WAT      O52306   0.223   2.399   5.967
17355WAT     H152307   0.242   2.427   6.061
17355WAT     H252308   0.124   2.396   5.952
17356WAT      O52309   5.958   5.061   5.124
17356WAT     H152310   5.955   4.961   5.127
17356WAT     H252311   6.037   5.091   5.071
17357WAT      O52312   6.851   0.827   9.445
17357WAT     H152313   6.775   0.765   9.429
17357WAT     H252314   6.927   0.803   9.383
17358WAT      O52315   2.626   1.440   9.800
17358WAT     H152316   2.542   1.390   9.822
17358WAT     H252317   2.651   1.500   9.876
17359WAT      O52318   9.748   7.073   7.883
17359WAT     H152319   9.846   7.082   7.897
17359WAT     H252320   9.728   6.985   7.840
17360WAT      O52321   1.236   1.988   9.142
17360WAT     H152322   1.199   2.069   9.096
17360WAT     H252323   1.267   1.922   9.073
17361WAT      O52324   6.235   6.658   3.602
17361WAT     H152325   6.308   6.633   3.666
17361WAT     H252326   6.166   6.586   3.600
17362WAT      O52327   4.230   9.383   8.721
17362WAT     H152328   4.199   9.337   8.804
17362WAT     H252329   4.169   9.459   8.700
17363WAT      O52330   0.550   6.489   9.178
17363WAT     H152331   0.458   6.464   9.207
17363WAT     H252332   0.545   6.569   9.118
17364WAT      O52333   5.579   2.054   0.733
17364WAT     H152334   5.641   2.014   0.665
17364WAT     H252335   5.490   2.009   0.728
17365WAT      O52336   5.468   8.675   6.085
17365WAT     H152337   5.469   8.746   6.155
17365WAT     H252338   5.557   8.629   6.083
17366WAT      O52339   9.760   9.085   4.601
17366WAT     H152340   9.802   9.116   4.686
17366WAT     H252341   9.660   9.094   4.608
17367WAT      O52342   6.145   9.022   4.000
17367WAT     H152343   6.157   8.966   3.918
17367WAT     H252344   6.048   9.049   4.008
17368WAT      O52345   0.294   7.700   8.458
17368WAT     H152346   0.325   7.697   8.553
17368WAT     H252347   0.336   7.625   8.407
17369WAT      O52348   1.586   1.805   8.876
17369WAT     H152349   1.549   1.765   8.792
17369WAT     H252350   1.543   1.763   8.955
17370WAT      O52351   9.620   2.805   2.924
17370WAT     H152352   9.716   2.793   2.949
17370WAT     H252353   9.596   2.902   2.929
17371WAT      O52354   0.107   4.502   2.051
17371WAT     H152355   0.027   4.481   1.995
17371WAT     H252356   0.180   4.539   1.993
17372WAT      O52357   1.268   2.054   2.534
17372WAT     H152358   1.238   2.101   2.616
17372WAT     H252359   1.203   2.070   2.460
17373WAT      O52360   5.408   0.041   8.952
17373WAT     H152361   5.501   0.018   8.922
17373WAT     H252362   5.410   0.123   9.009
17374WAT      O52363   5.477   3.494   1.716
17374WAT     H152364   5.575   3.510   1.706
17374WAT     H252365   5.453   3.493   1.813
17375WAT      O52366   6.730   4.876   6.501
17375WAT     H152367   6.726   4.974   6.520
17375WAT     H252368   6.807   4.835   6.549
17376WAT      O52369   0.275   5.283   6.984
17376WAT     H152370   0.246   5.351   7.052
17376WAT     H252371   0.375   5.276   6.986
17377WAT      O52372   4.043   7.452   6.215
17377WAT     H152373   4.092   7.376   6.171
17377WAT     H252374   3.957   7.418   6.254
17378WAT      O52375   4.529   1.374   4.339
17378WAT     H152376   4.564   1.409   4.426
17378WAT     H252377   4.431   1.357   4.347
17379WAT      O52378   1.727   3.968   4.449
17379WAT     H152379   1.670   3.984   4.530
17379WAT     H252380   1.699   4.029   4.376
17380WAT      O52381   9.155   6.943   5.374
17380WAT     H152382   9.084   6.881   5.342
17380WAT     H252383   9.244   6.911   5.341
17381WAT      O52384   6.246   1.086   8.351
17381WAT     H152385   6.213   1.074   8.258
17381WAT     H252386   6.198   1.162   8.394
17382WAT      O52387   3.547   8.502   3.119
17382WAT     H152388   3.503   8.428   3.068
17382WAT     H252389   3.509   8.590   3.089
17383WAT      O52390   1.618   1.467   3.499
17383WAT     H152391   1.525   1.466   3.462
17383WAT     H252392   1.674   1.401   3.450
17384WAT      O52393   6.748   8.963   1.279
17384WAT     H152394   6.805   8.926   1.352
17384WAT     H252395   6.652   8.964   1.308
17385WAT      O52396   1.807   2.327   4.091
17385WAT     H152397   1.886   2.267   4.106
17385WAT     H252398   1.837   2.410   4.044
17386WAT      O52399   3.321   8.799   6.209
17386WAT     H152400   3.356   8.794   6.303
17386WAT     H252401   3.252   8.871   6.203
17387WAT      O52402   6.661   6.529   2.284
17387WAT     H152403   6.660   6.429   2.277
17387WAT     H252404   6.718   6.567   2.211
17388WAT      O52405   0.639   1.793   1.708
17388WAT     H152406   0.738   1.800   1.721
17388WAT     H252407   0.620   1.733   1.630
17389WAT      O52408   0.045   0.660   1.481
17389WAT     H152409   0.006   0.693   1.395
17389WAT     H252410  -0.026   0.611   1.533
17390WAT      O52411   9.878   5.574   0.509
17390WAT     H152412   9.921   5.563   0.598
17390WAT     H252413   9.947   5.599   0.441
17391WAT      O52414   5.151   1.353   7.005
17391WAT     H152415   5.203   1.341   6.921
17391WAT     H252416   5.210   1.339   7.084
17392WAT      O52417   7.859   2.120   9.328
17392WAT     H152418   7.851   2.021   9.326
17392WAT     H252419   7.771   2.160   9.356
17393WAT      O52420   8.454   9.106   2.709
17393WAT     H152421   8.427   9.096   2.614
17393WAT     H252422   8.434   9.199   2.740
17394WAT      O52423   8.748   5.916   3.888
17394WAT     H152424   8.835   5.931   3.842
17394WAT     H252425   8.674   5.921   3.821
17395WAT      O52426   1.675   8.106   8.222
17395WAT     H152427   1.690   8.205   8.215
17395WAT     H252428   1.740   8.058   8.164
17396WAT      O52429   8.739   7.837   8.263
17396WAT     H152430   8.693   7.785   8.191
17396WAT     H252431   8.830   7.799   8.280
17397WAT      O52432   7.861   1.050   4.528
17397WAT     H152433   7.899   1.032   4.438
17397WAT     H252434   7.790   1.120   4.521
17398WAT      O52435   2.054   5.495   9.200
17398WAT     H152436   2.077   5.520   9.106
17398WAT     H252437   1.977   5.430   9.199
17399WAT      O52438   7.796   3.913   4.943
17399WAT     H152439   7.810   3.853   4.865
17399WAT     H252440   7.851   3.882   5.021
17400WAT      O52441   3.241   4.509   8.367
17400WAT     H152442   3.244   4.505   8.267
17400WAT     H252443   3.154   4.549   8.396
17401WAT      O52444   1.569   8.718   0.788
17401WAT     H152445   1.527   8.627   0.786
17401WAT     H252446   1.668   8.709   0.799
17402WAT      O52447   7.725   8.748   8.353
17402WAT     H152448   7.765   8.810   8.285
17402WAT     H252449   7.744   8.782   8.445
17403WAT      O52450   1.097   9.663   2.554
17403WAT     H152451   1.103   9.629   2.460
17403WAT     H252452   1.004   9.653   2.588
17404WAT      O52453   2.741   6.774   6.845
17404WAT     H152454   2.808   6.810   6.780
17404WAT     H252455   2.790   6.738   6.925
17405WAT      O52456   6.877   8.438   5.735
17405WAT     H152457   6.872   8.532   5.702
17405WAT     H252458   6.860   8.375   5.659
17406WAT      O52459   7.530   6.560   0.980
17406WAT     H152460   7.439   6.540   0.944
17406WAT     H252461   7.535   6.533   1.076
17407WAT      O52462   4.222   3.447   9.231
17407WAT     H152463   4.276   3.418   9.310
17407WAT     H252464   4.211   3.369   9.169
17408WAT      O52465   3.624   3.902   3.283
17408WAT     H152466   3.625   3.833   3.211
17408WAT     H252467   3.640   3.858   3.372
17409WAT      O52468   8.759   7.996   5.570
17409WAT     H152469   8.706   7.911   5.560
17409WAT     H252470   8.850   7.974   5.605
17410WAT      O52471   5.777   3.333   6.302
17410WAT     H152472   5.728   3.381   6.229
17410WAT     H252473   5.797   3.240   6.273
17411WAT      O52474   5.726   5.263   4.511
17411WAT     H152475   5.817   5.223   4.520
17411WAT     H252476   5.718   5.341   4.572
17412WAT      O52477   3.983   4.969   2.516
17412WAT     H152478   3.898   4.923   2.541
17412WAT     H252479   4.052   4.950   2.586
17413WAT      O52480   8.331   9.448   9.268
17413WAT     H152481   8.387   9.371   9.300
17413WAT     H252482   8.235   9.429   9.287
17414WAT      O52483   4.077   0.028   5.761
17414WAT     H152484   4.037   0.120   5.767
17414WAT     H252485   4.176   0.035   5.753
17415WAT      O52486   2.707   5.021   3.311
17415WAT     H152487   2.747   5.106   3.277
17415WAT     H252488   2.777   4.969   3.361
17416WAT      O52489   7.703   2.469   7.494
17416WAT     H152490   7.700   2.411   7.413
17416WAT     H252491   7.638   2.545   7.483
17417WAT      O52492   4.922   9.354   6.705
17417WAT     H152493   4.926   9.436   6.648
17417WAT     H252494   4.864   9.371   6.785
17418WAT      O52495   5.530   3.761   6.490
17418WAT     H152496   5.497   3.681   6.440
17418WAT     H252497   5.628   3.774   6.471
17419WAT      O52498   9.345   3.299   1.068
17419WAT     H152499   9.250   3.280   1.040
17419WAT     H252500   9.391   3.352   0.997
17420WAT      O52501   1.179   5.404   3.346
17420WAT     H152502   1.267   5.449   3.329
17420WAT     H252503   1.195   5.309   3.373
17421WAT      O52504   6.653   3.146   7.077
17421WAT     H152505   6.648   3.095   6.992
17421WAT     H252506   6.743   3.191   7.084
17422WAT      O52507   6.297   5.305   9.357
17422WAT     H152508   6.223   5.331   9.295
17422WAT     H252509   6.367   5.377   9.358
17423WAT      O52510   6.531   5.154   7.012
17423WAT     H152511   6.562   5.206   6.932
17423WAT     H252512   6.499   5.064   6.982
17424WAT      O52513   5.200   1.796   1.845
17424WAT     H152514   5.136   1.843   1.783
17424WAT     H252515   5.255   1.863   1.893
17425WAT      O52516   6.074   5.933   5.866
17425WAT     H152517   6.171   5.942   5.890
17425WAT     H252518   6.066   5.908   5.770
17426WAT      O52519   2.938   7.278   7.683
17426WAT     H152520   2.868   7.228   7.632
17426WAT     H252521   2.971   7.222   7.759
17427WAT      O52522   6.202   2.682   2.573
17427WAT     H152523   6.285   2.629   2.560
17427WAT     H252524   6.149   2.684   2.488
17428WAT      O52525   8.384   0.387   7.587
17428WAT     H152526   8.328   0.469   7.585
17428WAT     H252527   8.444   0.389   7.667
17429WAT      O52528   3.898   3.350   7.141
17429WAT     H152529   3.936   3.431   7.097
17429WAT     H252530   3.817   3.375   7.194
17430WAT      O52531   2.992   1.085   5.060
17430WAT     H152532   2.981   1.167   5.004
17430WAT     H252533   3.082   1.086   5.104
17431WAT      O52534   6.249   7.131   4.305
17431WAT     H152535   6.159   7.130   4.263
17431WAT     H252536   6.290   7.040   4.300
17432WAT      O52537   9.725   7.830   2.231
17432WAT     H152538   9.735   7.731   2.220
17432WAT     H252539   9.702   7.871   2.143
17433WAT      O52540   0.191   8.337   5.775
17433WAT     H152541   0.289   8.343   5.794
17433WAT     H252542   0.147   8.280   5.844
17434WAT      O52543   7.391   0.456   3.721
17434WAT     H152544   7.460   0.528   3.719
17434WAT     H252545   7.367   0.431   3.627
17435WAT      O52546   5.424   7.064   4.183
17435WAT     H152547   5.421   7.130   4.258
17435WAT     H252548   5.460   6.977   4.217
17436WAT      O52549   0.034   0.534   7.899
17436WAT     H152550   0.038   0.435   7.884
17436WAT     H252551  -0.033   0.553   7.972
17437WAT      O52552   8.152   7.045   4.600
17437WAT     H152553   8.210   7.051   4.518
17437WAT     H252554   8.104   6.958   4.602
17438WAT      O52555   1.190   0.209   6.071
17438WAT     H152556   1.163   0.294   6.116
17438WAT     H252557   1.122   0.185   6.002
17439WAT      O52558   2.256   7.695   3.500
17439WAT     H152559   2.172   7.671   3.548
17439WAT     H252560   2.306   7.764   3.551
17440WAT      O52561   2.450   1.031   9.803
17440WAT     H152562   2.489   0.947   9.765
17440WAT     H252563   2.496   1.110   9.763
17441WAT      O52564   4.897   8.732   7.375
17441WAT     H152565   4.869   8.685   7.459
17441WAT     H252566   4.867   8.828   7.380
17442WAT      O52567   0.398   1.867   5.833
17442WAT     H152568   0.373   1.962   5.854
17442WAT     H252569   0.472   1.838   5.893
17443WAT      O52570   1.781   4.383   3.335
17443WAT     H152571   1.710   4.325   3.295
17443WAT     H252572   1.863   4.378   3.279
17444WAT      O52573   8.513   6.224   7.543
17444WAT     H152574   8.555   6.152   7.488
17444WAT     H252575   8.432   6.259   7.495
17445WAT      O52576   6.064   8.669   1.418
17445WAT     H152577   6.153   8.685   1.461
17445WAT     H252578   6.003   8.745   1.440
17446WAT      O52579   4.228   5.193   1.252
17446WAT     H152580   4.219   5.152   1.343
17446WAT     H252581   4.194   5.287   1.255
17447WAT      O52582   8.606   3.343   9.136
17447WAT     H152583   8.624   3.260   9.082
17447WAT     H252584   8.664   3.343   9.217
17448WAT      O52585   2.497   2.837   3.598
17448WAT     H152586   2.445   2.858   3.516
17448WAT     H252587   2.579   2.785   3.573
17449WAT      O52588   3.953   7.215   2.101
17449WAT     H152589   3.869   7.232   2.050
17449WAT     H252590   4.001   7.138   2.061
17450WAT      O52591   1.737   7.607   3.984
17450WAT     H152592   1.648   7.581   3.947
17450WAT     H252593   1.805   7.538   3.960
17451WAT      O52594   4.436   3.825   1.334
17451WAT     H152595   4.359   3.843   1.272
17451WAT     H252596   4.515   3.880   1.306
17452WAT      O52597   0.604   1.399   8.483
17452WAT     H152598   0.514   1.366   8.458
17452WAT     H252599   0.612   1.496   8.459
17453WAT      O52600   6.329   4.644   5.456
17453WAT     H152601   6.239   4.659   5.495
17453WAT     H252602   6.322   4.634   5.357
17454WAT      O52603   5.394   2.714   4.741
17454WAT     H152604   5.413   2.616   4.747
17454WAT     H252605   5.411   2.745   4.648
17455WAT      O52606   9.698   4.788   4.880
17455WAT     H152607   9.619   4.735   4.909
17455WAT     H252608   9.768   4.786   4.952
17456WAT      O52609   3.658   4.466   9.404
17456WAT     H152610   3.615   4.539   9.351
17456WAT     H252611   3.694   4.505   9.489
17457WAT      O52612   1.281   5.982   6.834
17457WAT     H152613   1.233   5.966   6.921
17457WAT     H252614   1.357   6.045   6.849
17458WAT      O52615   4.465   6.391   3.254
17458WAT     H152616   4.393   6.459   3.238
17458WAT     H252617   4.502   6.360   3.167
17459WAT      O52618   7.148   1.387   9.330
17459WAT     H152619   7.132   1.289   9.335
17459WAT     H252620   7.070   1.436   9.369
17460WAT      O52621   0.955   1.002   8.215
17460WAT     H152622   0.929   0.926   8.274
17460WAT     H252623   1.037   1.046   8.253
17461WAT      O52624   1.692   6.211   5.917
17461WAT     H152625   1.674   6.239   6.011
17461WAT     H252626   1.680   6.112   5.909
17462WAT      O52627   4.223   3.642   5.469
17462WAT     H152628   4.209   3.546   5.491
17462WAT     H252629   4.138   3.681   5.434
17463WAT      O52630   1.346   1.709   1.334
17463WAT     H152631   1.297   1.796   1.327
17463WAT     H252632   1.281   1.636   1.354
17464WAT      O52633   7.117   4.419   4.994
17464WAT     H152634   7.133   4.426   4.896
17464WAT     H252635   7.109   4.323   5.020
17465WAT      O52636   9.606   8.942   7.885
17465WAT     H152637   9.535   8.875   7.865
17465WAT     H252638   9.588   8.984   7.974
17466WAT      O52639   6.529   0.290   1.617
17466WAT     H152640   6.463   0.266   1.688
17466WAT     H252641   6.581   0.371   1.645
17467WAT      O52642   8.847   7.441   2.461
17467WAT     H152643   8.860   7.540   2.459
17467WAT     H252644   8.861   7.403   2.370
17468WAT      O52645   7.089   2.989   9.049
17468WAT     H152646   7.103   2.929   9.128
17468WAT     H252647   7.177   3.030   9.023
17469WAT      O52648   6.952   9.375   9.890
17469WAT     H152649   7.010   9.310   9.939
17469WAT     H252650   6.894   9.326   9.825
17470WAT      O52651   1.962   0.022   4.937
17470WAT     H152652   1.990   0.057   5.026
17470WAT     H252653   1.986   0.087   4.865
17471WAT      O52654   0.624   2.402   5.841
17471WAT     H152655   0.628   2.315   5.891
17471WAT     H252656   0.544   2.454   5.870
17472WAT      O52657   4.277   6.781   4.216
17472WAT     H152658   4.348   6.717   4.185
17472WAT     H252659   4.256   6.845   4.143
17473WAT      O52660   4.219   2.559   3.685
17473WAT     H152661   4.266   2.606   3.610
17473WAT     H252662   4.233   2.609   3.770
17474WAT      O52663   9.353   3.605   2.667
17474WAT     H152664   9.451   3.586   2.672
17474WAT     H252665   9.306   3.528   2.624
17475WAT      O52666   9.573   1.850   5.342
17475WAT     H152667   9.628   1.875   5.263
17475WAT     H252668   9.617   1.881   5.426
17476WAT      O52669   7.365   7.655   4.176
17476WAT     H152670   7.442   7.714   4.152
17476WAT     H252671   7.285   7.712   4.195
17477WAT      O52672   2.108   2.184   2.779
17477WAT     H152673   2.022   2.134   2.773
17477WAT     H252674   2.148   2.173   2.870
17478WAT      O52675   9.722   4.068   8.027
17478WAT     H152676   9.633   4.029   8.052
17478WAT     H252677   9.776   4.081   8.110
17479WAT      O52678   7.042   1.688   7.281
17479WAT     H152679   6.970   1.680   7.350
17479WAT     H252680   7.034   1.613   7.216
17480WAT      O52681   5.874   2.198   6.434
17480WAT     H152682   5.844   2.272   6.495
17480WAT     H252683   5.799   2.133   6.423
17481WAT      O52684   2.402   0.878   0.148
17481WAT     H152685   2.399   0.930   0.233
17481WAT     H252686   2.411   0.942   0.071
17482WAT      O52687   1.586   5.678   0.527
17482WAT     H152688   1.559   5.648   0.618
17482WAT     H252689   1.551   5.771   0.511
17483WAT      O52690   8.275   0.308   3.354
17483WAT     H152691   8.361   0.265   3.380
17483WAT     H252692   8.284   0.407   3.360
17484WAT      O52693   9.004   7.528   5.806
17484WAT     H152694   9.084   7.523   5.867
17484WAT     H252695   8.947   7.606   5.833
17485WAT      O52696   6.404   7.760   4.470
17485WAT     H152697   6.495   7.800   4.459
17485WAT     H252698   6.405   7.698   4.549
17486WAT      O52699   1.241   3.097   1.887
17486WAT     H152700   1.192   3.011   1.875
17486WAT     H252701   1.332   3.090   1.847
17487WAT      O52702   9.316   0.510   0.107
17487WAT     H152703   9.337   0.593   0.056
17487WAT     H252704   9.398   0.479   0.156
17488WAT      O52705   6.749   4.374   3.591
17488WAT     H152706   6.742   4.474   3.591
17488WAT     H252707   6.845   4.347   3.593
17489WAT      O52708   0.625   7.776   6.123
17489WAT     H152709   0.645   7.684   6.156
17489WAT     H252710   0.603   7.773   6.025
17490WAT      O52711   2.367   1.571   9.663
17490WAT     H152712   2.429   1.556   9.585
17490WAT     H252713   2.407   1.530   9.745
17491WAT      O52714   5.673   6.945   9.590
17491WAT     H152715   5.580   6.918   9.562
17491WAT     H252716   5.683   7.044   9.578
17492WAT      O52717   9.076   5.363   2.017
17492WAT     H152718   9.029   5.435   1.966
17492WAT     H252719   9.017   5.329   2.090
17493WAT      O52720   4.293   2.207   0.128
17493WAT     H152721   4.333   2.267   0.197
17493WAT     H252722   4.363   2.143   0.094
17494WAT      O52723   7.573   4.841   9.694
17494WAT     H152724   7.473   4.835   9.692
17494WAT     H252725   7.601   4.910   9.761
17495WAT      O52726   6.475   6.649   1.334
17495WAT     H152727   6.429   6.713   1.395
17495WAT     H252728   6.574   6.659   1.344
17496WAT      O52729   2.698   4.887   0.775
17496WAT     H152730   2.774   4.916   0.716
17496WAT     H252731   2.697   4.787   0.782
17497WAT      O52732   1.684   5.441   3.758
17497WAT     H152733   1.763   5.452   3.697
17497WAT     H252734   1.700   5.364   3.820
17498WAT      O52735   4.864   1.706   8.336
17498WAT     H152736   4.853   1.625   8.393
17498WAT     H252737   4.918   1.775   8.385
17499WAT      O52738   2.523   7.558   2.890
17499WAT     H152739   2.592   7.538   2.820
17499WAT     H252740   2.465   7.478   2.903
17500WAT      O52741   6.785   3.877   7.759
17500WAT     H152742   6.788   3.874   7.660
17500WAT     H252743   6.738   3.796   7.794
17501WAT      O52744   4.751   1.636   2.926
17501WAT     H152745   4.813   1.694   2.874
17501WAT     H252746   4.797   1.551   2.953
17502WAT      O52747   9.497   4.049   8.678
17502WAT     H152748   9.440   4.086   8.604
17502WAT     H252749   9.594   4.056   8.652
17503WAT      O52750   9.461   3.540   5.132
17503WAT     H152751   9.408   3.617   5.165
17503WAT     H252752   9.498   3.489   5.211
17504WAT      O52753   7.152   9.218   1.049
17504WAT     H152754   7.053   9.222   1.034
17504WAT     H252755   7.188   9.311   1.056
17505WAT      O52756   1.324   4.271   1.460
17505WAT     H152757   1.309   4.343   1.528
17505WAT     H252758   1.244   4.211   1.456
17506WAT      O52759   1.686   2.085   9.858
17506WAT     H152760   1.657   2.092   9.762
17506WAT     H252761   1.784   2.105   9.864
17507WAT      O52762   2.843   7.561   6.322
17507WAT     H152763   2.843   7.581   6.420
17507WAT     H252764   2.901   7.626   6.274
17508WAT      O52765   0.824   6.619   8.480
17508WAT     H152766   0.823   6.718   8.462
17508WAT     H252767   0.909   6.580   8.445
17509WAT      O52768   6.624   9.586   3.024
17509WAT     H152769   6.553   9.655   3.010
17509WAT     H252770   6.592   9.518   3.090
17510WAT      O52771   5.499   1.481   6.733
17510WAT     H152772   5.592   1.494   6.698
17510WAT     H252773   5.498   1.496   6.832
17511WAT      O52774   7.210   5.955   5.746
17511WAT     H152775   7.268   6.035   5.730
17511WAT     H252776   7.161   5.966   5.833
17512WAT      O52777   5.761   0.781   1.088
17512WAT     H152778   5.778   0.684   1.105
17512WAT     H252779   5.686   0.813   1.146
17513WAT      O52780   4.600   4.967   7.350
17513WAT     H152781   4.601   5.063   7.380
17513WAT     H252782   4.509   4.929   7.363
17514WAT      O52783   1.725   3.468   2.741
17514WAT     H152784   1.708   3.561   2.708
17514WAT     H252785   1.715   3.403   2.665
17515WAT      O52786   7.508   3.564   8.951
17515WAT     H152787   7.436   3.603   8.893
17515WAT     H252788   7.552   3.637   9.003
17516WAT      O52789   0.493   5.711   3.457
17516WAT     H152790   0.573   5.707   3.398
17516WAT     H252791   0.432   5.784   3.425
17517WAT      O52792   5.784   0.105   0.894
17517WAT     H152793   5.837   0.111   0.979
17517WAT     H252794   5.743   0.194   0.875
17518WAT      O52795   1.196   3.689   4.022
17518WAT     H152796   1.233   3.753   4.089
17518WAT     H252797   1.100   3.712   4.003
17519WAT      O52798   4.501   9.791   0.572
17519WAT     H152799   4.498   9.883   0.532
17519WAT     H252800   4.408   9.758   0.587
17520WAT      O52801   1.636   3.727   2.899
17520WAT     H152802   1.615   3.715   2.802
17520WAT     H252803   1.555   3.760   2.947
17521WAT      O52804   4.375   7.717   9.125
17521WAT     H152805   4.371   7.652   9.201
17521WAT     H252806   4.433   7.794   9.151
17522WAT      O52807   1.277   8.912   4.354
17522WAT     H152808   1.281   8.932   4.256
17522WAT     H252809   1.257   8.997   4.404
17523WAT      O52810   7.089   3.259   6.446
17523WAT     H152811   7.112   3.180   6.503
17523WAT     H252812   7.033   3.323   6.500
17524WAT      O52813   3.803   5.208   4.046
17524WAT     H152814   3.708   5.191   4.072
17524WAT     H252815   3.806   5.269   3.967
17525WAT      O52816   4.632   4.891   4.434
17525WAT     H152817   4.695   4.968   4.424
17525WAT     H252818   4.666   4.813   4.381
17526WAT      O52819   6.321   8.884   2.254
17526WAT     H152820   6.311   8.806   2.315
17526WAT     H252821   6.230   8.919   2.230
17527WAT      O52822   9.590   6.630   1.062
17527WAT     H152823   9.661   6.627   1.133
17527WAT     H252824   9.550   6.539   1.051
17528WAT      O52825   1.582   0.996   3.511
17528WAT     H152826   1.676   0.960   3.512
17528WAT     H252827   1.579   1.081   3.563
17529WAT      O52828   6.612   0.290   5.647
17529WAT     H152829   6.674   0.212   5.653
17529WAT     H252830   6.532   0.273   5.704
17530WAT      O52831   7.431   4.967   7.526
17530WAT     H152832   7.412   4.926   7.615
17530WAT     H252833   7.367   4.932   7.458
17531WAT      O52834   3.654   8.343   9.261
17531WAT     H152835   3.725   8.373   9.325
17531WAT     H252836   3.635   8.417   9.196
17532WAT      O52837   9.711   4.614   4.243
17532WAT     H152838   9.801   4.583   4.213
17532WAT     H252839   9.651   4.535   4.254
17533WAT      O52840   9.396   8.626   8.223
17533WAT     H152841   9.337   8.635   8.143
17533WAT     H252842   9.489   8.657   8.200
17534WAT      O52843   1.346   7.449   2.613
17534WAT     H152844   1.424   7.398   2.578
17534WAT     H252845   1.344   7.443   2.713
17535WAT      O52846   7.956   5.845   4.200
17535WAT     H152847   7.859   5.825   4.206
17535WAT     H252848   7.973   5.904   4.120
17536WAT      O52849   1.094   2.260   1.957
17536WAT     H152850   1.009   2.251   2.010
17536WAT     H252851   1.127   2.354   1.964
17537WAT      O52852   1.312   0.946   4.992
17537WAT     H152853   1.308   0.857   4.948
17537WAT     H252854   1.220   0.985   4.997
17538WAT      O52855   7.845   1.116   8.430
17538WAT     H152856   7.793   1.080   8.508
17538WAT     H252857   7.910   1.184   8.462
17539WAT      O52858   4.828   6.954   3.767
17539WAT     H152859   4.794   6.878   3.711
17539WAT     H252860   4.758   6.979   3.834
17540WAT      O52861   6.487   6.444   4.974
17540WAT     H152862   6.521   6.354   4.999
17540WAT     H252863   6.429   6.479   5.048
17541WAT      O52864   1.535   2.828   5.143
17541WAT     H152865   1.629   2.798   5.125
17541WAT     H252866   1.492   2.855   5.057
17542WAT      O52867   0.444   4.213   7.808
17542WAT     H152868   0.367   4.265   7.845
17542WAT     H252869   0.440   4.119   7.840
17543WAT      O52870   4.987   4.760   5.324
17543WAT     H152871   5.061   4.703   5.289
17543WAT     H252872   4.965   4.831   5.258
17544WAT      O52873   2.778   3.173   0.949
17544WAT     H152874   2.769   3.255   0.893
17544WAT     H252875   2.751   3.194   1.043
17545WAT      O52876   8.654   0.800   7.376
17545WAT     H152877   8.580   0.735   7.389
17545WAT     H252878   8.632   0.886   7.422
17546WAT      O52879   6.236   0.254   9.194
17546WAT     H152880   6.334   0.267   9.182
17546WAT     H252881   6.187   0.294   9.117
17547WAT      O52882   5.151   5.694   0.980
17547WAT     H152883   5.198   5.652   1.058
17547WAT     H252884   5.085   5.630   0.942
17548WAT      O52885   1.675   9.403   1.078
17548WAT     H152886   1.702   9.388   1.173
17548WAT     H252887   1.594   9.350   1.058
17549WAT      O52888   2.818   5.803   3.690
17549WAT     H152889   2.741   5.846   3.736
17549WAT     H252890   2.799   5.797   3.591
17550WAT      O52891   3.749   6.992   5.051
17550WAT     H152892   3.684   6.928   5.010
17550WAT     H252893   3.783   6.954   5.137
17551WAT      O52894   4.185   7.024   2.374
17551WAT     H152895   4.242   7.044   2.454
17551WAT     H252896   4.088   7.029   2.400
17552WAT      O52897   4.756   1.641   9.132
17552WAT     H152898   4.716   1.719   9.083
17552WAT     H252899   4.796   1.672   9.218
17553WAT      O52900   1.948   0.722   2.811
17553WAT     H152901   2.015   0.680   2.749
17553WAT     H252902   1.935   0.664   2.891
17554WAT      O52903   5.827   0.907   7.483
17554WAT     H152904   5.762   0.843   7.442
17554WAT     H252905   5.787   0.948   7.565
17555WAT      O52906   2.348   3.423   9.343
17555WAT     H152907   2.288   3.358   9.296
17555WAT     H252908   2.385   3.488   9.277
17556WAT      O52909   8.364   6.049   1.124
17556WAT     H152910   8.421   6.042   1.042
17556WAT     H252911   8.418   6.087   1.199
17557WAT      O52912   0.665   4.324   7.377
17557WAT     H152913   0.653   4.264   7.456
17557WAT     H252914   0.738   4.288   7.319
17558WAT      O52915   1.036   0.745   7.487
17558WAT     H152916   1.074   0.759   7.578
17558WAT     H252917   1.104   0.770   7.418
17559WAT      O52918   8.033   0.321   6.341
17559WAT     H152919   8.093   0.278   6.273
17559WAT     H252920   7.972   0.253   6.380
17560WAT      O52921   5.700   6.654   5.006
17560WAT     H152922   5.653   6.572   4.973
17560WAT     H252923   5.774   6.677   4.943
17561WAT      O52924   8.723   1.255   4.268
17561WAT     H152925   8.638   1.254   4.320
17561WAT     H252926   8.779   1.176   4.293
17562WAT      O52927   6.481   1.527   5.777
17562WAT     H152928   6.401   1.573   5.738
17562WAT     H252929   6.503   1.446   5.722
17563WAT      O52930   1.675   7.622   9.848
17563WAT     H152931   1.741   7.562   9.894
17563WAT     H252932   1.582   7.593   9.873
17564WAT      O52933   3.155   8.417   2.955
17564WAT     H152934   3.232   8.354   2.955
17564WAT     H252935   3.187   8.511   2.939
17565WAT      O52936   0.651   7.497   6.164
17565WAT     H152937   0.643   7.481   6.262
17565WAT     H252938   0.566   7.472   6.119
17566WAT      O52939   6.468   1.953   1.014
17566WAT     H152940   6.463   1.864   0.968
17566WAT     H252941   6.393   1.960   1.080
17567WAT      O52942   1.267   4.842   0.008
17567WAT     H152943   1.194   4.774   0.001
17567WAT     H252944   1.227   4.932   0.025
17568WAT      O52945   7.861   4.817   1.016
17568WAT     H152946   7.875   4.870   0.932
17568WAT     H252947   7.786   4.752   1.001
17569WAT      O52948   7.362   2.023   2.305
17569WAT     H152949   7.286   2.036   2.243
17569WAT     H252950   7.443   2.071   2.270
17570WAT      O52951   4.953   0.539   1.949
17570WAT     H152952   4.887   0.614   1.949
17570WAT     H252953   4.959   0.501   2.042
17571WAT      O52954   7.278   9.457   1.173
17571WAT     H152955   7.281   9.557   1.170
17571WAT     H252956   7.345   9.424   1.240
17572WAT      O52957   7.750   1.703   8.512
17572WAT     H152958   7.801   1.787   8.496
17572WAT     H252959   7.774   1.635   8.443
17573WAT      O52960   4.441   9.557   1.060
17573WAT     H152961   4.479   9.543   1.152
17573WAT     H252962   4.446   9.472   1.008
17574WAT      O52963   6.108   0.084   0.923
17574WAT     H152964   6.052   0.003   0.906
17574WAT     H252965   6.204   0.056   0.930
17575WAT      O52966   0.930   3.698   9.725
17575WAT     H152967   0.845   3.746   9.744
17575WAT     H252968   0.956   3.712   9.629
17576WAT      O52969   0.605   3.311   3.448
17576WAT     H152970   0.660   3.385   3.487
17576WAT     H252971   0.535   3.350   3.387
17577WAT      O52972   4.969   1.509   0.580
17577WAT     H152973   4.914   1.535   0.500
17577WAT     H252974   5.065   1.526   0.561
17578WAT      O52975   9.253   3.862   4.090
17578WAT     H152976   9.301   3.950   4.095
17578WAT     H252977   9.155   3.878   4.086
17579WAT      O52978   5.955   2.692   8.947
17579WAT     H152979   5.993   2.621   8.888
17579WAT     H252980   5.855   2.686   8.944
17580WAT      O52981   9.453   9.139   1.033
17580WAT     H152982   9.530   9.202   1.040
17580WAT     H252983   9.370   9.183   1.067
17581WAT      O52984   2.623   2.992   7.245
17581WAT     H152985   2.524   2.992   7.259
17581WAT     H252986   2.643   3.029   7.154
17582WAT      O52987   3.357   2.214   9.485
17582WAT     H152988   3.348   2.254   9.393
17582WAT     H252989   3.358   2.287   9.553
17583WAT      O52990   3.044   5.160   3.790
17583WAT     H152991   3.095   5.076   3.772
17583WAT     H252992   3.081   5.204   3.872
17584WAT      O52993   6.468   5.258   6.417
17584WAT     H152994   6.541   5.269   6.350
17584WAT     H252995   6.491   5.182   6.479
17585WAT      O52996   8.181   4.570   3.917
17585WAT     H152997   8.189   4.512   3.836
17585WAT     H252998   8.256   4.637   3.918
17586WAT      O52999   3.736   2.178   6.620
17586WAT     H153000   3.693   2.266   6.639
17586WAT     H253001   3.831   2.180   6.651
17587WAT      O53002   9.651   3.852   3.837
17587WAT     H153003   9.617   3.845   3.931
17587WAT     H253004   9.745   3.817   3.833
17588WAT      O53005   5.088   7.012   3.719
17588WAT     H153006   5.151   6.950   3.764
17588WAT     H253007   4.996   6.998   3.755
17589WAT      O53008   1.199   1.467   3.794
17589WAT     H153009   1.259   1.398   3.753
17589WAT     H253010   1.134   1.499   3.725
17590WAT      O53011   4.221   8.036   8.574
17590WAT     H153012   4.296   8.040   8.640
17590WAT     H253013   4.242   7.968   8.504
17591WAT      O53014   1.255   4.716   4.415
17591WAT     H153015   1.237   4.686   4.321
17591WAT     H253016   1.309   4.800   4.413
17592WAT      O53017   8.103   6.034   8.928
17592WAT     H153018   8.116   6.004   8.833
17592WAT     H253019   8.187   6.076   8.961
17593WAT      O53020   3.183   9.366   6.708
17593WAT     H153021   3.269   9.410   6.684
17593WAT     H253022   3.201   9.285   6.765
17594WAT      O53023   5.929   2.066   3.416
17594WAT     H153024   5.918   2.151   3.365
17594WAT     H253025   6.012   2.019   3.386
17595WAT      O53026   0.756   7.743   0.470
17595WAT     H153027   0.661   7.773   0.475
17595WAT     H253028   0.814   7.808   0.519
17596WAT      O53029   7.662   0.562   0.450
17596WAT     H153030   7.658   0.551   0.350
17596WAT     H253031   7.571   0.585   0.484
17597WAT      O53032   7.213   1.973   4.587
17597WAT     H153033   7.264   2.058   4.593
17597WAT     H253034   7.123   1.985   4.630
17598WAT      O53035   1.433   5.109   5.949
17598WAT     H153036   1.425   5.071   6.041
17598WAT     H253037   1.418   5.208   5.952
17599WAT      O53038   6.602   9.236   1.064
17599WAT     H153039   6.511   9.196   1.062
17599WAT     H253040   6.642   9.224   1.155
17600WAT      O53041   2.623   2.378   4.775
17600WAT     H153042   2.635   2.437   4.694
17600WAT     H253043   2.657   2.426   4.856
17601WAT      O53044   3.231   4.444   1.016
17601WAT     H153045   3.206   4.395   1.099
17601WAT     H253046   3.315   4.496   1.031
17602WAT      O53047   3.054   8.185   2.754
17602WAT     H153048   3.050   8.252   2.680
17602WAT     H253049   3.146   8.145   2.758
17603WAT      O53050   4.343   1.255   9.186
17603WAT     H153051   4.311   1.329   9.126
17603WAT     H253052   4.266   1.213   9.233
17604WAT      O53053   0.297   3.070   2.656
17604WAT     H153054   0.257   2.995   2.604
17604WAT     H253055   0.322   3.144   2.595
17605WAT      O53056   6.182   3.807   8.870
17605WAT     H153057   6.107   3.857   8.826
17605WAT     H253058   6.172   3.710   8.852
17606WAT      O53059   4.947   0.144   0.553
17606WAT     H153060   4.888   0.202   0.496
17606WAT     H253061   4.925   0.159   0.649
17607WAT      O53062   6.528   5.114   2.231
17607WAT     H153063   6.474   5.174   2.290
17607WAT     H253064   6.578   5.169   2.164
17608WAT      O53065   8.740   4.631   5.835
17608WAT     H153066   8.714   4.727   5.828
17608WAT     H253067   8.836   4.620   5.811
17609WAT      O53068   0.529   3.576   9.580
17609WAT     H153069   0.538   3.597   9.677
17609WAT     H253070   0.590   3.636   9.528
17610WAT      O53071   2.184   2.518   5.203
17610WAT     H153072   2.137   2.588   5.256
17610WAT     H253073   2.157   2.524   5.107
17611WAT      O53074   2.285   8.081   4.158
17611WAT     H153075   2.279   8.132   4.073
17611WAT     H253076   2.251   8.137   4.233
17612WAT      O53077   0.771   4.303   2.937
17612WAT     H153078   0.763   4.399   2.960
17612WAT     H253079   0.796   4.250   3.018
17613WAT      O53080   4.469   6.196   1.992
17613WAT     H153081   4.462   6.294   2.015
17613WAT     H253082   4.390   6.148   2.028
17614WAT      O53083   8.274   3.932   6.401
17614WAT     H153084   8.219   4.008   6.438
17614WAT     H253085   8.267   3.932   6.301
17615WAT      O53086   6.697   4.004   5.507
17615WAT     H153087   6.744   3.921   5.478
17615WAT     H253088   6.726   4.028   5.600
17616WAT      O53089   7.332   0.023   1.854
17616WAT     H153090   7.366   0.049   1.764
17616WAT     H253091   7.320  -0.077   1.858
17617WAT      O53092   4.449   4.597   6.527
17617WAT     H153093   4.417   4.684   6.490
17617WAT     H253094   4.516   4.557   6.465
17618WAT      O53095   1.044   6.820   3.119
17618WAT     H153096   1.057   6.725   3.146
17618WAT     H253097   1.129   6.870   3.129
17619WAT      O53098   8.614   3.142   8.271
17619WAT     H153099   8.681   3.215   8.285
17619WAT     H253100   8.633   3.095   8.185
17620WAT      O53101   2.109   5.706   9.764
17620WAT     H153102   2.076   5.779   9.705
17620WAT     H253103   2.209   5.709   9.768
17621WAT      O53104   0.659   2.658   8.294
17621WAT     H153105   0.751   2.638   8.328
17621WAT     H253106   0.659   2.659   8.194
17622WAT      O53107   7.682   4.063   2.679
17622WAT     H153108   7.760   4.122   2.699
17622WAT     H253109   7.655   4.075   2.584
17623WAT      O53110   8.501   4.169   3.597
17623WAT     H153111   8.454   4.201   3.679
17623WAT     H253112   8.570   4.101   3.623
17624WAT      O53113   1.826   3.971   5.366
17624WAT     H153114   1.881   4.052   5.384
17624WAT     H253115   1.794   3.932   5.452
17625WAT      O53116   7.771   9.061   6.823
17625WAT     H153117   7.867   9.033   6.822
17625WAT     H253118   7.717   8.991   6.870
17626WAT      O53119   5.509   2.390   7.003
17626WAT     H153120   5.596   2.357   7.041
17626WAT     H253121   5.508   2.490   7.003
17627WAT      O53122   7.436   3.424   0.994
17627WAT     H153123   7.489   3.487   1.051
17627WAT     H253124   7.354   3.397   1.044
17628WAT      O53125   2.293   5.879   9.470
17628WAT     H153126   2.276   5.959   9.527
17628WAT     H253127   2.356   5.818   9.517
17629WAT      O53128   8.101   2.848   0.205
17629WAT     H153129   8.156   2.824   0.285
17629WAT     H253130   8.077   2.765   0.154
17630WAT      O53131   1.242   6.112   7.767
17630WAT     H153132   1.191   6.184   7.720
17630WAT     H253133   1.195   6.089   7.852
17631WAT      O53134   3.293   8.585   6.598
17631WAT     H153135   3.349   8.649   6.546
17631WAT     H253136   3.329   8.579   6.691
17632WAT      O53137   2.333   6.061   6.360
17632WAT     H153138   2.282   6.070   6.445
17632WAT     H253139   2.269   6.063   6.282
17633WAT      O53140   6.850   2.224   4.269
17633WAT     H153141   6.778   2.156   4.282
17633WAT     H253142   6.922   2.185   4.212
17634WAT      O53143   6.994   0.290   7.239
17634WAT     H153144   7.012   0.298   7.141
17634WAT     H253145   6.907   0.242   7.253
17635WAT      O53146   6.186   4.743   4.446
17635WAT     H153147   6.227   4.651   4.440
17635WAT     H253148   6.258   4.812   4.434
17636WAT      O53149   2.519   4.804   5.448
17636WAT     H153150   2.529   4.718   5.399
17636WAT     H253151   2.561   4.878   5.395
17637WAT      O53152   0.337   0.486   5.181
17637WAT     H153153   0.378   0.417   5.121
17637WAT     H253154   0.253   0.521   5.140
17638WAT      O53155   7.450   3.242   8.536
17638WAT     H153156   7.378   3.257   8.468
17638WAT     H253157   7.488   3.150   8.523
17639WAT      O53158   1.916   6.292   3.394
17639WAT     H153159   1.846   6.277   3.464
17639WAT     H253160   1.890   6.370   3.338
17640WAT      O53161   7.681   5.768   4.138
17640WAT     H153162   7.675   5.854   4.088
17640WAT     H253163   7.597   5.753   4.190
17641WAT      O53164   2.993   1.913   5.960
17641WAT     H153165   2.941   1.981   5.909
17641WAT     H253166   2.935   1.833   5.977
17642WAT      O53167   8.861   3.225   0.596
17642WAT     H153168   8.864   3.154   0.667
17642WAT     H253169   8.902   3.189   0.512
17643WAT      O53170   1.126   0.935   9.014
17643WAT     H153171   1.082   1.005   9.071
17643WAT     H253172   1.224   0.950   9.012
17644WAT      O53173   6.562   4.698   4.326
17644WAT     H153174   6.552   4.599   4.333
17644WAT     H253175   6.654   4.721   4.295
17645WAT      O53176   7.124   7.019   7.640
17645WAT     H153177   7.194   7.047   7.705
17645WAT     H253178   7.149   7.051   7.548
17646WAT      O53179   4.291   4.796   2.417
17646WAT     H153180   4.275   4.870   2.482
17646WAT     H253181   4.239   4.715   2.444
17647WAT      O53182   9.679   7.362   1.616
17647WAT     H153183   9.614   7.422   1.662
17647WAT     H253184   9.760   7.351   1.674
17648WAT      O53185   5.837   4.763   2.999
17648WAT     H153186   5.780   4.689   3.033
17648WAT     H253187   5.926   4.726   2.970
17649WAT      O53188   5.365   5.816   2.907
17649WAT     H153189   5.325   5.862   2.827
17649WAT     H253190   5.326   5.724   2.915
17650WAT      O53191   1.212   6.956   1.398
17650WAT     H153192   1.308   6.966   1.422
17650WAT     H253193   1.183   6.861   1.415
17651WAT      O53194   0.640   4.835   7.803
17651WAT     H153195   0.592   4.901   7.862
17651WAT     H253196   0.712   4.790   7.856
17652WAT      O53197   8.252   0.954   5.545
17652WAT     H153198   8.235   0.855   5.548
17652WAT     H253199   8.206   0.998   5.622
17653WAT      O53200   6.688   6.268   3.015
17653WAT     H153201   6.731   6.220   3.092
17653WAT     H253202   6.589   6.273   3.029
17654WAT      O53203   0.283   2.131   5.370
17654WAT     H153204   0.367   2.138   5.315
17654WAT     H253205   0.288   2.049   5.427
17655WAT      O53206   1.089   5.094   5.941
17655WAT     H153207   1.095   5.132   6.034
17655WAT     H253208   1.138   5.154   5.878
17656WAT      O53209   6.776   1.938   7.594
17656WAT     H153210   6.802   1.856   7.645
17656WAT     H253211   6.852   2.002   7.592
17657WAT      O53212   9.296   1.881   5.733
17657WAT     H153213   9.265   1.842   5.646
17657WAT     H253214   9.389   1.850   5.753
17658WAT      O53215   2.202   5.407   9.421
17658WAT     H153216   2.116   5.457   9.422
17658WAT     H253217   2.188   5.317   9.381
17659WAT      O53218   2.831   4.365   6.787
17659WAT     H153219   2.866   4.396   6.876
17659WAT     H253220   2.777   4.282   6.799
17660WAT      O53221   2.595   1.162   2.689
17660WAT     H153222   2.694   1.168   2.677
17660WAT     H253223   2.550   1.209   2.613
17661WAT      O53224   2.083   9.336   2.020
17661WAT     H153225   2.066   9.246   2.061
17661WAT     H253226   2.062   9.333   1.922
17662WAT      O53227   5.071   4.151   1.878
17662WAT     H153228   5.058   4.234   1.932
17662WAT     H253229   5.082   4.176   1.782
17663WAT      O53230   0.156   5.311   4.631
17663WAT     H153231   0.165   5.338   4.727
17663WAT     H253232   0.209   5.228   4.615
17664WAT      O53233   7.671   7.023   8.452
17664WAT     H153234   7.632   7.014   8.544
17664WAT     H253235   7.607   7.073   8.394
17665WAT      O53236   9.052   6.497   2.498
17665WAT     H153237   9.056   6.444   2.414
17665WAT     H253238   9.071   6.593   2.477
17666WAT      O53239   6.691   7.294   9.562
17666WAT     H153240   6.675   7.351   9.482
17666WAT     H253241   6.789   7.290   9.582
17667WAT      O53242   1.570   4.365   2.477
17667WAT     H153243   1.662   4.326   2.479
17667WAT     H253244   1.560   4.433   2.550
17668WAT      O53245   0.190   3.864   1.248
17668WAT     H153246   0.166   3.959   1.227
17668WAT     H253247   0.242   3.825   1.172
17669WAT      O53248   6.562   9.611   7.217
17669WAT     H153249   6.626   9.534   7.213
17669WAT     H253250   6.487   9.588   7.279
17670WAT      O53251   7.289   3.788   7.108
17670WAT     H153252   7.302   3.761   7.012
17670WAT     H253253   7.238   3.873   7.112
17671WAT      O53254   2.121   2.363   4.510
17671WAT     H153255   2.118   2.290   4.442
17671WAT     H253256   2.027   2.394   4.529
17672WAT      O53257   6.788   4.942   5.874
17672WAT     H153258   6.699   4.975   5.843
17672WAT     H253259   6.825   4.877   5.808
17673WAT      O53260   3.720   2.160   1.052
17673WAT     H153261   3.685   2.189   1.141
17673WAT     H253262   3.677   2.216   0.980
17674WAT      O53263   9.807   0.696   2.916
17674WAT     H153264   9.826   0.773   2.855
17674WAT     H253265   9.779   0.617   2.862
17675WAT      O53266   7.570   7.577   7.737
17675WAT     H153267   7.526   7.652   7.787
17675WAT     H253268   7.621   7.520   7.801
17676WAT      O53269   6.241   5.736   2.637
17676WAT     H153270   6.322   5.688   2.603
17676WAT     H253271   6.258   5.768   2.731
17677WAT      O53272   4.896   3.952   1.163
17677WAT     H153273   4.930   3.869   1.207
17677WAT     H253274   4.973   4.010   1.137
17678WAT      O53275   0.255   0.796   6.429
17678WAT     H153276   0.227   0.892   6.426
17678WAT     H253277   0.319   0.781   6.504
17679WAT      O53278   7.034   4.034   7.708
17679WAT     H153279   7.023   4.096   7.786
17679WAT     H253280   6.949   3.983   7.694
17680WAT      O53281   6.874   3.962   0.054
17680WAT     H153282   6.869   4.056   0.088
17680WAT     H253283   6.968   3.928   0.061
17681WAT      O53284   4.686   5.288   3.542
17681WAT     H153285   4.680   5.339   3.628
17681WAT     H253286   4.617   5.216   3.541
17682WAT      O53287   2.989   1.911   0.176
17682WAT     H153288   3.001   1.844   0.249
17682WAT     H253289   3.064   1.977   0.179
17683WAT      O53290   4.621   3.763   2.083
17683WAT     H153291   4.678   3.835   2.045
17683WAT     H253292   4.525   3.783   2.067
17684WAT      O53293   7.697   6.334   4.432
17684WAT     H153294   7.737   6.400   4.495
17684WAT     H253295   7.619   6.289   4.475
17685WAT      O53296   9.818   2.925   6.273
17685WAT     H153297   9.807   2.846   6.213
17685WAT     H253298   9.914   2.954   6.272
17686WAT      O53299   3.664   4.342   1.108
17686WAT     H153300   3.750   4.383   1.137
17686WAT     H253301   3.618   4.303   1.188
17687WAT      O53302   4.219   8.680   2.721
17687WAT     H153303   4.289   8.621   2.682
17687WAT     H253304   4.224   8.770   2.679
17688WAT      O53305   4.150   8.900   0.011
17688WAT     H153306   4.202   8.891  -0.074
17688WAT     H253307   4.160   8.816   0.065
17689WAT      O53308   1.610   6.015   2.487
17689WAT     H153309   1.635   6.072   2.566
17689WAT     H253310   1.532   5.958   2.510
17690WAT      O53311   8.052   9.381   8.498
17690WAT     H153312   7.969   9.340   8.460
17690WAT     H253313   8.037   9.404   8.594
17691WAT      O53314   1.401   1.078   6.620
17691WAT     H153315   1.344   1.160   6.617
17691WAT     H253316   1.469   1.087   6.693
17692WAT      O53317   6.256   9.824   9.249
17692WAT     H153318   6.236   9.841   9.345
17692WAT     H253319   6.251   9.910   9.198
17693WAT      O53320   4.159   4.125   4.410
17693WAT     H153321   4.203   4.037   4.430
17693WAT     H253322   4.229   4.193   4.387
17694WAT      O53323   5.286   6.770   0.465
17694WAT     H153324   5.293   6.818   0.377
17694WAT     H253325   5.304   6.673   0.451
17695WAT      O53326   2.459   6.275   7.599
17695WAT     H153327   2.499   6.190   7.565
17695WAT     H253328   2.364   6.258   7.627
17696WAT      O53329   0.094   1.592   3.194
17696WAT     H153330   0.153   1.665   3.159
17696WAT     H253331   0.147   1.507   3.201
17697WAT      O53332   7.992   2.841   3.871
17697WAT     H153333   7.998   2.743   3.854
17697WAT     H253334   8.076   2.873   3.915
17698WAT      O53335   4.084   9.053   3.730
17698WAT     H153336   4.065   9.088   3.638
17698WAT     H253337   4.180   9.070   3.752
17699WAT      O53338   6.654   5.871   4.567
17699WAT     H153339   6.650   5.887   4.665
17699WAT     H253340   6.746   5.842   4.541
17700WAT      O53341   5.660   4.466   2.493
17700WAT     H153342   5.689   4.378   2.454
17700WAT     H253343   5.699   4.540   2.439
17701WAT      O53344   4.530   1.650   4.772
17701WAT     H153345   4.622   1.662   4.810
17701WAT     H253346   4.503   1.733   4.723
17702WAT      O53347   1.172   1.105   1.595
17702WAT     H153348   1.112   1.050   1.653
17702WAT     H253349   1.250   1.138   1.649
17703WAT      O53350   6.293   3.355   3.021
17703WAT     H153351   6.225   3.422   3.049
17703WAT     H253352   6.248   3.277   2.977
17704WAT      O53353   9.039   5.928   4.313
17704WAT     H153354   9.062   6.024   4.332
17704WAT     H253355   8.944   5.911   4.341
17705WAT      O53356   9.619   2.772   2.571
17705WAT     H153357   9.605   2.749   2.667
17705WAT     H253358   9.531   2.789   2.527
17706WAT      O53359   4.348   6.329   9.756
17706WAT     H153360   4.353   6.275   9.672
17706WAT     H253361   4.328   6.268   9.834
17707WAT      O53362   1.364   2.893   7.104
17707WAT     H153363   1.378   2.984   7.144
17707WAT     H253364   1.407   2.890   7.013
17708WAT      O53365   9.054   3.358   0.715
17708WAT     H153366   8.976   3.309   0.675
17708WAT     H253367   9.137   3.335   0.664
17709WAT      O53368   5.004   3.548   9.867
17709WAT     H153369   5.034   3.453   9.875
17709WAT     H253370   4.956   3.576   9.950
17710WAT      O53371   5.672   0.767   6.940
17710WAT     H153372   5.713   0.792   7.027
17710WAT     H253373   5.626   0.679   6.949
17711WAT      O53374   0.938   7.793   8.662
17711WAT     H153375   0.866   7.758   8.723
17711WAT     H253376   1.027   7.781   8.706
17712WAT      O53377   3.450   9.638   2.958
17712WAT     H153378   3.433   9.540   2.957
17712WAT     H253379   3.492   9.666   2.872
17713WAT      O53380   9.557   2.070   2.123
17713WAT     H153381   9.510   1.987   2.152
17713WAT     H253382   9.542   2.143   2.190
17714WAT      O53383   5.876   0.008   6.218
17714WAT     H153384   5.912  -0.003   6.126
17714WAT     H253385   5.843   0.102   6.230
17715WAT      O53386   8.545   5.040   3.238
17715WAT     H153387   8.530   4.943   3.218
17715WAT     H253388   8.630   5.050   3.291
17716WAT      O53389   8.222   6.088   0.733
17716WAT     H153390   8.217   5.989   0.748
17716WAT     H253391   8.229   6.135   0.822
17717WAT      O53392   8.789   8.202   5.758
17717WAT     H153393   8.690   8.213   5.751
17717WAT     H253394   8.817   8.117   5.714
17718WAT      O53395   6.126   6.301   6.067
17718WAT     H153396   6.160   6.229   6.127
17718WAT     H253397   6.057   6.355   6.115
17719WAT      O53398   0.884   6.410   2.709
17719WAT     H153399   0.952   6.376   2.643
17719WAT     H253400   0.807   6.451   2.660
17720WAT      O53401   0.672   1.721   3.646
17720WAT     H153402   0.667   1.748   3.550
17720WAT     H253403   0.655   1.623   3.654
17721WAT      O53404   6.874   0.127   3.638
17721WAT     H153405   6.965   0.093   3.663
17721WAT     H253406   6.882   0.191   3.562
17722WAT      O53407   8.247   7.560   2.861
17722WAT     H153408   8.324   7.499   2.838
17722WAT     H253409   8.171   7.543   2.798
17723WAT      O53410   5.735   5.098   9.210
17723WAT     H153411   5.638   5.106   9.188
17723WAT     H253412   5.779   5.035   9.145
17724WAT      O53413   7.719   7.024   5.622
17724WAT     H153414   7.772   7.107   5.639
17724WAT     H253415   7.778   6.956   5.577
17725WAT      O53416   8.047   4.808   5.576
17725WAT     H153417   8.146   4.804   5.589
17725WAT     H253418   8.001   4.782   5.661
17726WAT      O53419   6.319   8.626   8.623
17726WAT     H153420   6.396   8.676   8.583
17726WAT     H253421   6.320   8.639   8.723
17727WAT      O53422   3.150   5.578   7.316
17727WAT     H153423   3.119   5.657   7.369
17727WAT     H253424   3.077   5.509   7.313
17728WAT      O53425   7.184   4.314   2.130
17728WAT     H153426   7.149   4.387   2.189
17728WAT     H253427   7.196   4.349   2.037
17729WAT      O53428   3.177   3.152   3.075
17729WAT     H153429   3.200   3.205   2.994
17729WAT     H253430   3.222   3.063   3.071
17730WAT      O53431   7.547   0.521   1.510
17730WAT     H153432   7.457   0.537   1.550
17730WAT     H253433   7.585   0.607   1.476
17731WAT      O53434   0.156   1.357   2.853
17731WAT     H153435   0.255   1.372   2.851
17731WAT     H253436   0.111   1.440   2.884
17732WAT      O53437   5.029   5.333   2.974
17732WAT     H153438   5.073   5.243   2.984
17732WAT     H253439   5.010   5.349   2.877
17733WAT      O53440   7.871   5.362   0.151
17733WAT     H153441   7.811   5.316   0.216
17733WAT     H253442   7.947   5.302   0.127
17734WAT      O53443   6.825   5.747   0.219
17734WAT     H153444   6.900   5.788   0.167
17734WAT     H253445   6.862   5.706   0.303
17735WAT      O53446   4.201   3.241   9.065
17735WAT     H153447   4.294   3.225   9.032
17735WAT     H253448   4.136   3.189   9.009
17736WAT      O53449   1.105   0.890   5.567
17736WAT     H153450   1.128   0.986   5.548
17736WAT     H253451   1.037   0.887   5.641
17737WAT      O53452   9.864   7.706   3.581
17737WAT     H153453   9.834   7.612   3.596
17737WAT     H253454   9.963   7.712   3.591
17738WAT      O53455   5.010   7.662   3.191
17738WAT     H153456   4.925   7.676   3.242
17738WAT     H253457   5.028   7.564   3.184
17739WAT      O53458   1.501   4.517   9.789
17739WAT     H153459   1.461   4.522   9.881
17739WAT     H253460   1.440   4.561   9.724
17740WAT      O53461   8.415   1.823   2.582
17740WAT     H153462   8.427   1.920   2.603
17740WAT     H253463   8.476   1.797   2.508
17741WAT      O53464   5.607   6.688   3.370
17741WAT     H153465   5.623   6.729   3.460
17741WAT     H253466   5.611   6.759   3.300
17742WAT      O53467   7.998   3.740   0.107
17742WAT     H153468   8.086   3.692   0.103
17742WAT     H253469   8.015   3.838   0.113
17743WAT      O53470   2.027   7.451   9.762
17743WAT     H153471   1.939   7.447   9.713
17743WAT     H253472   2.054   7.358   9.788
17744WAT      O53473   4.798   8.822   0.343
17744WAT     H153474   4.796   8.775   0.431
17744WAT     H253475   4.711   8.806   0.295
17745WAT      O53476   1.261   5.085   9.349
17745WAT     H153477   1.253   5.047   9.257
17745WAT     H253478   1.273   5.184   9.344
17746WAT      O53479   0.914   6.897   4.347
17746WAT     H153480   0.922   6.993   4.372
17746WAT     H253481   0.889   6.843   4.428
17747WAT      O53482   5.091   9.183   2.268
17747WAT     H153483   5.171   9.142   2.311
17747WAT     H253484   5.028   9.110   2.239
17748WAT      O53485   6.319   2.592   3.244
17748WAT     H153486   6.225   2.626   3.249
17748WAT     H253487   6.328   2.533   3.163
17749WAT      O53488   0.874   0.524   5.038
17749WAT     H153489   0.928   0.511   4.955
17749WAT     H253490   0.932   0.560   5.111
17750WAT      O53491   5.222   7.522   4.496
17750WAT     H153492   5.322   7.524   4.506
17750WAT     H253493   5.190   7.613   4.469
17751WAT      O53494   0.915   4.548   8.716
17751WAT     H153495   0.847   4.550   8.642
17751WAT     H253496   0.872   4.579   8.801
17752WAT      O53497   9.331   8.230   6.546
17752WAT     H153498   9.268   8.163   6.586
17752WAT     H253499   9.340   8.308   6.608
17753WAT      O53500   9.393   8.711   9.773
17753WAT     H153501   9.492   8.703   9.783
17753WAT     H253502   9.369   8.713   9.676
17754WAT      O53503   2.898   6.432   0.320
17754WAT     H153504   2.805   6.407   0.292
17754WAT     H253505   2.963   6.395   0.253
17755WAT      O53506   1.220   9.831   7.430
17755WAT     H153507   1.145   9.824   7.365
17755WAT     H253508   1.188   9.882   7.511
17756WAT      O53509   2.533   5.042   4.279
17756WAT     H153510   2.553   5.089   4.193
17756WAT     H253511   2.446   5.074   4.315
17757WAT      O53512   6.426   6.979   3.302
17757WAT     H153513   6.445   6.986   3.204
17757WAT     H253514   6.478   6.903   3.340
17758WAT      O53515   7.609   2.452   6.864
17758WAT     H153516   7.630   2.494   6.952
17758WAT     H253517   7.570   2.521   6.802
17759WAT      O53518   4.536   0.322   1.750
17759WAT     H153519   4.524   0.232   1.709
17759WAT     H253520   4.553   0.311   1.848
17760WAT      O53521   8.021   5.886   8.420
17760WAT     H153522   8.108   5.917   8.381
17760WAT     H253523   8.031   5.877   8.519
17761WAT      O53524   1.724   4.562   0.584
17761WAT     H153525   1.656   4.600   0.648
17761WAT     H253526   1.678   4.534   0.500
17762WAT      O53527   2.469   0.531   6.573
17762WAT     H153528   2.373   0.503   6.567
17762WAT     H253529   2.522   0.482   6.504
17763WAT      O53530   0.044   2.417   0.479
17763WAT     H153531   0.118   2.376   0.533
17763WAT     H253532   0.082   2.460   0.398
17764WAT      O53533   2.964   0.470   0.642
17764WAT     H153534   2.876   0.432   0.613
17764WAT     H253535   3.004   0.411   0.712
17765WAT      O53536   8.800   2.235   2.023
17765WAT     H153537   8.810   2.331   1.994
17765WAT     H253538   8.842   2.223   2.113
17766WAT      O53539   9.375   0.776   6.220
17766WAT     H153540   9.280   0.747   6.215
17766WAT     H253541   9.433   0.710   6.172
17767WAT      O53542   8.693   7.090   1.241
17767WAT     H153543   8.737   7.177   1.262
17767WAT     H253544   8.596   7.094   1.265
17768WAT      O53545   3.471   1.640   0.909
17768WAT     H153546   3.384   1.683   0.883
17768WAT     H253547   3.523   1.701   0.968
17769WAT      O53548   8.959   8.008   4.252
17769WAT     H153549   8.918   7.961   4.174
17769WAT     H253550   8.914   8.096   4.264
17770WAT      O53551   7.804   7.852   7.622
17770WAT     H153552   7.875   7.912   7.660
17770WAT     H253553   7.772   7.789   7.694
17771WAT      O53554   9.332   7.271   7.978
17771WAT     H153555   9.390   7.300   8.055
17771WAT     H253556   9.288   7.185   8.001
17772WAT      O53557   1.909   7.650   1.363
17772WAT     H153558   1.827   7.702   1.389
17772WAT     H253559   1.935   7.589   1.437
17773WAT      O53560   7.880   3.522   1.490
17773WAT     H153561   7.941   3.502   1.567
17773WAT     H253562   7.800   3.571   1.523
17774WAT      O53563   0.548   7.473   2.801
17774WAT     H153564   0.478   7.541   2.778
17774WAT     H253565   0.600   7.450   2.719
17775WAT      O53566   7.193   6.850   1.190
17775WAT     H153567   7.115   6.902   1.227
17775WAT     H253568   7.179   6.753   1.207
17776WAT      O53569   1.934   3.912   0.786
17776WAT     H153570   2.001   3.839   0.800
17776WAT     H253571   1.912   3.953   0.875
17777WAT      O53572   7.832   6.630   3.443
17777WAT     H153573   7.842   6.578   3.359
17777WAT     H253574   7.855   6.725   3.427
17778WAT      O53575   3.849   1.656   4.599
17778WAT     H153576   3.749   1.663   4.593
17778WAT     H253577   3.890   1.741   4.566
17779WAT      O53578   7.521   7.635   8.378
17779WAT     H153579   7.497   7.681   8.464
17779WAT     H253580   7.605   7.675   8.341
17780WAT      O53581   7.509   8.970   7.100
17780WAT     H153582   7.429   8.931   7.147
17780WAT     H253583   7.586   8.973   7.164
17781WAT      O53584   1.000   7.309   3.446
17781WAT     H153585   1.074   7.288   3.509
17781WAT     H253586   0.922   7.346   3.496
17782WAT      O53587   7.687   6.684   9.200
17782WAT     H153588   7.634   6.614   9.150
17782WAT     H253589   7.649   6.696   9.291
17783WAT      O53590   5.599   0.282   4.129
17783WAT     H153591   5.524   0.340   4.162
17783WAT     H253592   5.599   0.280   4.029
17784WAT      O53593   3.799   4.601   4.896
17784WAT     H153594   3.703   4.629   4.892
17784WAT     H253595   3.857   4.681   4.882
17785WAT      O53596   5.012   6.172   1.224
17785WAT     H153597   5.072   6.243   1.186
17785WAT     H253598   5.024   6.087   1.173
17786WAT      O53599   5.436   5.456   7.145
17786WAT     H153600   5.471   5.375   7.192
17786WAT     H253601   5.347   5.434   7.103
17787WAT      O53602   9.849   3.802   2.294
17787WAT     H153603   9.775   3.863   2.263
17787WAT     H253604   9.814   3.744   2.368
17788WAT      O53605   1.862   4.499   8.601
17788WAT     H153606   1.817   4.446   8.529
17788WAT     H253607   1.825   4.473   8.690
17789WAT      O53608   7.407   2.473   3.360
17789WAT     H153609   7.352   2.462   3.277
17789WAT     H253610   7.358   2.533   3.424
17790WAT      O53611   3.898   0.291   2.871
17790WAT     H153612   3.933   0.197   2.872
17790WAT     H253613   3.914   0.333   2.961
17791WAT      O53614   1.739   9.063   6.935
17791WAT     H153615   1.716   9.158   6.957
17791WAT     H253616   1.656   9.009   6.927
17792WAT      O53617   0.545   6.748   0.194
17792WAT     H153618   0.456   6.707   0.210
17792WAT     H253619   0.616   6.678   0.202
17793WAT      O53620   8.743   4.251   3.859
17793WAT     H153621   8.689   4.327   3.895
17793WAT     H253622   8.694   4.165   3.873
17794WAT      O53623   1.242   9.120   9.177
17794WAT     H153624   1.286   9.140   9.089
17794WAT     H253625   1.231   9.021   9.186
17795WAT      O53626   6.211   1.977   7.887
17795WAT     H153627   6.288   1.948   7.830
17795WAT     H253628   6.245   2.022   7.969
17796WAT      O53629   6.201   4.974   4.851
17796WAT     H153630   6.272   4.988   4.782
17796WAT     H253631   6.119   4.937   4.807
17797WAT      O53632   7.724   8.853   9.176
17797WAT     H153633   7.682   8.831   9.264
17797WAT     H253634   7.787   8.930   9.187
17798WAT      O53635   4.124   7.537   3.000
17798WAT     H153636   4.183   7.457   2.991
17798WAT     H253637   4.099   7.549   3.097
17799WAT      O53638   6.777   4.237   8.721
17799WAT     H153639   6.744   4.308   8.659
17799WAT     H253640   6.707   4.216   8.789
17800WAT      O53641   5.795   3.647   6.392
17800WAT     H153642   5.831   3.557   6.418
17800WAT     H253643   5.814   3.713   6.464
17801WAT      O53644   1.723   9.411   3.840
17801WAT     H153645   1.761   9.318   3.845
17801WAT     H253646   1.796   9.476   3.820
17802WAT      O53647   2.768   8.905   5.895
17802WAT     H153648   2.688   8.852   5.866
17802WAT     H253649   2.786   8.978   5.829
17803WAT      O53650   2.352   4.605   4.175
17803WAT     H153651   2.265   4.573   4.211
17803WAT     H253652   2.397   4.662   4.244
17804WAT      O53653   9.528   0.705   5.707
17804WAT     H153654   9.578   0.788   5.683
17804WAT     H253655   9.463   0.684   5.634
17805WAT      O53656   0.504   9.287   9.274
17805WAT     H153657   0.509   9.314   9.178
17805WAT     H253658   0.577   9.222   9.294
17806WAT      O53659   1.912   3.858   4.102
17806WAT     H153660   1.883   3.828   4.012
17806WAT     H253661   1.881   3.793   4.171
17807WAT      O53662   8.751   7.925   2.333
17807WAT     H153663   8.701   7.893   2.252
17807WAT     H253664   8.690   7.925   2.412
17808WAT      O53665   8.545   2.925   7.635
17808WAT     H153666   8.522   2.897   7.542
17808WAT     H253667   8.580   2.846   7.686
17809WAT      O53668   3.483   6.888   2.131
17809WAT     H153669   3.563   6.945   2.143
17809WAT     H253670   3.442   6.869   2.220
17810WAT      O53671   4.761   3.807   8.061
17810WAT     H153672   4.698   3.784   7.987
17810WAT     H253673   4.835   3.740   8.064
17811WAT      O53674   6.957   8.704   2.914
17811WAT     H153675   6.951   8.657   3.002
17811WAT     H253676   6.970   8.637   2.841
17812WAT      O53677   3.360   1.348   9.544
17812WAT     H153678   3.413   1.337   9.628
17812WAT     H253679   3.262   1.344   9.566
17813WAT      O53680   8.853   1.825   4.877
17813WAT     H153681   8.918   1.900   4.860
17813WAT     H253682   8.771   1.861   4.921
17814WAT      O53683   1.831   1.771   1.199
17814WAT     H153684   1.882   1.821   1.130
17814WAT     H253685   1.786   1.692   1.157
17815WAT      O53686   7.150   3.429   0.265
17815WAT     H153687   7.109   3.513   0.300
17815WAT     H253688   7.188   3.376   0.341
17816WAT      O53689   7.221   5.763   1.352
17816WAT     H153690   7.252   5.851   1.388
17816WAT     H253691   7.123   5.769   1.332
17817WAT      O53692   2.491   0.425   4.491
17817WAT     H153693   2.495   0.456   4.396
17817WAT     H253694   2.576   0.378   4.514
17818WAT      O53695   9.765   3.755   7.668
17818WAT     H153696   9.791   3.662   7.692
17818WAT     H253697   9.740   3.758   7.571
17819WAT      O53698   3.998   8.943   9.624
17819WAT     H153699   3.906   8.979   9.645
17819WAT     H253700   4.031   8.890   9.701
17820WAT      O53701   3.237   4.706   6.543
17820WAT     H153702   3.186   4.704   6.457
17820WAT     H253703   3.233   4.798   6.582
17821WAT      O53704   4.363   6.444   3.931
17821WAT     H153705   4.395   6.360   3.888
17821WAT     H253706   4.283   6.478   3.882
17822WAT      O53707   7.587   0.324   8.153
17822WAT     H153708   7.541   0.346   8.239
17822WAT     H253709   7.527   0.264   8.099
17823WAT      O53710   6.793   5.571   4.032
17823WAT     H153711   6.839   5.590   3.945
17823WAT     H253712   6.830   5.487   4.072
17824WAT      O53713   7.490   4.386   5.803
17824WAT     H153714   7.584   4.351   5.796
17824WAT     H253715   7.486   4.458   5.872
17825WAT      O53716   4.519   5.825   4.566
17825WAT     H153717   4.540   5.881   4.647
17825WAT     H253718   4.519   5.729   4.592
17826WAT      O53719   0.083   5.302   0.735
17826WAT     H153720   0.115   5.214   0.771
17826WAT     H253721   0.058   5.291   0.638
17827WAT      O53722   4.372   5.038   4.435
17827WAT     H153723   4.280   5.026   4.472
17827WAT     H253724   4.399   4.957   4.383
17828WAT      O53725   5.611   9.330   0.107
17828WAT     H153726   5.602   9.376   0.196
17828WAT     H253727   5.683   9.376   0.054
17829WAT      O53728   6.049   0.492   3.731
17829WAT     H153729   6.051   0.429   3.654
17829WAT     H253730   6.008   0.579   3.702
17830WAT      O53731   7.705   8.022   8.401
17830WAT     H153732   7.742   8.043   8.310
17830WAT     H253733   7.780   7.992   8.461
17831WAT      O53734   2.332   3.532   8.844
17831WAT     H153735   2.346   3.608   8.908
17831WAT     H253736   2.275   3.463   8.888
17832WAT      O53737   9.558   7.967   2.671
17832WAT     H153738   9.604   7.967   2.583
17832WAT     H253739   9.563   8.058   2.712
17833WAT      O53740   7.588   5.249   2.251
17833WAT     H153741   7.622   5.327   2.303
17833WAT     H253742   7.546   5.183   2.313
17834WAT      O53743   8.717   1.615   1.404
17834WAT     H153744   8.692   1.711   1.418
17834WAT     H253745   8.795   1.592   1.462
17835WAT      O53746   0.451   5.081   0.802
17835WAT     H153747   0.538   5.127   0.818
17835WAT     H253748   0.430   5.081   0.704
17836WAT      O53749   9.435   3.368   3.491
17836WAT     H153750   9.371   3.313   3.438
17836WAT     H253751   9.401   3.462   3.497
17837WAT      O53752   6.553   3.390   5.768
17837WAT     H153753   6.573   3.345   5.855
17837WAT     H253754   6.508   3.325   5.707
17838WAT      O53755   0.911   7.928   4.915
17838WAT     H153756   0.992   7.921   4.856
17838WAT     H253757   0.872   8.019   4.906
17839WAT      O53758   9.663   9.701   3.132
17839WAT     H153759   9.690   9.614   3.091
17839WAT     H253760   9.585   9.738   3.081
17840WAT      O53761   5.797   3.044   4.263
17840WAT     H153762   5.842   3.075   4.347
17840WAT     H253763   5.865   3.025   4.193
17841WAT      O53764   7.161   9.155   0.357
17841WAT     H153765   7.072   9.175   0.317
17841WAT     H253766   7.151   9.080   0.424
17842WAT      O53767   8.856   2.419   8.833
17842WAT     H153768   8.795   2.430   8.755
17842WAT     H253769   8.901   2.330   8.827
17843WAT      O53770   2.906   6.471   1.418
17843WAT     H153771   2.874   6.425   1.336
17843WAT     H253772   2.828   6.517   1.463
17844WAT      O53773   8.667   2.139   6.480
17844WAT     H153774   8.582   2.159   6.430
17844WAT     H253775   8.669   2.041   6.503
17845WAT      O53776   1.235   9.312   6.012
17845WAT     H153777   1.143   9.340   5.985
17845WAT     H253778   1.265   9.366   6.091
17846WAT      O53779   0.049   3.764   6.555
17846WAT     H153780  -0.005   3.813   6.623
17846WAT     H253781   0.112   3.827   6.510
17847WAT      O53782   1.358   9.234   8.951
17847WAT     H153783   1.344   9.212   8.855
17847WAT     H253784   1.424   9.308   8.959
17848WAT      O53785   9.016   5.693   5.483
17848WAT     H153786   8.934   5.651   5.444
17848WAT     H253787   9.003   5.792   5.488
17849WAT      O53788   0.784   8.388   7.073
17849WAT     H153789   0.851   8.425   7.009
17849WAT     H253790   0.715   8.336   7.022
17850WAT      O53791   1.604   8.478   5.006
17850WAT     H153792   1.664   8.526   4.942
17850WAT     H253793   1.657   8.407   5.053
17851WAT      O53794   7.240   3.494   2.523
17851WAT     H153795   7.145   3.481   2.552
17851WAT     H253796   7.262   3.592   2.525
17852WAT      O53797   0.806   5.684   7.330
17852WAT     H153798   0.829   5.594   7.291
17852WAT     H253799   0.753   5.671   7.414
17853WAT      O53800   8.286   5.317   9.097
17853WAT     H153801   8.366   5.312   9.036
17853WAT     H253802   8.293   5.397   9.155
17854WAT      O53803   8.226   0.560   6.912
17854WAT     H153804   8.255   0.546   6.818
17854WAT     H253805   8.296   0.525   6.974
17855WAT      O53806   8.327   4.800   1.908
17855WAT     H153807   8.287   4.720   1.952
17855WAT     H253808   8.424   4.784   1.891
17856WAT      O53809   7.592   7.791   4.055
17856WAT     H153810   7.689   7.814   4.060
17856WAT     H253811   7.552   7.833   3.974
17857WAT      O53812   1.375   3.566   8.262
17857WAT     H153813   1.441   3.617   8.318
17857WAT     H253814   1.299   3.627   8.237
17858WAT      O53815   2.099   1.564   3.529
17858WAT     H153816   2.073   1.508   3.450
17858WAT     H253817   2.181   1.616   3.507
17859WAT      O53818   7.596   3.573   0.460
17859WAT     H153819   7.665   3.586   0.530
17859WAT     H253820   7.625   3.620   0.376
17860WAT      O53821   6.538   0.839   3.773
17860WAT     H153822   6.560   0.815   3.868
17860WAT     H253823   6.452   0.890   3.772
17861WAT      O53824   6.376   5.466   1.960
17861WAT     H153825   6.435   5.446   1.882
17861WAT     H253826   6.320   5.546   1.940
17862WAT      O53827   3.083   3.220   4.986
17862WAT     H153828   3.132   3.307   4.982
17862WAT     H253829   3.145   3.149   5.021
17863WAT      O53830   8.526   8.768   2.448
17863WAT     H153831   8.546   8.672   2.430
17863WAT     H253832   8.427   8.783   2.444
17864WAT      O53833   8.394   2.224   5.581
17864WAT     H153834   8.479   2.235   5.530
17864WAT     H253835   8.358   2.131   5.568
17865WAT      O53836   5.914   0.794   2.343
17865WAT     H153837   5.964   0.782   2.257
17865WAT     H253838   5.861   0.879   2.338
17866WAT      O53839   8.483   5.739   0.502
17866WAT     H153840   8.496   5.839   0.502
17866WAT     H253841   8.559   5.696   0.453
17867WAT      O53842   4.431   6.604   9.148
17867WAT     H153843   4.509   6.628   9.090
17867WAT     H253844   4.437   6.654   9.234
17868WAT      O53845   7.886   5.057   4.305
17868WAT     H153846   7.895   5.056   4.404
17868WAT     H253847   7.959   5.002   4.264
17869WAT      O53848   8.294   8.530   1.617
17869WAT     H153849   8.203   8.519   1.579
17869WAT     H253850   8.289   8.532   1.716
17870WAT      O53851   0.399   2.731   1.200
17870WAT     H153852   0.407   2.669   1.123
17870WAT     H253853   0.334   2.695   1.267
17871WAT      O53854   1.092   3.810   1.168
17871WAT     H153855   1.165   3.807   1.236
17871WAT     H253856   1.127   3.779   1.080
17872WAT      O53857   2.732   6.439   8.456
17872WAT     H153858   2.797   6.486   8.396
17872WAT     H253859   2.781   6.397   8.532
17873WAT      O53860   1.726   3.554   8.101
17873WAT     H153861   1.786   3.490   8.148
17873WAT     H253862   1.643   3.506   8.070
17874WAT      O53863   8.684   4.626   6.753
17874WAT     H153864   8.697   4.695   6.825
17874WAT     H253865   8.773   4.602   6.714
17875WAT      O53866   6.151   3.109   2.963
17875WAT     H153867   6.064   3.061   2.956
17875WAT     H253868   6.205   3.092   2.881
17876WAT      O53869   5.204   4.705   9.020
17876WAT     H153870   5.264   4.698   9.099
17876WAT     H253871   5.128   4.639   9.030
17877WAT      O53872   2.713   6.025   8.983
17877WAT     H153873   2.802   6.040   8.939
17877WAT     H253874   2.674   5.939   8.950
17878WAT      O53875   4.479   8.152   7.272
17878WAT     H153876   4.408   8.222   7.269
17878WAT     H253877   4.442   8.068   7.312
17879WAT      O53878   8.133   1.591   3.664
17879WAT     H153879   8.185   1.533   3.728
17879WAT     H253880   8.157   1.567   3.570
17880WAT      O53881   0.429   6.367   0.797
17880WAT     H153882   0.483   6.287   0.771
17880WAT     H253883   0.355   6.339   0.858
17881WAT      O53884   8.695   2.584   9.774
17881WAT     H153885   8.603   2.558   9.743
17881WAT     H253886   8.689   2.671   9.824
17882WAT      O53887   1.887   0.989   3.475
17882WAT     H153888   1.940   0.959   3.395
17882WAT     H253889   1.836   1.071   3.452
17883WAT      O53890   7.864   0.697   0.789
17883WAT     H153891   7.937   0.717   0.854
17883WAT     H253892   7.902   0.694   0.696
17884WAT      O53893   1.869   8.209   1.287
17884WAT     H153894   1.950   8.259   1.256
17884WAT     H253895   1.803   8.201   1.212
17885WAT      O53896   0.484   5.608   9.397
17885WAT     H153897   0.456   5.698   9.364
17885WAT     H253898   0.575   5.614   9.437
17886WAT      O53899   2.057   3.198   4.277
17886WAT     H153900   2.101   3.217   4.364
17886WAT     H253901   2.028   3.284   4.234
17887WAT      O53902   8.721   7.942   0.337
17887WAT     H153903   8.800   7.959   0.396
17887WAT     H253904   8.727   8.000   0.256
17888WAT      O53905   0.100   7.583   1.072
17888WAT     H153906   0.074   7.652   1.140
17888WAT     H253907   0.049   7.600   0.987
17889WAT      O53908   9.833   5.115   2.896
17889WAT     H153909   9.738   5.091   2.873
17889WAT     H253910   9.862   5.065   2.977
17890WAT      O53911   8.472   8.479   1.049
17890WAT     H153912   8.550   8.521   1.096
17890WAT     H253913   8.433   8.544   0.985
17891WAT      O53914   0.639   5.761   7.104
17891WAT     H153915   0.706   5.792   7.038
17891WAT     H253916   0.686   5.726   7.186
17892WAT      O53917   4.916   1.003   2.821
17892WAT     H153918   4.933   1.043   2.731
17892WAT     H253919   4.821   1.020   2.848
17893WAT      O53920   8.744   4.081   9.712
17893WAT     H153921   8.785   3.991   9.724
17893WAT     H253922   8.657   4.072   9.662
17894WAT      O53923   9.551   8.731   0.611
17894WAT     H153924   9.614   8.717   0.534
17894WAT     H253925   9.566   8.660   0.680
17895WAT      O53926   8.226   9.727   2.795
17895WAT     H153927   8.177   9.771   2.719
17895WAT     H253928   8.287   9.657   2.758
17896WAT      O53929   1.748   8.381   7.549
17896WAT     H153930   1.827   8.322   7.563
17896WAT     H253931   1.667   8.338   7.588
17897WAT      O53932   1.214   7.122   2.869
17897WAT     H153933   1.252   7.030   2.868
17897WAT     H253934   1.252   7.174   2.946
17898WAT      O53935   4.922   6.625   6.919
17898WAT     H153936   4.828   6.607   6.889
17898WAT     H253937   4.922   6.641   7.018
17899WAT      O53938   6.354   0.375   6.180
17899WAT     H153939   6.412   0.454   6.163
17899WAT     H253940   6.327   0.335   6.092
17900WAT      O53941   9.222   6.160   6.625
17900WAT     H153942   9.250   6.127   6.715
17900WAT     H253943   9.213   6.259   6.628
17901WAT      O53944   1.202   8.679   4.232
17901WAT     H153945   1.176   8.603   4.290
17901WAT     H253946   1.223   8.759   4.288
17902WAT      O53947   6.312   2.574   6.479
17902WAT     H153948   6.250   2.496   6.491
17902WAT     H253949   6.317   2.598   6.382
17903WAT      O53950   7.851   2.259   7.608
17903WAT     H153951   7.788   2.334   7.589
17903WAT     H253952   7.915   2.249   7.532
17904WAT      O53953   1.126   6.347   9.145
17904WAT     H153954   1.160   6.254   9.161
17904WAT     H253955   1.102   6.358   9.049
17905WAT      O53956   9.537   7.609   3.729
17905WAT     H153957   9.557   7.515   3.757
17905WAT     H253958   9.602   7.671   3.773
17906WAT      O53959   4.840   4.183   9.176
17906WAT     H153960   4.810   4.160   9.084
17906WAT     H253961   4.821   4.279   9.195
17907WAT      O53962   3.380   4.843   0.950
17907WAT     H153963   3.449   4.774   0.974
17907WAT     H253964   3.351   4.829   0.856
17908WAT      O53965   4.013   9.631   1.083
17908WAT     H153966   3.958   9.712   1.105
17908WAT     H253967   3.981   9.554   1.138
17909WAT      O53968   4.604   7.626   8.726
17909WAT     H153969   4.598   7.582   8.637
17909WAT     H253970   4.622   7.556   8.796
17910WAT      O53971   2.814   3.123   3.373
17910WAT     H153972   2.765   3.128   3.286
17910WAT     H253973   2.807   3.031   3.410
17911WAT      O53974   6.603   8.074   9.280
17911WAT     H153975   6.606   8.171   9.256
17911WAT     H253976   6.694   8.034   9.271
17912WAT      O53977   7.461   7.475   1.957
17912WAT     H153978   7.521   7.438   1.885
17912WAT     H253979   7.438   7.402   2.021
17913WAT      O53980   9.335   5.783   9.037
17913WAT     H153981   9.283   5.826   9.111
17913WAT     H253982   9.320   5.834   8.952
17914WAT      O53983   6.977   0.438   9.166
17914WAT     H153984   7.076   0.451   9.160
17914WAT     H253985   6.953   0.350   9.125
17915WAT      O53986   0.732   8.701   6.474
17915WAT     H153987   0.689   8.611   6.481
17915WAT     H253988   0.685   8.755   6.404
17916WAT      O53989   4.918   0.591   4.041
17916WAT     H153990   5.005   0.542   4.039
17916WAT     H253991   4.854   0.547   3.978
17917WAT      O53992   7.234   9.330   1.730
17917WAT     H153993   7.246   9.303   1.635
17917WAT     H253994   7.137   9.323   1.755
17918WAT      O53995   8.768   8.640   1.868
17918WAT     H153996   8.733   8.620   1.960
17918WAT     H253997   8.741   8.733   1.842
17919WAT      O53998   3.475   0.525   7.498
17919WAT     H153999   3.430   0.590   7.560
17919WAT     H254000   3.452   0.432   7.525
17920WAT      O54001   4.308   4.535   8.481
17920WAT     H154002   4.334   4.439   8.474
17920WAT     H254003   4.334   4.582   8.396
17921WAT      O54004   0.692   2.641   0.462
17921WAT     H154005   0.699   2.553   0.413
17921WAT     H254006   0.632   2.630   0.541
17922WAT      O54007   7.148   8.267   5.627
17922WAT     H154008   7.160   8.253   5.529
17922WAT     H254009   7.062   8.224   5.657
17923WAT      O54010   9.429   6.080   9.317
17923WAT     H154011   9.527   6.071   9.301
17923WAT     H254012   9.413   6.145   9.391
17924WAT      O54013   4.137   7.989   7.611
17924WAT     H154014   4.038   7.996   7.596
17924WAT     H254015   4.158   7.905   7.662
17925WAT      O54016   5.126   7.507   6.420
17925WAT     H154017   5.089   7.587   6.373
17925WAT     H254018   5.162   7.534   6.510
17926WAT      O54019   8.002   2.697   5.904
17926WAT     H154020   8.004   2.597   5.915
17926WAT     H254021   7.994   2.740   5.994
17927WAT      O54022   2.549   1.665   0.060
17927WAT     H154023   2.547   1.761   0.086
17927WAT     H254024   2.492   1.612   0.122
17928WAT      O54025   7.135   2.586   3.795
17928WAT     H154026   7.065   2.658   3.804
17928WAT     H254027   7.183   2.597   3.708
17929WAT      O54028   0.846   9.639   2.668
17929WAT     H154029   0.837   9.726   2.716
17929WAT     H254030   0.757   9.592   2.668
17930WAT      O54031   8.250   6.559   3.851
17930WAT     H154032   8.224   6.649   3.815
17930WAT     H254033   8.265   6.566   3.949
17931WAT      O54034   2.359   2.918   7.636
17931WAT     H154035   2.288   2.950   7.573
17931WAT     H254036   2.446   2.962   7.613
17932WAT      O54037   5.902   7.129   2.449
17932WAT     H154038   5.903   7.136   2.349
17932WAT     H254039   5.838   7.196   2.487
17933WAT      O54040   9.383   1.584   8.727
17933WAT     H154041   9.304   1.645   8.742
17933WAT     H254042   9.355   1.489   8.745
17934WAT      O54043   8.446   5.194   5.158
17934WAT     H154044   8.445   5.112   5.215
17934WAT     H254045   8.470   5.169   5.064
17935WAT      O54046   7.523   7.566   3.867
17935WAT     H154047   7.426   7.573   3.842
17935WAT     H254048   7.533   7.587   3.964
17936WAT      O54049   7.154   7.812   6.860
17936WAT     H154050   7.165   7.745   6.934
17936WAT     H254051   7.060   7.848   6.862
17937WAT      O54052   8.154   7.386   1.957
17937WAT     H154053   8.101   7.440   1.892
17937WAT     H254054   8.197   7.447   2.024
17938WAT      O54055   0.041   5.051   0.543
17938WAT     H154056   0.104   5.004   0.481
17938WAT     H254057  -0.030   5.098   0.489
17939WAT      O54058   9.157   8.678   9.191
17939WAT     H154059   9.202   8.742   9.252
17939WAT     H254060   9.222   8.648   9.121
17940WAT      O54061   7.246   0.033   7.040
17940WAT     H154062   7.304   0.111   7.064
17940WAT     H254063   7.206   0.048   6.949
17941WAT      O54064   7.786   7.649   3.823
17941WAT     H154065   7.786   7.748   3.830
17941WAT     H254066   7.695   7.614   3.845
17942WAT      O54067   6.308   4.454   9.075
17942WAT     H154068   6.214   4.442   9.043
17942WAT     H254069   6.355   4.366   9.073
17943WAT      O54070   5.939   7.621   3.247
17943WAT     H154071   5.950   7.626   3.147
17943WAT     H254072   6.023   7.586   3.288
17944WAT      O54073   0.465   0.649   5.578
17944WAT     H154074   0.403   0.699   5.517
17944WAT     H254075   0.461   0.551   5.558
17945WAT      O54076   4.492   9.351   1.748
17945WAT     H154077   4.507   9.385   1.841
17945WAT     H254078   4.394   9.352   1.727
17946WAT      O54079   9.717   6.328   3.915
17946WAT     H154080   9.729   6.270   3.995
17946WAT     H254081   9.802   6.330   3.862
17947WAT      O54082   6.953   3.150   9.774
17947WAT     H154083   6.914   3.104   9.854
17947WAT     H254084   6.962   3.085   9.699
17948WAT      O54085   0.767   2.584   6.569
17948WAT     H154086   0.844   2.648   6.576
17948WAT     H254087   0.759   2.551   6.475
17949WAT      O54088   9.748   5.448   5.047
17949WAT     H154089   9.761   5.427   5.144
17949WAT     H254090   9.700   5.372   5.002
17950WAT      O54091   5.507   6.454   6.045
17950WAT     H154092   5.523   6.421   6.138
17950WAT     H254093   5.443   6.394   5.998
17951WAT      O54094   1.090   1.817   2.738
17951WAT     H154095   1.008   1.861   2.703
17951WAT     H254096   1.167   1.837   2.677
17952WAT      O54097   6.630   0.537   1.752
17952WAT     H154098   6.557   0.595   1.715
17952WAT     H254099   6.697   0.594   1.800
17953WAT      O54100   4.571   2.579   6.907
17953WAT     H154101   4.559   2.605   7.003
17953WAT     H254102   4.633   2.643   6.862
17954WAT      O54103   6.510   2.628   3.420
17954WAT     H154104   6.551   2.542   3.450
17954WAT     H254105   6.436   2.609   3.356
17955WAT      O54106   0.204   3.599   0.826
17955WAT     H154107   0.222   3.511   0.782
17955WAT     H254108   0.107   3.622   0.817
17956WAT      O54109   3.149   3.365   0.121
17956WAT     H154110   3.076   3.424   0.085
17956WAT     H254111   3.172   3.296   0.052
17957WAT      O54112   2.017   1.507   2.009
17957WAT     H154113   1.984   1.413   2.017
17957WAT     H254114   2.103   1.508   1.957
17958WAT      O54115   2.128   5.789   6.043
17958WAT     H154116   2.195   5.851   6.004
17958WAT     H254117   2.174   5.707   6.076
17959WAT      O54118   9.173   1.754   2.464
17959WAT     H154119   9.163   1.771   2.366
17959WAT     H254120   9.193   1.657   2.479
17960WAT      O54121   5.401   8.005   9.617
17960WAT     H154122   5.380   8.064   9.539
17960WAT     H254123   5.374   7.911   9.597
17961WAT      O54124   8.102   9.209   0.906
17961WAT     H154125   8.076   9.197   1.002
17961WAT     H254126   8.180   9.271   0.900
17962WAT      O54127   0.793   1.629   7.412
17962WAT     H154128   0.878   1.682   7.409
17962WAT     H254129   0.717   1.688   7.439
17963WAT      O54130   7.403   7.655   9.700
17963WAT     H154131   7.418   7.754   9.702
17963WAT     H254132   7.314   7.634   9.739
17964WAT      O54133   3.760   6.586   3.140
17964WAT     H154134   3.716   6.502   3.108
17964WAT     H254135   3.807   6.567   3.227
17965WAT      O54136   2.610   5.006   5.295
17965WAT     H154137   2.542   5.032   5.227
17965WAT     H254138   2.607   5.070   5.372
17966WAT      O54139   4.103   3.526   5.886
17966WAT     H154140   4.075   3.560   5.975
17966WAT     H254141   4.063   3.583   5.814
17967WAT      O54142   7.748   9.252   7.302
17967WAT     H154143   7.756   9.319   7.228
17967WAT     H254144   7.801   9.284   7.381
17968WAT      O54145   4.257   8.141   6.408
17968WAT     H154146   4.195   8.156   6.485
17968WAT     H254147   4.337   8.088   6.438
17969WAT      O54148   9.174   0.318   3.782
17969WAT     H154149   9.206   0.223   3.785
17969WAT     H254150   9.078   0.319   3.754
17970WAT      O54151   3.660   5.848   0.261
17970WAT     H154152   3.713   5.902   0.195
17970WAT     H254153   3.588   5.798   0.213
17971WAT      O54154   5.313   8.122   6.451
17971WAT     H154155   5.286   8.105   6.545
17971WAT     H254156   5.239   8.095   6.389
17972WAT      O54157   5.830   8.099   0.718
17972WAT     H154158   5.744   8.143   0.691
17972WAT     H254159   5.833   8.091   0.818
17973WAT      O54160   2.484   5.790   5.943
17973WAT     H154161   2.395   5.834   5.940
17973WAT     H254162   2.556   5.858   5.934
17974WAT      O54163   5.502   2.318   5.723
17974WAT     H154164   5.540   2.253   5.657
17974WAT     H254165   5.439   2.271   5.784
17975WAT      O54166   4.174   9.685   0.280
17975WAT     H154167   4.195   9.781   0.258
17975WAT     H254168   4.107   9.682   0.354
17976WAT      O54169   2.209   7.763   5.182
17976WAT     H154170   2.121   7.748   5.136
17976WAT     H254171   2.282   7.761   5.115
17977WAT      O54172   9.277   6.860   6.064
17977WAT     H154173   9.199   6.922   6.058
17977WAT     H254174   9.251   6.771   6.027
17978WAT      O54175   1.854   9.268   7.537
17978WAT     H154176   1.821   9.324   7.461
17978WAT     H254177   1.790   9.193   7.554
17979WAT      O54178   2.793   1.710   0.183
17979WAT     H154179   2.717   1.696   0.120
17979WAT     H254180   2.857   1.777   0.144
17980WAT      O54181   1.817   3.599   2.366
17980WAT     H154182   1.828   3.627   2.271
17980WAT     H254183   1.805   3.500   2.371
17981WAT      O54184   4.324   6.129   2.611
17981WAT     H154185   4.343   6.227   2.604
17981WAT     H254186   4.328   6.100   2.706
17982WAT      O54187   2.469   7.274   7.019
17982WAT     H154188   2.554   7.278   6.966
17982WAT     H254189   2.391   7.290   6.958
17983WAT      O54190   0.047   4.490   4.144
17983WAT     H154191   0.124   4.508   4.081
17983WAT     H254192   0.056   4.398   4.182
17984WAT      O54193   7.384   0.686   6.127
17984WAT     H154194   7.366   0.775   6.084
17984WAT     H254195   7.418   0.700   6.220
17985WAT      O54196   5.586   2.103   4.748
17985WAT     H154197   5.680   2.092   4.778
17985WAT     H254198   5.581   2.178   4.681
17986WAT      O54199   0.113   9.577   0.039
17986WAT     H154200   0.175   9.609  -0.033
17986WAT     H254201   0.151   9.599   0.128
17987WAT      O54202   3.286   2.664   7.007
17987WAT     H154203   3.236   2.630   7.087
17987WAT     H254204   3.244   2.630   6.924
17988WAT      O54205   9.385   9.274   8.693
17988WAT     H154206   9.409   9.179   8.675
17988WAT     H254207   9.367   9.321   8.606
17989WAT      O54208   8.194   5.742   1.827
17989WAT     H154209   8.192   5.798   1.744
17989WAT     H254210   8.104   5.701   1.842
17990WAT      O54211   9.651   4.254   7.577
17990WAT     H154212   9.575   4.308   7.612
17990WAT     H254213   9.721   4.314   7.538
17991WAT      O54214   5.006   0.822   8.664
17991WAT     H154215   5.036   0.730   8.686
17991WAT     H254216   5.086   0.880   8.645
17992WAT      O54217   2.981   0.637   8.005
17992WAT     H154218   2.919   0.652   7.928
17992WAT     H254219   2.943   0.567   8.065
17993WAT      O54220   1.776   1.523   0.022
17993WAT     H154221   1.871   1.527   0.055
17993WAT     H254222   1.727   1.605   0.052
17994WAT      O54223   8.699   2.842   5.301
17994WAT     H154224   8.627   2.799   5.355
17994WAT     H254225   8.681   2.941   5.295
17995WAT      O54226   7.310   8.044   1.714
17995WAT     H154227   7.363   7.983   1.773
17995WAT     H254228   7.280   8.123   1.767
17996WAT      O54229   5.969   0.012   2.606
17996WAT     H154230   5.932   0.020   2.514
17996WAT     H254231   6.013   0.098   2.633
17997WAT      O54232   1.555   2.421   5.322
17997WAT     H154233   1.559   2.385   5.415
17997WAT     H254234   1.646   2.451   5.295
17998WAT      O54235   3.473   1.011   8.326
17998WAT     H154236   3.453   1.056   8.413
17998WAT     H254237   3.515   0.922   8.343
17999WAT      O54238   0.233   4.793   9.353
17999WAT     H154239   0.187   4.882   9.351
17999WAT     H254240   0.323   4.802   9.394
18000WAT      O54241   5.589   1.364   5.580
18000WAT     H154242   5.543   1.278   5.556
18000WAT     H254243   5.592   1.424   5.500
18001WAT      O54244   1.431   8.084   7.333
18001WAT     H154245   1.524   8.051   7.352
18001WAT     H254246   1.377   8.080   7.416
18002WAT      O54247   0.656   7.711   9.725
18002WAT     H154248   0.612   7.728   9.813
18002WAT     H254249   0.598   7.746   9.652
18003WAT      O54250   7.796   1.895   2.704
18003WAT     H154251   7.853   1.932   2.777
18003WAT     H254252   7.737   1.967   2.667
18004WAT      O54253   5.635   1.158   5.793
18004WAT     H154254   5.650   1.205   5.706
18004WAT     H254255   5.645   1.223   5.868
18005WAT      O54256   6.383   5.522   6.461
18005WAT     H154257   6.387   5.423   6.448
18005WAT     H254258   6.290   5.555   6.446
18006WAT      O54259   0.303   4.124   7.107
18006WAT     H154260   0.312   4.041   7.163
18006WAT     H254261   0.358   4.197   7.146
18007WAT      O54262   9.204   4.625   1.974
18007WAT     H154263   9.253   4.542   1.949
18007WAT     H254264   9.195   4.684   1.893
18008WAT      O54265   5.251   6.288   6.801
18008WAT     H154266   5.172   6.266   6.744
18008WAT     H254267   5.238   6.378   6.843
18009WAT      O54268   9.178   2.399   1.841
18009WAT     H154269   9.097   2.389   1.897
18009WAT     H254270   9.199   2.496   1.828
18010WAT      O54271   3.155   0.346   8.667
18010WAT     H154272   3.228   0.281   8.686
18010WAT     H254273   3.075   0.325   8.723
18011WAT      O54274   2.068   5.256   1.009
18011WAT     H154275   2.152   5.289   0.965
18011WAT     H254276   2.039   5.170   0.966
18012WAT      O54277   3.052   9.565   7.854
18012WAT     H154278   3.099   9.536   7.937
18012WAT     H254279   2.953   9.557   7.867
18013WAT      O54280   4.453   2.328   0.307
18013WAT     H154281   4.504   2.409   0.278
18013WAT     H254282   4.450   2.324   0.407
18014WAT      O54283   2.387   3.620   3.168
18014WAT     H154284   2.403   3.555   3.093
18014WAT     H254285   2.374   3.569   3.253
18015WAT      O54286   5.333   2.689   4.356
18015WAT     H154287   5.284   2.644   4.431
18015WAT     H254288   5.280   2.681   4.271
18016WAT      O54289   5.562   8.778   0.788
18016WAT     H154290   5.510   8.693   0.779
18016WAT     H254291   5.538   8.840   0.713
18017WAT      O54292   5.597   0.299   3.851
18017WAT     H154293   5.577   0.397   3.848
18017WAT     H254294   5.642   0.273   3.766
18018WAT      O54295   7.344   8.931   9.877
18018WAT     H154296   7.368   9.000   9.945
18018WAT     H254297   7.419   8.922   9.811
18019WAT      O54298   3.842   4.689   6.019
18019WAT     H154299   3.855   4.629   6.098
18019WAT     H254300   3.849   4.784   6.048
18020WAT      O54301   6.902   0.919   5.770
18020WAT     H154302   6.844   0.897   5.692
18020WAT     H254303   6.996   0.935   5.738
18021WAT      O54304   2.216   2.039   3.608
18021WAT     H154305   2.162   2.024   3.526
18021WAT     H254306   2.223   2.137   3.627
18022WAT      O54307   3.354   8.652   0.111
18022WAT     H154308   3.342   8.679   0.207
18022WAT     H254309   3.285   8.698   0.055
18023WAT      O54310   3.644   2.533   3.999
18023WAT     H154311   3.569   2.492   3.947
18023WAT     H254312   3.610   2.566   4.086
18024WAT      O54313   4.546   9.757   1.760
18024WAT     H154314   4.515   9.823   1.692
18024WAT     H254315   4.642   9.774   1.782
18025WAT      O54316   0.258   7.199   0.244
18025WAT     H154317   0.207   7.249   0.174
18025WAT     H254318   0.201   7.127   0.283
18026WAT      O54319   7.001   1.769   2.094
18026WAT     H154320   6.986   1.716   2.010
18026WAT     H254321   7.042   1.709   2.164
18027WAT      O54322   9.467   1.152   0.474
18027WAT     H154323   9.376   1.183   0.445
18027WAT     H254324   9.472   1.052   0.466
18028WAT      O54325   4.450   1.248   7.193
18028WAT     H154326   4.414   1.196   7.271
18028WAT     H254327   4.374   1.278   7.136
18029WAT      O54328   2.512   9.288   6.507
18029WAT     H154329   2.600   9.296   6.461
18029WAT     H254330   2.443   9.254   6.442
18030WAT      O54331   1.864   4.436   5.958
18030WAT     H154332   1.962   4.452   5.950
18030WAT     H254333   1.838   4.357   5.902
18031WAT      O54334   1.989   2.150   4.350
18031WAT     H154335   1.890   2.138   4.346
18031WAT     H254336   2.021   2.190   4.264
18032WAT      O54337   0.467   5.596   2.671
18032WAT     H154338   0.511   5.679   2.705
18032WAT     H254339   0.377   5.587   2.713
18033WAT      O54340   1.504   4.921   5.713
18033WAT     H154341   1.500   4.994   5.782
18033WAT     H254342   1.588   4.869   5.725
18034WAT      O54343   8.770   4.462   9.478
18034WAT     H154344   8.696   4.440   9.414
18034WAT     H254345   8.828   4.382   9.491
18035WAT      O54346   0.374   0.968   6.175
18035WAT     H154347   0.373   0.871   6.149
18035WAT     H254348   0.391   0.976   6.273
18036WAT      O54349   5.826   0.976   8.523
18036WAT     H154350   5.800   1.041   8.594
18036WAT     H254351   5.800   1.012   8.433
18037WAT      O54352   7.866   5.636   1.287
18037WAT     H154353   7.833   5.632   1.382
18037WAT     H254354   7.792   5.612   1.225
18038WAT      O54355   7.591   8.801   6.016
18038WAT     H154356   7.662   8.811   6.086
18038WAT     H254357   7.506   8.842   6.049
18039WAT      O54358   8.288   8.541   6.665
18039WAT     H154359   8.358   8.471   6.651
18039WAT     H254360   8.323   8.612   6.726
18040WAT      O54361   4.199   4.005   1.687
18040WAT     H154362   4.238   4.043   1.771
18040WAT     H254363   4.247   3.921   1.663
18041WAT      O54364   3.874   3.216   3.148
18041WAT     H154365   3.813   3.232   3.226
18041WAT     H254366   3.890   3.303   3.100
18042WAT      O54367   4.320   2.629   1.238
18042WAT     H154368   4.336   2.727   1.223
18042WAT     H254369   4.387   2.594   1.304
18043WAT      O54370   1.227   5.085   0.110
18043WAT     H154371   1.250   5.111   0.016
18043WAT     H254372   1.147   5.137   0.141
18044WAT      O54373   1.708   1.824   0.066
18044WAT     H154374   1.698   1.904   0.007
18044WAT     H254375   1.800   1.823   0.105
18045WAT      O54376   2.536   6.563   9.233
18045WAT     H154377   2.617   6.559   9.291
18045WAT     H254378   2.559   6.529   9.142
18046WAT      O54379   4.152   5.445   1.638
18046WAT     H154380   4.170   5.507   1.715
18046WAT     H254381   4.153   5.497   1.553
18047WAT      O54382   5.797   2.999   2.461
18047WAT     H154383   5.874   3.042   2.414
18047WAT     H254384   5.831   2.929   2.524
18048WAT      O54385   0.905   1.621   4.897
18048WAT     H154386   0.991   1.587   4.859
18048WAT     H254387   0.916   1.639   4.995
18049WAT      O54388   4.976   5.632   6.661
18049WAT     H154389   4.914   5.709   6.641
18049WAT     H254390   4.923   5.548   6.668
18050WAT      O54391   5.084   3.120   9.416
18050WAT     H154392   5.020   3.069   9.473
18050WAT     H254393   5.118   3.061   9.343
18051WAT      O54394   5.423   7.995   3.648
18051WAT     H154395   5.495   8.062   3.663
18051WAT     H254396   5.353   8.033   3.587
18052WAT      O54397   3.966   9.473   4.855
18052WAT     H154398   3.995   9.566   4.837
18052WAT     H254399   3.920   9.469   4.944
18053WAT      O54400   7.385   0.581   6.513
18053WAT     H154401   7.460   0.615   6.455
18053WAT     H254402   7.398   0.614   6.606
18054WAT      O54403   7.705   0.688   6.188
18054WAT     H154404   7.779   0.723   6.245
18054WAT     H254405   7.720   0.716   6.093
18055WAT      O54406   1.413   3.527   0.771
18055WAT     H154407   1.443   3.593   0.703
18055WAT     H254408   1.340   3.470   0.733
18056WAT      O54409   1.270   8.370   1.051
18056WAT     H154410   1.275   8.400   1.146
18056WAT     H254411   1.248   8.273   1.048
18057WAT      O54412   2.709   3.154   3.989
18057WAT     H154413   2.737   3.067   4.030
18057WAT     H254414   2.730   3.153   3.892
18058WAT      O54415   3.497   0.945   7.298
18058WAT     H154416   3.593   0.918   7.311
18058WAT     H254417   3.468   0.922   7.205
18059WAT      O54418   7.191   3.052   1.832
18059WAT     H154419   7.256   3.093   1.768
18059WAT     H254420   7.233   3.046   1.923
18060WAT      O54421   7.372   5.565   4.734
18060WAT     H154422   7.365   5.516   4.648
18060WAT     H254423   7.467   5.597   4.747
18061WAT      O54424   0.106   6.874   7.409
18061WAT     H154425   0.098   6.863   7.310
18061WAT     H254426   0.036   6.937   7.441
18062WAT      O54427   2.590   4.528   6.813
18062WAT     H154428   2.669   4.489   6.766
18062WAT     H254429   2.507   4.484   6.781
18063WAT      O54430   3.075   2.343   4.600
18063WAT     H154431   3.046   2.338   4.504
18063WAT     H254432   3.017   2.283   4.656
18064WAT      O54433   1.798   5.657   2.987
18064WAT     H154434   1.893   5.687   2.980
18064WAT     H254435   1.738   5.722   2.940
18065WAT      O54436   0.261   2.403   8.513
18065WAT     H154437   0.310   2.328   8.558
18065WAT     H254438   0.315   2.437   8.437
18066WAT      O54439   9.019   5.382   7.498
18066WAT     H154440   8.951   5.447   7.464
18066WAT     H254441   9.006   5.294   7.452
18067WAT      O54442   7.036   8.541   7.248
18067WAT     H154443   7.114   8.569   7.191
18067WAT     H254444   6.973   8.486   7.193
18068WAT      O54445   1.267   5.336   0.522
18068WAT     H154446   1.221   5.344   0.433
18068WAT     H254447   1.235   5.409   0.583
18069WAT      O54448   7.471   4.269   0.257
18069WAT     H154449   7.458   4.351   0.312
18069WAT     H254450   7.387   4.214   0.260
18070WAT      O54451   3.721   8.286   6.016
18070WAT     H154452   3.817   8.302   5.991
18070WAT     H254453   3.717   8.214   6.085
18071WAT      O54454   2.764   1.563   7.437
18071WAT     H154455   2.744   1.609   7.350
18071WAT     H254456   2.683   1.565   7.496
18072WAT      O54457   7.366   9.254   1.957
18072WAT     H154458   7.321   9.295   1.878
18072WAT     H254459   7.353   9.155   1.954
18073WAT      O54460   8.634   4.484   4.466
18073WAT     H154461   8.613   4.458   4.372
18073WAT     H254462   8.583   4.425   4.529
18074WAT      O54463   0.594   1.127   8.233
18074WAT     H154464   0.624   1.043   8.279
18074WAT     H254465   0.673   1.176   8.197
18075WAT      O54466   1.448   4.526   5.908
18075WAT     H154467   1.456   4.431   5.937
18075WAT     H254468   1.432   4.584   5.988
18076WAT      O54469   9.484   0.278   6.110
18076WAT     H154470   9.534   0.237   6.034
18076WAT     H254471   9.387   0.287   6.085
18077WAT      O54472   1.877   2.966   5.910
18077WAT     H154473   1.852   3.015   5.826
18077WAT     H254474   1.796   2.920   5.946
18078WAT      O54475   1.919   6.014   3.514
18078WAT     H154476   1.922   6.079   3.438
18078WAT     H254477   1.905   6.063   3.600
18079WAT      O54478   9.699   3.562   7.958
18079WAT     H154479   9.622   3.586   7.899
18079WAT     H254480   9.707   3.463   7.964
18080WAT      O54481   2.419   3.788   4.141
18080WAT     H154482   2.337   3.742   4.109
18080WAT     H254483   2.442   3.864   4.079
18081WAT      O54484   9.111   5.766   2.691
18081WAT     H154485   9.058   5.699   2.743
18081WAT     H254486   9.163   5.823   2.754
18082WAT      O54487   9.372   8.515   3.213
18082WAT     H154488   9.460   8.524   3.260
18082WAT     H254489   9.341   8.420   3.218
18083WAT      O54490   5.437   3.854   7.464
18083WAT     H154491   5.480   3.896   7.384
18083WAT     H254492   5.507   3.810   7.520
18084WAT      O54493   9.163   1.013   7.404
18084WAT     H154494   9.194   0.951   7.332
18084WAT     H254495   9.105   1.084   7.365
18085WAT      O54496   8.392   0.668   9.882
18085WAT     H154497   8.303   0.680   9.926
18085WAT     H254498   8.462   0.656   9.951
18086WAT      O54499   1.545   1.965   1.838
18086WAT     H154500   1.463   2.019   1.857
18086WAT     H254501   1.626   2.023   1.843
18087WAT      O54502   6.568   9.790   9.818
18087WAT     H154503   6.489   9.736   9.846
18087WAT     H254504   6.576   9.788   9.719
18088WAT      O54505   2.109   4.491   7.270
18088WAT     H154506   2.156   4.574   7.300
18088WAT     H254507   2.159   4.451   7.193
18089WAT      O54508   9.189   9.690   2.597
18089WAT     H154509   9.134   9.649   2.670
18089WAT     H254510   9.240   9.768   2.633
18090WAT      O54511   4.543   8.741   8.758
18090WAT     H154512   4.616   8.731   8.691
18090WAT     H254513   4.549   8.831   8.800
18091WAT      O54514   4.091   7.425   3.855
18091WAT     H154515   4.050   7.338   3.828
18091WAT     H254516   4.103   7.428   3.954
18092WAT      O54517   9.255   7.533   3.940
18092WAT     H154518   9.240   7.607   3.874
18092WAT     H254519   9.333   7.555   3.998
18093WAT      O54520   0.433   2.973   9.095
18093WAT     H154521   0.506   2.906   9.087
18093WAT     H254522   0.396   2.994   9.004
18094WAT      O54523   8.379   1.228   7.981
18094WAT     H154524   8.332   1.232   7.892
18094WAT     H254525   8.316   1.256   8.053
18095WAT      O54526   7.547   2.011   9.449
18095WAT     H154527   7.450   2.006   9.424
18095WAT     H254528   7.569   2.103   9.480
18096WAT      O54529   4.504   3.638   9.176
18096WAT     H154530   4.432   3.698   9.142
18096WAT     H254531   4.508   3.643   9.276
18097WAT      O54532   6.922   1.183   3.503
18097WAT     H154533   6.855   1.254   3.484
18097WAT     H254534   7.002   1.195   3.444
18098WAT      O54535   6.464   8.211   3.195
18098WAT     H154536   6.410   8.144   3.144
18098WAT     H254537   6.497   8.281   3.132
18099WAT      O54538   3.010   2.796   4.539
18099WAT     H154539   3.080   2.776   4.608
18099WAT     H254540   2.993   2.895   4.538
18100WAT      O54541   1.327   9.776   0.991
18100WAT     H154542   1.256   9.707   0.980
18100WAT     H254543   1.406   9.752   0.935
18101WAT      O54544   3.905   3.355   1.071
18101WAT     H154545   3.950   3.432   1.025
18101WAT     H254546   3.855   3.301   1.003
18102WAT      O54547   6.569   6.955   1.713
18102WAT     H154548   6.629   6.878   1.737
18102WAT     H254549   6.573   6.970   1.614
18103WAT      O54550   6.629   6.917   6.400
18103WAT     H154551   6.633   6.904   6.301
18103WAT     H254552   6.539   6.953   6.426
18104WAT      O54553   5.997   6.424   4.892
18104WAT     H154554   6.043   6.499   4.845
18104WAT     H254555   6.064   6.356   4.921
18105WAT      O54556   2.405   3.776   9.409
18105WAT     H154557   2.336   3.848   9.416
18105WAT     H254558   2.477   3.792   9.476
18106WAT      O54559   0.933   7.840   7.993
18106WAT     H154560   0.983   7.888   8.065
18106WAT     H254561   0.845   7.885   7.978
18107WAT      O54562   3.320   2.914   2.412
18107WAT     H154563   3.234   2.962   2.427
18107WAT     H254564   3.310   2.819   2.441
18108WAT      O54565   8.762   0.160   5.492
18108WAT     H154566   8.713   0.158   5.404
18108WAT     H254567   8.796   0.252   5.509
18109WAT      O54568   6.191   0.795   0.770
18109WAT     H154569   6.289   0.779   0.784
18109WAT     H254570   6.138   0.730   0.825
18110WAT      O54571   0.591   5.437   4.213
18110WAT     H154572   0.684   5.417   4.244
18110WAT     H254573   0.536   5.470   4.289
18111WAT      O54574   5.462   4.120   7.307
18111WAT     H154575   5.536   4.160   7.360
18111WAT     H254576   5.386   4.185   7.301
18112WAT      O54577   8.883   7.732   0.532
18112WAT     H154578   8.887   7.715   0.433
18112WAT     H254579   8.808   7.679   0.571
18113WAT      O54580   9.421   8.822   5.030
18113WAT     H154581   9.480   8.760   5.082
18113WAT     H254582   9.447   8.819   4.934
18114WAT      O54583   5.951   9.788   4.642
18114WAT     H154584   6.004   9.709   4.612
18114WAT     H254585   5.904   9.766   4.728
18115WAT      O54586   0.807   6.895   8.371
18115WAT     H154587   0.730   6.836   8.344
18115WAT     H254588   0.881   6.887   8.304
18116WAT      O54589   3.016   8.866   7.445
18116WAT     H154590   2.998   8.787   7.387
18116WAT     H254591   2.968   8.946   7.409
18117WAT      O54592   8.029   3.489   1.720
18117WAT     H154593   8.077   3.566   1.763
18117WAT     H254594   8.069   3.403   1.754
18118WAT      O54595   2.596   4.245   0.471
18118WAT     H154596   2.671   4.236   0.405
18118WAT     H254597   2.633   4.267   0.561
18119WAT      O54598   6.274   1.912   5.606
18119WAT     H154599   6.330   1.964   5.670
18119WAT     H254600   6.312   1.920   5.514
18120WAT      O54601   0.861   1.930   0.841
18120WAT     H154602   0.959   1.915   0.826
18120WAT     H254603   0.847   2.021   0.879
18121WAT      O54604   0.119   3.815   7.453
18121WAT     H154605   0.200   3.814   7.513
18121WAT     H254606   0.120   3.898   7.397
18122WAT      O54607   4.850   1.313   4.091
18122WAT     H154608   4.797   1.325   4.007
18122WAT     H254609   4.904   1.395   4.108
18123WAT      O54610   5.296   0.141   6.802
18123WAT     H154611   5.234   0.062   6.807
18123WAT     H254612   5.351   0.145   6.886
18124WAT      O54613   7.962   2.046   0.658
18124WAT     H154614   7.981   2.133   0.614
18124WAT     H254615   7.948   1.976   0.589
18125WAT      O54616   2.513   5.998   9.714
18125WAT     H154617   2.574   5.972   9.639
18125WAT     H254618   2.455   6.074   9.685
18126WAT      O54619   8.958   8.334   4.033
18126WAT     H154620   8.949   8.323   4.131
18126WAT     H254621   9.042   8.288   4.002
18127WAT      O54622   2.500   2.689   9.197
18127WAT     H154623   2.453   2.620   9.143
18127WAT     H254624   2.442   2.771   9.204
18128WAT      O54625   6.594   0.735   9.342
18128WAT     H154626   6.580   0.807   9.409
18128WAT     H254627   6.506   0.694   9.318
18129WAT      O54628   0.685   7.966   7.936
18129WAT     H154629   0.653   7.876   7.966
18129WAT     H254630   0.639   7.990   7.850
18130WAT      O54631   2.182   3.343   8.959
18130WAT     H154632   2.258   3.290   8.997
18130WAT     H254633   2.125   3.284   8.902
18131WAT      O54634   3.623   4.612   7.993
18131WAT     H154635   3.539   4.659   8.019
18131WAT     H254636   3.696   4.637   8.056
18132WAT      O54637   4.581   4.952   8.654
18132WAT     H154638   4.569   5.016   8.578
18132WAT     H254639   4.528   4.983   8.733
18133WAT      O54640   8.409   9.332   4.928
18133WAT     H154641   8.385   9.399   4.858
18133WAT     H254642   8.344   9.340   5.005
18134WAT      O54643   8.634   1.943   7.225
18134WAT     H154644   8.718   1.968   7.274
18134WAT     H254645   8.657   1.881   7.150
18135WAT      O54646   8.268   2.305   8.824
18135WAT     H154647   8.364   2.312   8.852
18135WAT     H254648   8.211   2.289   8.905
18136WAT      O54649   5.189   2.956   1.792
18136WAT     H154650   5.243   3.024   1.841
18136WAT     H254651   5.096   2.989   1.779
18137WAT      O54652   3.940   7.892   5.864
18137WAT     H154653   3.880   7.828   5.911
18137WAT     H254654   3.973   7.852   5.778
18138WAT      O54655   1.023   6.966   8.233
18138WAT     H154656   1.112   6.927   8.211
18138WAT     H254657   1.034   7.059   8.268
18139WAT      O54658   8.267   0.064   8.835
18139WAT     H154659   8.326   0.112   8.900
18139WAT     H254660   8.224  -0.014   8.881
18140WAT      O54661   7.268   6.283   4.771
18140WAT     H154662   7.183   6.234   4.752
18140WAT     H254663   7.272   6.306   4.868
18141WAT      O54664   5.594   2.776   3.468
18141WAT     H154665   5.640   2.798   3.382
18141WAT     H254666   5.596   2.856   3.528
18142WAT      O54667   0.928   7.273   8.655
18142WAT     H154668   0.868   7.352   8.667
18142WAT     H254669   0.917   7.236   8.563
18143WAT      O54670   8.551   4.795   8.152
18143WAT     H154671   8.460   4.822   8.183
18143WAT     H254672   8.595   4.740   8.223
18144WAT      O54673   1.009   0.005   7.259
18144WAT     H154674   0.944  -0.030   7.192
18144WAT     H254675   1.027   0.102   7.241
18145WAT      O54676   8.664   4.408   8.480
18145WAT     H154677   8.610   4.325   8.499
18145WAT     H254678   8.622   4.459   8.405
18146WAT      O54679   2.546   9.405   0.935
18146WAT     H154680   2.566   9.464   0.856
18146WAT     H254681   2.532   9.461   1.016
18147WAT      O54682   8.079   8.231   1.218
18147WAT     H154683   8.166   8.239   1.169
18147WAT     H254684   8.011   8.188   1.157
18148WAT      O54685   3.218   0.570   2.470
18148WAT     H154686   3.150   0.627   2.517
18148WAT     H254687   3.299   0.625   2.450
18149WAT      O54688   5.735   3.889   4.650
18149WAT     H154689   5.739   3.888   4.750
18149WAT     H254690   5.681   3.968   4.619
18150WAT      O54691   0.643   1.165   9.651
18150WAT     H154692   0.615   1.245   9.704
18150WAT     H254693   0.634   1.185   9.553
18151WAT      O54694   3.664   7.024   8.605
18151WAT     H154695   3.678   6.939   8.553
18151WAT     H254696   3.743   7.083   8.594
18152WAT      O54697   5.121   7.611   6.698
18152WAT     H154698   5.114   7.711   6.705
18152WAT     H254699   5.109   7.570   6.788
18153WAT      O54700   3.093   3.515   1.182
18153WAT     H154701   3.109   3.441   1.117
18153WAT     H254702   3.180   3.545   1.221
18154WAT      O54703   5.909   8.185   1.772
18154WAT     H154704   5.852   8.257   1.812
18154WAT     H254705   5.905   8.191   1.672
18155WAT      O54706   7.694   6.874   3.662
18155WAT     H154707   7.728   6.799   3.718
18155WAT     H254708   7.744   6.958   3.685
18156WAT      O54709   6.903   4.958   9.063
18156WAT     H154710   6.806   4.952   9.088
18156WAT     H254711   6.950   4.875   9.093
18157WAT      O54712   3.839   0.801   2.618
18157WAT     H154713   3.753   0.847   2.640
18157WAT     H254714   3.865   0.741   2.694
18158WAT      O54715   7.330   5.043   2.948
18158WAT     H154716   7.277   5.070   2.868
18158WAT     H254717   7.419   5.089   2.946
18159WAT      O54718   8.722   2.394   0.219
18159WAT     H154719   8.781   2.341   0.158
18159WAT     H254720   8.665   2.332   0.273
18160WAT      O54721   8.099   5.874   3.191
18160WAT     H154722   8.022   5.915   3.142
18160WAT     H254723   8.182   5.880   3.136
18161WAT      O54724   9.470   9.636   7.375
18161WAT     H154725   9.543   9.647   7.307
18161WAT     H254726   9.401   9.573   7.339
18162WAT      O54727   2.798   6.131   7.305
18162WAT     H154728   2.848   6.191   7.367
18162WAT     H254729   2.721   6.180   7.266
18163WAT      O54730   7.195   2.178   6.783
18163WAT     H154731   7.281   2.205   6.827
18163WAT     H254732   7.208   2.178   6.683
18164WAT      O54733   9.705   6.693   0.807
18164WAT     H154734   9.655   6.686   0.894
18164WAT     H254735   9.720   6.789   0.785
18165WAT      O54736   4.628   2.387   8.418
18165WAT     H154737   4.556   2.412   8.353
18165WAT     H254738   4.665   2.297   8.394
18166WAT      O54739   5.201   6.663   3.720
18166WAT     H154740   5.150   6.676   3.806
18166WAT     H254741   5.156   6.592   3.666
18167WAT      O54742   4.472   3.637   9.473
18167WAT     H154743   4.459   3.538   9.482
18167WAT     H254744   4.561   3.662   9.511
18168WAT      O54745   5.173   2.972   2.294
18168WAT     H154746   5.154   2.877   2.315
18168WAT     H254747   5.115   3.002   2.218
18169WAT      O54748   8.992   7.966   5.728
18169WAT     H154749   9.075   7.969   5.671
18169WAT     H254750   9.015   7.991   5.822
18170WAT      O54751   7.370   4.060   4.388
18170WAT     H154752   7.448   4.002   4.414
18170WAT     H254753   7.314   4.011   4.322
18171WAT      O54754   7.796   3.732   2.052
18171WAT     H154755   7.732   3.781   2.111
18171WAT     H254756   7.827   3.649   2.097
18172WAT      O54757   3.631   8.104   0.952
18172WAT     H154758   3.656   8.143   0.864
18172WAT     H254759   3.560   8.034   0.940
18173WAT      O54760   8.588   7.169   8.431
18173WAT     H154761   8.564   7.080   8.472
18173WAT     H254762   8.599   7.158   8.333
18174WAT      O54763   8.246   5.945   8.260
18174WAT     H154764   8.250   5.870   8.194
18174WAT     H254765   8.339   5.972   8.286
18175WAT      O54766   6.209   7.256   5.712
18175WAT     H154767   6.146   7.182   5.687
18175WAT     H254768   6.301   7.233   5.681
18176WAT      O54769   8.990   4.957   8.918
18176WAT     H154770   9.082   4.996   8.923
18176WAT     H254771   8.973   4.902   8.999
18177WAT      O54772   4.329   7.963   7.401
18177WAT     H154773   4.264   7.981   7.474
18177WAT     H254774   4.281   7.955   7.314
18178WAT      O54775   7.064   6.655   3.644
18178WAT     H154776   7.033   6.598   3.719
18178WAT     H254777   7.009   6.739   3.641
18179WAT      O54778   1.068   6.278   3.966
18179WAT     H154779   0.996   6.347   3.967
18179WAT     H254780   1.026   6.187   3.959
18180WAT      O54781   1.730   5.898   5.399
18180WAT     H154782   1.793   5.975   5.394
18180WAT     H254783   1.768   5.820   5.349
18181WAT      O54784   7.444   4.505   1.803
18181WAT     H154785   7.484   4.477   1.716
18181WAT     H254786   7.498   4.581   1.841
18182WAT      O54787   2.146   5.444   1.821
18182WAT     H154788   2.155   5.541   1.844
18182WAT     H254789   2.230   5.411   1.778
18183WAT      O54790   6.945   8.126   5.862
18183WAT     H154791   6.901   8.070   5.792
18183WAT     H254792   6.885   8.202   5.886
18184WAT      O54793   6.978   3.110   2.169
18184WAT     H154794   6.965   3.110   2.268
18184WAT     H254795   6.917   3.178   2.128
18185WAT      O54796   1.552   3.167   1.252
18185WAT     H154797   1.568   3.236   1.322
18185WAT     H254798   1.633   3.160   1.193
18186WAT      O54799   1.546   1.057   3.224
18186WAT     H154800   1.456   1.089   3.193
18186WAT     H254801   1.547   1.053   3.324
18187WAT      O54802   2.404   3.472   2.956
18187WAT     H154803   2.387   3.521   2.871
18187WAT     H254804   2.353   3.386   2.955
18188WAT      O54805   3.401   5.355   5.417
18188WAT     H154806   3.361   5.267   5.443
18188WAT     H254807   3.404   5.415   5.496
18189WAT      O54808   2.566   0.274   6.115
18189WAT     H154809   2.538   0.230   6.200
18189WAT     H254810   2.507   0.353   6.097
18190WAT      O54811   9.210   8.950   3.901
18190WAT     H154812   9.144   8.890   3.856
18190WAT     H254813   9.260   8.898   3.970
18191WAT      O54814   5.952   2.006   4.240
18191WAT     H154815   6.013   2.085   4.244
18191WAT     H254816   5.898   2.009   4.156
18192WAT      O54817   6.720   6.715   1.361
18192WAT     H154818   6.715   6.776   1.282
18192WAT     H254819   6.813   6.716   1.399
18193WAT      O54820   2.130   6.418   6.799
18193WAT     H154821   2.130   6.430   6.699
18193WAT     H254822   2.038   6.437   6.834
18194WAT      O54823   8.485   5.960   6.426
18194WAT     H154824   8.461   5.865   6.444
18194WAT     H254825   8.409   6.007   6.382
18195WAT      O54826   3.062   4.779   4.854
18195WAT     H154827   3.065   4.760   4.952
18195WAT     H254828   3.032   4.696   4.806
18196WAT      O54829   7.593   8.643   5.258
18196WAT     H154830   7.604   8.733   5.301
18196WAT     H254831   7.500   8.635   5.221
18197WAT      O54832   2.085   8.739   2.546
18197WAT     H154833   2.123   8.722   2.637
18197WAT     H254834   2.121   8.672   2.481
18198WAT      O54835   6.375   8.877   7.224
18198WAT     H154836   6.451   8.817   7.250
18198WAT     H254837   6.338   8.921   7.306
18199WAT      O54838   2.950   1.422   3.004
18199WAT     H154839   2.937   1.386   2.912
18199WAT     H254840   2.867   1.408   3.058
18200WAT      O54841   7.825   7.961   2.914
18200WAT     H154842   7.895   8.031   2.923
18200WAT     H254843   7.762   7.967   2.991
18201WAT      O54844   0.737   8.990   9.065
18201WAT     H154845   0.814   9.053   9.056
18201WAT     H254846   0.651   9.040   9.055
18202WAT      O54847   1.262   5.329   8.263
18202WAT     H154848   1.312   5.267   8.203
18202WAT     H254849   1.168   5.338   8.230
18203WAT      O54850   6.794   6.511   7.250
18203WAT     H154851   6.880   6.469   7.223
18203WAT     H254852   6.761   6.469   7.335
18204WAT      O54853   0.408   7.199   5.159
18204WAT     H154854   0.502   7.170   5.174
18204WAT     H254855   0.406   7.266   5.084
18205WAT      O54856   1.615   6.528   6.105
18205WAT     H154857   1.600   6.434   6.135
18205WAT     H254858   1.713   6.549   6.106
18206WAT      O54859   2.304   0.968   3.001
18206WAT     H154860   2.289   1.023   2.919
18206WAT     H254861   2.398   0.982   3.034
18207WAT      O54862   4.776   5.652   7.238
18207WAT     H154863   4.723   5.653   7.323
18207WAT     H254864   4.782   5.558   7.204
18208WAT      O54865   6.818   9.469   6.253
18208WAT     H154866   6.743   9.471   6.320
18208WAT     H254867   6.796   9.531   6.177
18209WAT      O54868   9.031   7.044   7.025
18209WAT     H154869   8.946   7.092   7.005
18209WAT     H254870   9.011   6.954   7.063
18210WAT      O54871   0.449   7.351   8.531
18210WAT     H154872   0.374   7.363   8.596
18210WAT     H254873   0.422   7.385   8.441
18211WAT      O54874   4.679   6.818   3.114
18211WAT     H154875   4.618   6.851   3.185
18211WAT     H254876   4.718   6.730   3.141
18212WAT      O54877   6.163   3.398   5.591
18212WAT     H154878   6.238   3.395   5.525
18212WAT     H254879   6.154   3.490   5.628
18213WAT      O54880   8.194   8.988   9.522
18213WAT     H154881   8.104   8.950   9.542
18213WAT     H254882   8.258   8.915   9.502
18214WAT      O54883   9.860   7.950   6.926
18214WAT     H154884   9.920   8.016   6.881
18214WAT     H254885   9.765   7.970   6.904
18215WAT      O54886   2.240   2.112   7.780
18215WAT     H154887   2.142   2.095   7.788
18215WAT     H254888   2.256   2.185   7.714
18216WAT      O54889   6.365   5.577   1.140
18216WAT     H154890   6.397   5.591   1.047
18216WAT     H254891   6.323   5.661   1.174
18217WAT      O54892   9.020   7.764   5.259
18217WAT     H154893   9.094   7.706   5.225
18217WAT     H254894   8.952   7.707   5.305
18218WAT      O54895   8.337   7.259   8.493
18218WAT     H154896   8.297   7.178   8.451
18218WAT     H254897   8.434   7.263   8.472
18219WAT      O54898   9.078   6.869   2.700
18219WAT     H154899   9.070   6.867   2.800
18219WAT     H254900   8.998   6.826   2.660
18220WAT      O54901   9.684   6.599   4.559
18220WAT     H154902   9.781   6.607   4.539
18220WAT     H254903   9.631   6.633   4.482
18221WAT      O54904   0.191   3.840   0.396
18221WAT     H154905   0.121   3.770   0.409
18221WAT     H254906   0.148   3.929   0.381
18222WAT      O54907   5.251   3.853   4.728
18222WAT     H154908   5.193   3.934   4.722
18222WAT     H254909   5.201   3.779   4.773
18223WAT      O54910   3.081   5.425   7.713
18223WAT     H154911   3.088   5.371   7.797
18223WAT     H254912   3.160   5.407   7.655
18224WAT      O54913   8.230   8.531   0.753
18224WAT     H154914   8.150   8.476   0.780
18224WAT     H254915   8.227   8.548   0.655
18225WAT      O54916   3.541   2.115   9.201
18225WAT     H154917   3.591   2.146   9.120
18225WAT     H254918   3.579   2.161   9.282
18226WAT      O54919   1.389   8.157   1.368
18226WAT     H154920   1.348   8.249   1.369
18226WAT     H254921   1.318   8.090   1.348
18227WAT      O54922   0.865   4.121   2.435
18227WAT     H154923   0.932   4.165   2.375
18227WAT     H254924   0.862   4.023   2.415
18228WAT      O54925   3.665   0.212   1.595
18228WAT     H154926   3.763   0.230   1.607
18228WAT     H254927   3.653   0.129   1.540
18229WAT      O54928   7.835   7.418   1.623
18229WAT     H154929   7.922   7.373   1.602
18229WAT     H254930   7.822   7.420   1.722
18230WAT      O54931   3.219   7.406   0.427
18230WAT     H154932   3.120   7.396   0.439
18230WAT     H254933   3.236   7.466   0.349
18231WAT      O54934   2.921   6.132   8.812
18231WAT     H154935   2.961   6.183   8.888
18231WAT     H254936   2.910   6.193   8.733
18232WAT      O54937   8.019   7.268   2.360
18232WAT     H154938   7.945   7.332   2.380
18232WAT     H254939   8.001   7.221   2.273
18233WAT      O54940   1.321   0.912   6.413
18233WAT     H154941   1.372   0.977   6.469
18233WAT     H254942   1.321   0.942   6.318
18234WAT      O54943   6.071   7.735   6.319
18234WAT     H154944   6.091   7.829   6.289
18234WAT     H254945   6.098   7.724   6.415
18235WAT      O54946   9.039   8.944   3.496
18235WAT     H154947   8.975   8.868   3.499
18235WAT     H254948   8.998   9.024   3.539
18236WAT      O54949   1.128   3.594   3.053
18236WAT     H154950   1.165   3.540   2.978
18236WAT     H254951   1.151   3.690   3.039
18237WAT      O54952   5.535   1.713   0.307
18237WAT     H154953   5.531   1.671   0.216
18237WAT     H254954   5.516   1.811   0.300
18238WAT      O54955   6.784   9.787   9.194
18238WAT     H154956   6.762   9.884   9.184
18238WAT     H254957   6.846   9.759   9.121
18239WAT      O54958   3.921   2.374   9.795
18239WAT     H154959   3.929   2.414   9.704
18239WAT     H254960   3.824   2.368   9.821
18240WAT      O54961   0.012   2.800   0.219
18240WAT     H154962  -0.083   2.793   0.187
18240WAT     H254963   0.064   2.855   0.154
18241WAT      O54964   7.539   5.251   0.960
18241WAT     H154965   7.546   5.170   0.902
18241WAT     H254966   7.581   5.329   0.914
18242WAT      O54967   9.308   3.549   4.030
18242WAT     H154968   9.270   3.607   4.102
18242WAT     H254969   9.407   3.546   4.038
18243WAT      O54970   6.658   4.796   2.761
18243WAT     H154971   6.755   4.822   2.757
18243WAT     H254972   6.607   4.865   2.811
18244WAT      O54973   6.582   4.356   8.050
18244WAT     H154974   6.596   4.270   8.001
18244WAT     H254975   6.641   4.427   8.010
18245WAT      O54976   7.472   4.500   6.377
18245WAT     H154977   7.469   4.423   6.313
18245WAT     H254978   7.489   4.465   6.469
18246WAT      O54979   0.371   7.551   5.666
18246WAT     H154980   0.449   7.498   5.698
18246WAT     H254981   0.296   7.544   5.733
18247WAT      O54982   0.065   5.348   8.067
18247WAT     H154983   0.093   5.269   8.121
18247WAT     H254984   0.139   5.375   8.005
18248WAT      O54985   0.130   5.203   5.723
18248WAT     H154986   0.103   5.181   5.816
18248WAT     H254987   0.143   5.119   5.670
18249WAT      O54988   3.373   0.595   9.647
18249WAT     H154989   3.293   0.616   9.704
18249WAT     H254990   3.344   0.582   9.552
18250WAT      O54991   9.082   8.335   1.985
18250WAT     H154992   9.146   8.267   2.021
18250WAT     H254993   9.049   8.392   2.060
18251WAT      O54994   1.648   2.485   2.386
18251WAT     H154995   1.604   2.443   2.466
18251WAT     H254996   1.603   2.453   2.303
18252WAT      O54997   0.567   7.248   9.247
18252WAT     H154998   0.620   7.220   9.166
18252WAT     H254999   0.570   7.175   9.315
18253WAT      O55000   6.626   9.462   2.624
18253WAT     H155001   6.628   9.533   2.554
18253WAT     H255002   6.692   9.391   2.601
18254WAT      O55003   4.849   3.038   7.446
18254WAT     H155004   4.803   2.950   7.441
18254WAT     H255005   4.801   3.104   7.389
18255WAT      O55006   3.297   4.710   8.746
18255WAT     H155007   3.275   4.746   8.837
18255WAT     H255008   3.325   4.615   8.754
18256WAT      O55009   4.199   4.669   6.782
18256WAT     H155010   4.145   4.609   6.722
18256WAT     H255011   4.294   4.639   6.781
18257WAT      O55012   2.654   9.612   1.511
18257WAT     H155013   2.650   9.711   1.494
18257WAT     H255014   2.570   9.583   1.556
18258WAT      O55015   7.489   0.063   6.413
18258WAT     H155016   7.574   0.015   6.436
18258WAT     H255017   7.501   0.161   6.431
18259WAT      O55018   0.325   5.347   1.471
18259WAT     H155019   0.257   5.381   1.536
18259WAT     H255020   0.338   5.414   1.399
18260WAT      O55021   6.115   8.410   7.139
18260WAT     H155022   6.025   8.373   7.117
18260WAT     H255023   6.160   8.439   7.055
18261WAT      O55024   6.710   6.293   1.960
18261WAT     H155025   6.789   6.352   1.941
18261WAT     H255026   6.631   6.327   1.909
18262WAT      O55027   0.386   2.824   3.769
18262WAT     H155028   0.314   2.763   3.738
18262WAT     H255029   0.365   2.858   3.861
18263WAT      O55030   6.925   7.333   2.388
18263WAT     H155031   7.008   7.364   2.341
18263WAT     H255032   6.845   7.380   2.351
18264WAT      O55033   0.711   0.397   6.185
18264WAT     H155034   0.751   0.461   6.251
18264WAT     H255035   0.741   0.304   6.206
18265WAT      O55036   6.909   9.776   7.643
18265WAT     H155037   6.820   9.750   7.604
18265WAT     H255038   6.978   9.776   7.571
18266WAT      O55039   5.871   3.899   6.893
18266WAT     H155040   5.882   3.972   6.826
18266WAT     H255041   5.798   3.923   6.957
18267WAT      O55042   0.052   2.648   5.379
18267WAT     H155043  -0.029   2.610   5.423
18267WAT     H255044   0.113   2.687   5.448
18268WAT      O55045   4.785   0.613   9.578
18268WAT     H155046   4.774   0.637   9.482
18268WAT     H255047   4.697   0.585   9.616
18269WAT      O55048   2.433   1.910   1.942
18269WAT     H155049   2.474   1.844   1.879
18269WAT     H255050   2.344   1.939   1.907
18270WAT      O55051   4.874   9.524   6.489
18270WAT     H155052   4.842   9.471   6.411
18270WAT     H255053   4.842   9.619   6.480
18271WAT      O55054   8.312   6.383   7.795
18271WAT     H155055   8.257   6.327   7.858
18271WAT     H255056   8.267   6.472   7.782
18272WAT      O55057   6.291   0.002   4.315
18272WAT     H155058   6.268   0.074   4.381
18272WAT     H255059   6.381  -0.037   4.338
18273WAT      O55060   6.565   9.407   9.887
18273WAT     H155061   6.611   9.394   9.975
18273WAT     H255062   6.627   9.381   9.813
18274WAT      O55063   2.407   5.698   1.090
18274WAT     H155064   2.462   5.724   1.011
18274WAT     H255065   2.313   5.682   1.062
18275WAT      O55066   0.389   0.174   2.624
18275WAT     H155067   0.344   0.263   2.635
18275WAT     H255068   0.483   0.181   2.658
18276WAT      O55069   8.889   5.653   7.756
18276WAT     H155070   8.811   5.617   7.706
18276WAT     H255071   8.873   5.749   7.779
18277WAT      O55072   9.635   1.582   6.703
18277WAT     H155073   9.716   1.639   6.714
18277WAT     H255074   9.557   1.639   6.678
18278WAT      O55075   6.037   4.162   4.742
18278WAT     H155076   6.002   4.087   4.798
18278WAT     H255077   6.112   4.207   4.790
18279WAT      O55078   2.777   6.198   9.171
18279WAT     H155079   2.738   6.285   9.141
18279WAT     H255080   2.741   6.124   9.115
18280WAT      O55081   3.749   0.015   2.129
18280WAT     H155082   3.825   0.072   2.095
18280WAT     H255083   3.689  -0.010   2.053
18281WAT      O55084   2.009   4.102   8.796
18281WAT     H155085   1.922   4.104   8.747
18281WAT     H255086   2.084   4.096   8.730
18282WAT      O55087   7.104   6.100   9.301
18282WAT     H155088   7.173   6.122   9.232
18282WAT     H255089   7.013   6.125   9.266
18283WAT      O55090   4.055   8.486   3.444
18283WAT     H155091   3.974   8.427   3.437
18283WAT     H255092   4.137   8.432   3.423
18284WAT      O55093   8.109   2.848   9.110
18284WAT     H155094   8.192   2.857   9.164
18284WAT     H255095   8.079   2.938   9.079
18285WAT      O55096   2.269   2.893   9.514
18285WAT     H155097   2.181   2.867   9.554
18285WAT     H255098   2.307   2.971   9.565
18286WAT      O55099   0.529   7.901   0.490
18286WAT     H155100   0.453   7.921   0.428
18286WAT     H255101   0.562   7.986   0.530
18287WAT      O55102   7.493   3.232   5.979
18287WAT     H155103   7.517   3.330   5.981
18287WAT     H255104   7.527   3.188   6.062
18288WAT      O55105   5.663   6.400   2.897
18288WAT     H155106   5.761   6.388   2.912
18288WAT     H255107   5.637   6.495   2.914
18289WAT      O55108   6.342   6.910   9.307
18289WAT     H155109   6.288   6.826   9.295
18289WAT     H255110   6.304   6.964   9.382
18290WAT      O55111   2.477   9.245   4.579
18290WAT     H155112   2.536   9.270   4.502
18290WAT     H255113   2.468   9.146   4.584
18291WAT      O55114   8.858   4.058   9.208
18291WAT     H155115   8.843   3.969   9.166
18291WAT     H255116   8.951   4.062   9.244
18292WAT      O55117   3.219   5.872   2.338
18292WAT     H155118   3.239   5.781   2.302
18292WAT     H255119   3.150   5.864   2.410
18293WAT      O55120   5.073   7.706   2.382
18293WAT     H155121   5.167   7.737   2.365
18293WAT     H255122   5.008   7.774   2.349
18294WAT      O55123   5.950   2.357   6.915
18294WAT     H155124   5.962   2.457   6.916
18294WAT     H255125   5.977   2.321   6.826
18295WAT      O55126   4.533   7.591   0.688
18295WAT     H155127   4.449   7.541   0.708
18295WAT     H255128   4.612   7.530   0.698
18296WAT      O55129   7.376   7.176   6.189
18296WAT     H155130   7.409   7.224   6.107
18296WAT     H255131   7.277   7.185   6.195
18297WAT      O55132   0.512   3.722   6.112
18297WAT     H155133   0.589   3.660   6.100
18297WAT     H255134   0.427   3.674   6.091
18298WAT      O55135   5.533   2.264   8.783
18298WAT     H155136   5.572   2.282   8.692
18298WAT     H255137   5.602   2.220   8.840
18299WAT      O55138   9.405   6.703   1.634
18299WAT     H155139   9.421   6.615   1.678
18299WAT     H255140   9.461   6.711   1.551
18300WAT      O55141   6.531   0.736   2.377
18300WAT     H155142   6.514   0.735   2.475
18300WAT     H255143   6.597   0.665   2.353
18301WAT      O55144   7.957   7.534   4.016
18301WAT     H155145   7.895   7.554   3.940
18301WAT     H255146   7.933   7.592   4.094
18302WAT      O55147   3.193   6.692   7.157
18302WAT     H155148   3.282   6.727   7.127
18302WAT     H255149   3.199   6.662   7.252
18303WAT      O55150   1.046   6.532   0.076
18303WAT     H155151   1.014   6.627   0.082
18303WAT     H255152   0.968   6.471   0.067
18304WAT      O55153   5.712   2.904   3.235
18304WAT     H155154   5.638   2.856   3.188
18304WAT     H255155   5.684   2.999   3.252
18305WAT      O55156   9.213   0.534   4.715
18305WAT     H155157   9.210   0.579   4.804
18305WAT     H255158   9.199   0.435   4.728
18306WAT      O55159   8.640   8.715   0.796
18306WAT     H155160   8.657   8.812   0.777
18306WAT     H255161   8.687   8.660   0.727
18307WAT      O55162   7.405   8.683   5.571
18307WAT     H155163   7.306   8.688   5.583
18307WAT     H255164   7.437   8.592   5.597
18308WAT      O55165   4.237   7.618   1.555
18308WAT     H155166   4.334   7.594   1.547
18308WAT     H255167   4.229   7.714   1.580
18309WAT      O55168   1.656   5.534   8.124
18309WAT     H155169   1.569   5.576   8.148
18309WAT     H255170   1.646   5.484   8.037
18310WAT      O55171   4.854   9.767   9.578
18310WAT     H155172   4.821   9.688   9.527
18310WAT     H255173   4.947   9.790   9.549
18311WAT      O55174   4.595   8.628   7.540
18311WAT     H155175   4.683   8.580   7.541
18311WAT     H255176   4.526   8.572   7.588
18312WAT      O55177   8.806   1.189   5.102
18312WAT     H155178   8.739   1.116   5.110
18312WAT     H255179   8.882   1.171   5.165
18313WAT      O55180   6.799   6.702   7.735
18313WAT     H155181   6.878   6.644   7.714
18313WAT     H255182   6.793   6.776   7.668
18314WAT      O55183   2.936   0.514   3.981
18314WAT     H155184   3.009   0.453   3.951
18314WAT     H255185   2.959   0.552   4.071
18315WAT      O55186   8.673   9.167   1.998
18315WAT     H155187   8.663   9.076   1.959
18315WAT     H255188   8.666   9.162   2.098
18316WAT      O55189   7.904   6.785   6.208
18316WAT     H155190   7.831   6.718   6.215
18316WAT     H255191   7.945   6.799   6.298
18317WAT      O55192   8.886   7.809   8.928
18317WAT     H155193   8.884   7.730   8.866
18317WAT     H255194   8.969   7.807   8.983
18318WAT      O55195   0.973   1.325   1.719
18318WAT     H155196   1.007   1.262   1.649
18318WAT     H255197   0.977   1.281   1.809
18319WAT      O55198   3.358   7.833   7.591
18319WAT     H155199   3.449   7.875   7.582
18319WAT     H255200   3.298   7.869   7.521
18320WAT      O55201   5.567   3.953   0.907
18320WAT     H155202   5.480   3.918   0.872
18320WAT     H255203   5.580   4.047   0.874
18321WAT      O55204   3.378   8.858   2.267
18321WAT     H155205   3.385   8.918   2.347
18321WAT     H255206   3.470   8.828   2.240
18322WAT      O55207   4.402   2.428   9.731
18322WAT     H155208   4.325   2.420   9.794
18322WAT     H255209   4.370   2.463   9.643
18323WAT      O55210   0.477   3.580   7.236
18323WAT     H155211   0.482   3.485   7.267
18323WAT     H255212   0.558   3.601   7.180
18324WAT      O55213   4.352   0.393   8.136
18324WAT     H155214   4.279   0.411   8.071
18324WAT     H255215   4.403   0.311   8.109
18325WAT      O55216   8.485   6.662   8.771
18325WAT     H155217   8.457   6.756   8.790
18325WAT     H255218   8.585   6.658   8.761
18326WAT      O55219   0.978   6.290   1.790
18326WAT     H155220   0.924   6.244   1.719
18326WAT     H255221   0.916   6.338   1.852
18327WAT      O55222   1.385   5.441   2.019
18327WAT     H155223   1.334   5.362   2.053
18327WAT     H255224   1.470   5.410   1.977
18328WAT      O55225   2.776   0.670   3.522
18328WAT     H155226   2.748   0.692   3.615
18328WAT     H255227   2.862   0.618   3.524
18329WAT      O55228   3.783   2.797   4.471
18329WAT     H155229   3.856   2.865   4.479
18329WAT     H255230   3.760   2.786   4.375
18330WAT      O55231   5.055   5.267   7.293
18330WAT     H155232   4.997   5.289   7.371
18330WAT     H255233   5.042   5.170   7.269
18331WAT      O55234   4.445   9.429   9.601
18331WAT     H155235   4.406   9.360   9.662
18331WAT     H255236   4.385   9.443   9.523
18332WAT      O55237   9.120   1.990   0.662
18332WAT     H155238   9.202   1.932   0.652
18332WAT     H255239   9.062   1.953   0.735
18333WAT      O55240   4.384   1.343   9.731
18333WAT     H155241   4.310   1.364   9.795
18333WAT     H255242   4.376   1.404   9.652
18334WAT      O55243   3.300   3.497   6.307
18334WAT     H155244   3.270   3.418   6.361
18334WAT     H255245   3.279   3.581   6.357
18335WAT      O55246   1.906   9.309   4.210
18335WAT     H155247   1.895   9.282   4.114
18335WAT     H255248   1.911   9.227   4.268
18336WAT      O55249   3.290   0.829   7.454
18336WAT     H155250   3.355   0.854   7.383
18336WAT     H255251   3.208   0.790   7.413
18337WAT      O55252   4.057   8.400   9.798
18337WAT     H155253   4.100   8.343   9.868
18337WAT     H255254   4.015   8.342   9.728
18338WAT      O55255   9.057   7.465   8.315
18338WAT     H155256   9.070   7.506   8.225
18338WAT     H255257   9.016   7.374   8.305
18339WAT      O55258   2.605   4.041   2.586
18339WAT     H155259   2.515   4.081   2.574
18339WAT     H255260   2.646   4.075   2.671
18340WAT      O55261   8.006   4.607   6.219
18340WAT     H155262   8.060   4.532   6.257
18340WAT     H255263   8.051   4.642   6.137
18341WAT      O55264   7.210   4.353   3.093
18341WAT     H155265   7.182   4.447   3.108
18341WAT     H255266   7.228   4.338   2.996
18342WAT      O55267   2.781   5.355   3.040
18342WAT     H155268   2.768   5.303   3.124
18342WAT     H255269   2.877   5.381   3.032
18343WAT      O55270   2.491   4.003   3.962
18343WAT     H155271   2.561   4.051   3.909
18343WAT     H255272   2.427   4.070   4.000
18344WAT      O55273   9.477   7.504   1.781
18344WAT     H155274   9.394   7.468   1.740
18344WAT     H255275   9.493   7.460   1.870
18345WAT      O55276   8.934   2.765   8.989
18345WAT     H155277   8.864   2.828   9.021
18345WAT     H255278   8.932   2.682   9.043
18346WAT      O55279   7.278   7.966   0.128
18346WAT     H155280   7.231   7.880   0.148
18346WAT     H255281   7.377   7.949   0.122
18347WAT      O55282   1.741   0.391   0.692
18347WAT     H155283   1.804   0.375   0.616
18347WAT     H255284   1.652   0.349   0.671
18348WAT      O55285   8.245   8.103   8.775
18348WAT     H155286   8.294   8.184   8.743
18348WAT     H255287   8.202   8.058   8.697
18349WAT      O55288   9.599   8.542   6.514
18349WAT     H155289   9.538   8.499   6.581
18349WAT     H255290   9.545   8.596   6.450
18350WAT      O55291   7.682   3.452   3.698
18350WAT     H155292   7.651   3.479   3.789
18350WAT     H255293   7.636   3.368   3.670
18351WAT      O55294   5.243   8.683   4.633
18351WAT     H155295   5.158   8.700   4.582
18351WAT     H255296   5.246   8.745   4.712
18352WAT      O55297   6.922   7.282   9.306
18352WAT     H155298   6.919   7.290   9.405
18352WAT     H255299   6.866   7.204   9.277
18353WAT      O55300   1.149   0.616   1.056
18353WAT     H155301   1.129   0.521   1.031
18353WAT     H255302   1.247   0.627   1.072
18354WAT      O55303   7.861   1.184   6.692
18354WAT     H155304   7.915   1.176   6.609
18354WAT     H255305   7.772   1.139   6.678
18355WAT      O55306   0.118   7.669   1.610
18355WAT     H155307   0.148   7.582   1.570
18355WAT     H255308   0.022   7.660   1.639
18356WAT      O55309   0.828   9.300   8.407
18356WAT     H155310   0.928   9.300   8.412
18356WAT     H255311   0.790   9.240   8.477
18357WAT      O55312   5.125   8.148   7.213
18357WAT     H155313   5.075   8.179   7.131
18357WAT     H255314   5.185   8.072   7.188
18358WAT      O55315   7.325   1.379   6.079
18358WAT     H155316   7.265   1.303   6.102
18358WAT     H255317   7.347   1.377   5.982
18359WAT      O55318   9.226   4.621   4.632
18359WAT     H155319   9.227   4.708   4.582
18359WAT     H255320   9.205   4.638   4.728
18360WAT      O55321   9.718   4.588   6.779
18360WAT     H155322   9.791   4.579   6.847
18360WAT     H255323   9.639   4.533   6.806
18361WAT      O55324   8.124   3.730   0.374
18361WAT     H155325   8.125   3.728   0.474
18361WAT     H255326   8.119   3.825   0.343
18362WAT      O55327   0.526   0.785   3.294
18362WAT     H155328   0.431   0.808   3.314
18362WAT     H255329   0.574   0.867   3.260
18363WAT      O55330   4.261   9.201   7.698
18363WAT     H155331   4.185   9.136   7.709
18363WAT     H255332   4.300   9.191   7.607
18364WAT      O55333   0.730   2.565   1.085
18364WAT     H155334   0.786   2.482   1.088
18364WAT     H255335   0.680   2.574   1.171
18365WAT      O55336   0.781   6.884   4.915
18365WAT     H155337   0.861   6.907   4.972
18365WAT     H255338   0.803   6.808   4.855
18366WAT      O55339   8.781   5.266   5.323
18366WAT     H155340   8.789   5.179   5.275
18366WAT     H255341   8.866   5.285   5.372
18367WAT      O55342   0.549   2.563   4.185
18367WAT     H155343   0.556   2.652   4.140
18367WAT     H255344   0.632   2.510   4.166
18368WAT      O55345   0.965   5.447   2.089
18368WAT     H155346   0.972   5.444   1.989
18368WAT     H255347   0.905   5.523   2.116
18369WAT      O55348   6.960   4.198   1.066
18369WAT     H155349   6.988   4.102   1.057
18369WAT     H255350   7.034   4.258   1.033
18370WAT      O55351   3.555   4.699   0.284
18370WAT     H155352   3.581   4.631   0.353
18370WAT     H255353   3.497   4.657   0.216
18371WAT      O55354   2.425   9.686   8.727
18371WAT     H155355   2.400   9.630   8.806
18371WAT     H255356   2.423   9.630   8.644
18372WAT      O55357   1.990   0.894   3.241
18372WAT     H155358   1.910   0.937   3.199
18372WAT     H255359   2.030   0.828   3.178
18373WAT      O55360   7.141   7.719   6.578
18373WAT     H155361   7.150   7.811   6.541
18373WAT     H255362   7.140   7.723   6.678
18374WAT      O55363   0.449   7.182   4.178
18374WAT     H155364   0.432   7.176   4.276
18374WAT     H255365   0.364   7.162   4.128
18375WAT      O55366   1.810   3.468   4.958
18375WAT     H155367   1.805   3.527   4.877
18375WAT     H255368   1.731   3.486   5.017
18376WAT      O55369   5.509   3.474   4.711
18376WAT     H155370   5.589   3.532   4.723
18376WAT     H255371   5.521   3.389   4.762
18377WAT      O55372   8.663   7.521   9.028
18377WAT     H155373   8.759   7.496   9.013
18377WAT     H255374   8.658   7.616   9.057
18378WAT      O55375   2.479   9.385   3.967
18378WAT     H155376   2.552   9.334   4.013
18378WAT     H255377   2.393   9.373   4.018
18379WAT      O55378   2.996   3.968   5.566
18379WAT     H155379   2.992   3.871   5.543
18379WAT     H255380   3.088   3.991   5.598
18380WAT      O55381   9.329   3.271   7.950
18380WAT     H155382   9.306   3.263   8.047
18380WAT     H255383   9.392   3.346   7.936
18381WAT      O55384   6.371   1.178   1.565
18381WAT     H155385   6.391   1.084   1.596
18381WAT     H255386   6.381   1.183   1.466
18382WAT      O55387   8.413   3.851   6.986
18382WAT     H155388   8.382   3.757   6.996
18382WAT     H255389   8.339   3.906   6.948
18383WAT      O55390   4.486   4.384   8.745
18383WAT     H155391   4.565   4.443   8.731
18383WAT     H255392   4.465   4.336   8.659
18384WAT      O55393   9.646   4.701   4.510
18384WAT     H155394   9.710   4.658   4.574
18384WAT     H255395   9.668   4.672   4.417
18385WAT      O55396   3.859   0.847   1.435
18385WAT     H155397   3.823   0.887   1.520
18385WAT     H255398   3.897   0.920   1.378
18386WAT      O55399   9.354   3.101   4.334
18386WAT     H155400   9.339   3.116   4.432
18386WAT     H255401   9.271   3.126   4.284
18387WAT      O55402   2.373   2.505   8.323
18387WAT     H155403   2.367   2.605   8.313
18387WAT     H255404   2.390   2.464   8.234
18388WAT      O55405   8.605   4.304   6.461
18388WAT     H155406   8.611   4.227   6.398
18388WAT     H255407   8.672   4.292   6.534
18389WAT      O55408   4.587   7.509   9.000
18389WAT     H155409   4.555   7.423   8.961
18389WAT     H255410   4.563   7.512   9.097
18390WAT      O55411   3.546   3.645   5.360
18390WAT     H155412   3.519   3.578   5.428
18390WAT     H255413   3.628   3.693   5.392
18391WAT      O55414   0.201   9.336   6.616
18391WAT     H155415   0.134   9.262   6.619
18391WAT     H255416   0.153   9.424   6.616
18392WAT      O55417   1.461   4.962   2.089
18392WAT     H155418   1.436   4.877   2.042
18392WAT     H255419   1.541   5.002   2.043
18393WAT      O55420   8.246   4.262   2.543
18393WAT     H155421   8.311   4.303   2.479
18393WAT     H255422   8.153   4.278   2.510
18394WAT      O55423   7.973   1.475   3.063
18394WAT     H155424   7.966   1.549   3.130
18394WAT     H255425   8.061   1.481   3.016
18395WAT      O55426   0.720   1.937   0.272
18395WAT     H155427   0.772   1.895   0.197
18395WAT     H255428   0.623   1.917   0.260
18396WAT      O55429   9.747   6.089   6.561
18396WAT     H155430   9.842   6.068   6.541
18396WAT     H255431   9.699   6.108   6.475
18397WAT      O55432   8.541   5.126   2.697
18397WAT     H155433   8.585   5.090   2.780
18397WAT     H255434   8.442   5.114   2.705
18398WAT      O55435   0.454   2.942   8.244
18398WAT     H155436   0.447   2.904   8.152
18398WAT     H255437   0.375   2.913   8.298
18399WAT      O55438   1.501   0.928   9.834
18399WAT     H155439   1.475   1.024   9.821
18399WAT     H255440   1.529   0.914   9.929
18400WAT      O55441   8.001   0.325   5.297
18400WAT     H155442   7.944   0.285   5.225
18400WAT     H255443   7.985   0.276   5.383
18401WAT      O55444   1.687   4.881   6.173
18401WAT     H155445   1.701   4.941   6.093
18401WAT     H255446   1.689   4.786   6.143
18402WAT      O55447   3.799   2.093   8.697
18402WAT     H155448   3.897   2.098   8.716
18402WAT     H255449   3.785   2.045   8.610
18403WAT      O55450   6.881   7.602   6.482
18403WAT     H155451   6.891   7.637   6.389
18403WAT     H255452   6.940   7.654   6.544
18404WAT      O55453   5.453   9.132   9.244
18404WAT     H155454   5.430   9.214   9.191
18404WAT     H255455   5.380   9.112   9.310
18405WAT      O55456   5.251   6.650   0.933
18405WAT     H155457   5.190   6.571   0.922
18405WAT     H255458   5.198   6.729   0.963
18406WAT      O55459   8.928   1.848   6.050
18406WAT     H155460   9.013   1.816   6.008
18406WAT     H255461   8.850   1.813   5.998
18407WAT      O55462   9.257   1.262   3.640
18407WAT     H155463   9.333   1.252   3.576
18407WAT     H255464   9.171   1.258   3.589
18408WAT      O55465   6.551   1.391   0.839
18408WAT     H155466   6.536   1.376   0.742
18408WAT     H255467   6.523   1.309   0.890
18409WAT      O55468   1.353   9.283   7.368
18409WAT     H155469   1.402   9.286   7.456
18409WAT     H255470   1.280   9.215   7.373
18410WAT      O55471   7.612   5.042   0.692
18410WAT     H155472   7.522   5.077   0.665
18410WAT     H255473   7.601   4.954   0.737
18411WAT      O55474   2.800   2.338   9.217
18411WAT     H155475   2.848   2.296   9.294
18411WAT     H255476   2.825   2.435   9.211
18412WAT      O55477   0.957   4.863   0.709
18412WAT     H155478   0.876   4.809   0.733
18412WAT     H255479   0.988   4.836   0.618
18413WAT      O55480   3.506   6.687   7.705
18413WAT     H155481   3.537   6.688   7.800
18413WAT     H255482   3.579   6.653   7.646
18414WAT      O55483   3.731   8.892   7.238
18414WAT     H155484   3.682   8.948   7.170
18414WAT     H255485   3.810   8.848   7.195
18415WAT      O55486   6.603   0.192   4.600
18415WAT     H155487   6.564   0.132   4.670
18415WAT     H255488   6.697   0.164   4.581
18416WAT      O55489   5.422   7.994   8.113
18416WAT     H155490   5.426   7.903   8.069
18416WAT     H255491   5.398   7.983   8.209
18417WAT      O55492   0.402   8.834   4.474
18417WAT     H155493   0.412   8.739   4.505
18417WAT     H255494   0.481   8.887   4.505
18418WAT      O55495   9.644   1.148   8.217
18418WAT     H155496   9.576   1.075   8.226
18418WAT     H255497   9.654   1.196   8.305
18419WAT      O55498   3.528   3.366   4.828
18419WAT     H155499   3.522   3.444   4.891
18419WAT     H255500   3.556   3.398   4.738
18420WAT      O55501   6.282   0.307   5.926
18420WAT     H155502   6.300   0.229   5.865
18420WAT     H255503   6.228   0.375   5.878
18421WAT      O55504   3.500   1.049   1.567
18421WAT     H155505   3.497   1.026   1.470
18421WAT     H255506   3.507   1.148   1.578
18422WAT      O55507   0.041   9.402   1.177
18422WAT     H155508   0.048   9.341   1.098
18422WAT     H255509   0.080   9.356   1.257
18423WAT      O55510   1.467   0.637   9.670
18423WAT     H155511   1.485   0.625   9.573
18423WAT     H255512   1.547   0.606   9.722
18424WAT      O55513   2.799   0.076   1.363
18424WAT     H155514   2.701   0.084   1.346
18424WAT     H255515   2.848   0.069   1.276
18425WAT      O55516   3.772   1.749   8.061
18425WAT     H155517   3.797   1.742   8.158
18425WAT     H255518   3.854   1.751   8.005
18426WAT      O55519   8.216   2.828   1.822
18426WAT     H155520   8.311   2.802   1.839
18426WAT     H255521   8.161   2.804   1.902
18427WAT      O55522   6.109   5.639   5.420
18427WAT     H155523   6.133   5.675   5.510
18427WAT     H255524   6.023   5.680   5.389
18428WAT      O55525   5.578   1.671   0.039
18428WAT     H155526   5.569   1.765   0.005
18428WAT     H255527   5.658   1.628  -0.003
18429WAT      O55528   4.449   1.651   6.897
18429WAT     H155529   4.480   1.668   6.804
18429WAT     H255530   4.354   1.679   6.907
18430WAT      O55531   8.957   0.863   8.612
18430WAT     H155532   8.975   0.961   8.625
18430WAT     H255533   8.865   0.851   8.574
18431WAT      O55534   1.620   6.583   7.352
18431WAT     H155535   1.642   6.645   7.427
18431WAT     H255536   1.578   6.500   7.388
18432WAT      O55537   2.133   7.063   2.837
18432WAT     H155538   2.054   7.120   2.815
18432WAT     H255539   2.191   7.111   2.903
18433WAT      O55540   9.399   6.585   9.427
18433WAT     H155541   9.393   6.605   9.525
18433WAT     H255542   9.309   6.556   9.393
18434WAT      O55543   0.488   8.112   0.662
18434WAT     H155544   0.400   8.134   0.703
18434WAT     H255545   0.553   8.185   0.682
18435WAT      O55546   8.942   8.674   7.311
18435WAT     H155547   8.928   8.699   7.215
18435WAT     H255548   9.036   8.694   7.337
18436WAT      O55549   1.501   2.141   2.831
18436WAT     H155550   1.570   2.209   2.857
18436WAT     H255551   1.414   2.187   2.812
18437WAT      O55552   1.105   4.405   0.127
18437WAT     H155553   1.014   4.428   0.094
18437WAT     H255554   1.144   4.334   0.069
18438WAT      O55555   4.678   0.275   6.600
18438WAT     H155556   4.692   0.364   6.557
18438WAT     H255557   4.581   0.264   6.624
18439WAT      O55558   1.234   8.689   1.689
18439WAT     H155559   1.272   8.604   1.724
18439WAT     H255560   1.227   8.756   1.763
18440WAT      O55561   5.068   7.201   6.324
18440WAT     H155562   4.970   7.212   6.305
18440WAT     H255563   5.110   7.291   6.335
18441WAT      O55564   6.878   9.369   3.522
18441WAT     H155565   6.949   9.365   3.592
18441WAT     H255566   6.859   9.465   3.499
18442WAT      O55567   2.418   6.113   1.220
18442WAT     H155568   2.515   6.090   1.220
18442WAT     H255569   2.388   6.130   1.314
18443WAT      O55570   9.718   5.394   9.857
18443WAT     H155571   9.702   5.394   9.759
18443WAT     H255572   9.774   5.473   9.882
18444WAT      O55573   9.671   7.152   9.606
18444WAT     H155574   9.682   7.251   9.615
18444WAT     H255575   9.708   7.123   9.518
18445WAT      O55576   8.254   2.554   4.849
18445WAT     H155577   8.344   2.595   4.864
18445WAT     H255578   8.231   2.557   4.752
18446WAT      O55579   2.080   5.563   6.402
18446WAT     H155580   2.180   5.559   6.403
18446WAT     H255581   2.043   5.475   6.371
18447WAT      O55582   4.837   3.590   8.809
18447WAT     H155583   4.866   3.648   8.733
18447WAT     H255584   4.913   3.534   8.840
18448WAT      O55585   3.296   1.839   0.183
18448WAT     H155586   3.314   1.896   0.263
18448WAT     H255587   3.378   1.784   0.162
18449WAT      O55588   9.573   7.730   1.562
18449WAT     H155589   9.488   7.782   1.568
18449WAT     H255590   9.560   7.653   1.499
18450WAT      O55591   2.384   2.440   0.960
18450WAT     H155592   2.403   2.399   0.871
18450WAT     H255593   2.443   2.519   0.974
18451WAT      O55594   4.429   1.406   9.438
18451WAT     H155595   4.396   1.353   9.360
18451WAT     H255596   4.522   1.377   9.461
18452WAT      O55597   8.840   6.254   8.622
18452WAT     H155598   8.900   6.174   8.634
18452WAT     H255599   8.774   6.257   8.697
18453WAT      O55600   8.695   7.934   7.432
18453WAT     H155601   8.632   7.889   7.368
18453WAT     H255602   8.659   7.925   7.525
18454WAT      O55603   2.042   5.620   4.384
18454WAT     H155604   2.044   5.535   4.332
18454WAT     H255605   2.044   5.600   4.482
18455WAT      O55606   1.515   1.694   5.329
18455WAT     H155607   1.558   1.638   5.399
18455WAT     H255608   1.577   1.768   5.302
18456WAT      O55609   2.957   9.666   4.582
18456WAT     H155610   3.042   9.695   4.625
18456WAT     H255611   2.904   9.609   4.645
18457WAT      O55612   4.088   1.181   9.891
18457WAT     H155613   4.013   1.193   9.826
18457WAT     H255614   4.131   1.270   9.909
18458WAT      O55615   7.824   1.281   6.017
18458WAT     H155616   7.730   1.266   6.047
18458WAT     H255617   7.867   1.352   6.072
18459WAT      O55618   0.089   3.128   1.324
18459WAT     H155619   0.015   3.193   1.304
18459WAT     H255620   0.109   3.074   1.242
18460WAT      O55621   1.937   1.771   6.023
18460WAT     H155622   1.981   1.853   5.986
18460WAT     H255623   1.857   1.748   5.968
18461WAT      O55624   6.071   3.258   5.211
18461WAT     H155625   6.012   3.261   5.292
18461WAT     H255626   6.103   3.351   5.190
18462WAT      O55627   1.705   7.415   7.842
18462WAT     H155628   1.670   7.406   7.749
18462WAT     H255629   1.801   7.389   7.845
18463WAT      O55630   1.415   9.599   2.589
18463WAT     H155631   1.465   9.575   2.506
18463WAT     H255632   1.317   9.602   2.570
18464WAT      O55633   0.313   2.169   3.446
18464WAT     H155634   0.410   2.164   3.471
18464WAT     H255635   0.257   2.148   3.526
18465WAT      O55636   0.690   2.452   6.791
18465WAT     H155637   0.692   2.492   6.700
18465WAT     H255638   0.711   2.354   6.785
18466WAT      O55639   6.854   2.491   4.218
18466WAT     H155640   6.842   2.395   4.243
18466WAT     H255641   6.925   2.532   4.275
18467WAT      O55642   7.991   0.984   6.376
18467WAT     H155643   7.948   0.899   6.408
18467WAT     H255644   7.961   1.002   6.282
18468WAT      O55645   4.772   1.263   4.405
18468WAT     H155646   4.684   1.292   4.367
18468WAT     H255647   4.831   1.343   4.416
18469WAT      O55648   6.703   5.191   7.359
18469WAT     H155649   6.739   5.241   7.280
18469WAT     H255650   6.754   5.216   7.440
18470WAT      O55651   7.322   2.169   6.517
18470WAT     H155652   7.368   2.083   6.539
18470WAT     H255653   7.391   2.240   6.502
18471WAT      O55654   4.026   0.969   0.152
18471WAT     H155655   4.033   1.057   0.105
18471WAT     H255656   4.088   0.903   0.108
18472WAT      O55657   9.370   6.612   3.373
18472WAT     H155658   9.373   6.512   3.377
18472WAT     H255659   9.459   6.648   3.347
18473WAT      O55660   4.183   1.519   7.540
18473WAT     H155661   4.181   1.619   7.553
18473WAT     H255662   4.278   1.490   7.530
18474WAT      O55663   0.977   1.109   0.864
18474WAT     H155664   1.067   1.132   0.900
18474WAT     H255665   0.957   1.013   0.884
18475WAT      O55666   9.880   2.512   1.822
18475WAT     H155667   9.927   2.496   1.908
18475WAT     H255668   9.782   2.498   1.834
18476WAT      O55669   2.348   5.658   3.999
18476WAT     H155670   2.387   5.678   3.909
18476WAT     H255671   2.345   5.742   4.053
18477WAT      O55672   8.590   3.025   2.382
18477WAT     H155673   8.670   3.071   2.344
18477WAT     H255674   8.507   3.061   2.340
18478WAT      O55675   3.853   5.596   9.367
18478WAT     H155676   3.760   5.601   9.404
18478WAT     H255677   3.880   5.501   9.355
18479WAT      O55678   9.695   5.046   1.036
18479WAT     H155679   9.732   5.137   1.015
18479WAT     H255680   9.744   4.977   0.982
18480WAT      O55681   0.141   0.947   6.798
18480WAT     H155682   0.221   1.001   6.823
18480WAT     H255683   0.158   0.850   6.816
18481WAT      O55684   3.164   3.062   5.419
18481WAT     H155685   3.182   3.077   5.517
18481WAT     H255686   3.249   3.035   5.374
18482WAT      O55687   9.675   3.422   3.353
18482WAT     H155688   9.655   3.399   3.258
18482WAT     H255689   9.606   3.381   3.413
18483WAT      O55690   2.786   7.615   8.497
18483WAT     H155691   2.853   7.638   8.567
18483WAT     H255692   2.834   7.600   8.410
18484WAT      O55693   3.531   5.097   0.845
18484WAT     H155694   3.542   5.181   0.898
18484WAT     H255695   3.493   5.025   0.903
18485WAT      O55696   5.228   1.649   8.895
18485WAT     H155697   5.256   1.645   8.990
18485WAT     H255698   5.292   1.597   8.839
18486WAT      O55699   5.503   0.993   6.853
18486WAT     H155700   5.530   0.904   6.891
18486WAT     H255701   5.533   1.066   6.914
18487WAT      O55702   4.183   9.552   2.020
18487WAT     H155703   4.239   9.541   2.102
18487WAT     H255704   4.214   9.633   1.969
18488WAT      O55705   5.129   8.832   7.206
18488WAT     H155706   5.087   8.754   7.253
18488WAT     H255707   5.171   8.893   7.272
18489WAT      O55708   6.012   7.483   4.466
18489WAT     H155709   6.092   7.518   4.418
18489WAT     H255710   5.949   7.558   4.487
18490WAT      O55711   3.170   7.901   5.746
18490WAT     H155712   3.097   7.839   5.719
18490WAT     H255713   3.252   7.848   5.769
18491WAT      O55714   4.106   6.915   4.759
18491WAT     H155715   4.053   6.849   4.705
18491WAT     H255716   4.138   6.871   4.843
18492WAT      O55717   8.385   4.140   4.170
18492WAT     H155718   8.453   4.119   4.100
18492WAT     H255719   8.294   4.140   4.130
18493WAT      O55720   3.489   5.961   7.601
18493WAT     H155721   3.429   5.979   7.524
18493WAT     H255722   3.492   5.863   7.620
18494WAT      O55723   4.007   0.015   6.391
18494WAT     H155724   3.989   0.035   6.295
18494WAT     H255725   4.022   0.100   6.441
18495WAT      O55726   3.724   0.774   3.278
18495WAT     H155727   3.659   0.814   3.343
18495WAT     H255728   3.791   0.844   3.252
18496WAT      O55729   4.764   5.957   5.870
18496WAT     H155730   4.815   5.953   5.784
18496WAT     H255731   4.793   6.037   5.922
18497WAT      O55732   5.309   3.972   1.160
18497WAT     H155733   5.335   3.881   1.127
18497WAT     H255734   5.230   4.004   1.107
18498WAT      O55735   6.883   1.252   7.755
18498WAT     H155736   6.941   1.250   7.836
18498WAT     H255737   6.787   1.250   7.783
18499WAT      O55738   8.077   4.739   4.669
18499WAT     H155739   8.166   4.699   4.646
18499WAT     H255740   8.090   4.815   4.732
18500WAT      O55741   0.796   1.673   6.917
18500WAT     H155742   0.827   1.583   6.887
18500WAT     H255743   0.748   1.666   7.004
18501WAT      O55744   7.252   1.349   0.771
18501WAT     H155745   7.342   1.367   0.810
18501WAT     H255746   7.262   1.313   0.678
18502WAT      O55747   0.074   7.552   6.272
18502WAT     H155748  -0.001   7.521   6.213
18502WAT     H255749   0.108   7.640   6.240
18503WAT      O55750   2.769   5.362   9.019
18503WAT     H155751   2.771   5.309   8.934
18503WAT     H255752   2.709   5.317   9.085
18504WAT      O55753   7.246   9.058   7.785
18504WAT     H155754   7.260   9.111   7.869
18504WAT     H255755   7.150   9.059   7.760
18505WAT      O55756   7.380   1.671   0.062
18505WAT     H155757   7.421   1.627  -0.018
18505WAT     H255758   7.290   1.631   0.079
18506WAT      O55759   1.821   4.428   2.927
18506WAT     H155760   1.784   4.338   2.903
18506WAT     H255761   1.860   4.471   2.846
18507WAT      O55762   4.357   7.460   0.412
18507WAT     H155763   4.448   7.425   0.431
18507WAT     H255764   4.299   7.386   0.378
18508WAT      O55765   9.491   2.478   5.714
18508WAT     H155766   9.425   2.437   5.778
18508WAT     H255767   9.450   2.559   5.672
18509WAT      O55768   8.276   0.848   1.639
18509WAT     H155769   8.328   0.825   1.556
18509WAT     H255770   8.330   0.910   1.695
18510WAT      O55771   5.139   9.186   5.692
18510WAT     H155772   5.149   9.236   5.778
18510WAT     H255773   5.206   9.112   5.688
18511WAT      O55774   1.063   5.858   0.073
18511WAT     H155775   1.122   5.860   0.154
18511WAT     H255776   1.077   5.772   0.023
18512WAT      O55777   4.452   4.999   1.924
18512WAT     H155778   4.414   4.973   2.013
18512WAT     H255779   4.462   5.098   1.919
18513WAT      O55780   2.006   8.724   7.458
18513WAT     H155781   2.024   8.821   7.474
18513WAT     H255782   1.969   8.712   7.366
18514WAT      O55783   3.650   1.674   1.327
18514WAT     H155784   3.652   1.576   1.343
18514WAT     H255785   3.595   1.719   1.398
18515WAT      O55786   9.536   7.375   9.874
18515WAT     H155787   9.451   7.362   9.823
18515WAT     H255788   9.606   7.411   9.812
18516WAT      O55789   5.502   1.066   2.418
18516WAT     H155790   5.470   1.013   2.497
18516WAT     H255791   5.475   1.162   2.430
18517WAT      O55792   2.817   3.376   6.714
18517WAT     H155793   2.912   3.405   6.728
18517WAT     H255794   2.770   3.443   6.657
18518WAT      O55795   6.272   8.622   5.070
18518WAT     H155796   6.327   8.696   5.109
18518WAT     H255797   6.327   8.571   5.004
18519WAT      O55798   6.123   6.736   9.339
18519WAT     H155799   6.108   6.726   9.240
18519WAT     H255800   6.036   6.756   9.384
18520WAT      O55801   9.517   7.153   3.622
18520WAT     H155802   9.485   7.180   3.531
18520WAT     H255803   9.498   7.056   3.638
18521WAT      O55804   6.405   9.790   7.504
18521WAT     H155805   6.402   9.861   7.435
18521WAT     H255806   6.498   9.782   7.540
18522WAT      O55807   2.330   3.992   3.148
18522WAT     H155808   2.372   3.910   3.185
18522WAT     H255809   2.380   4.021   3.066
18523WAT      O55810   0.824   8.949   1.883
18523WAT     H155811   0.870   9.022   1.834
18523WAT     H255812   0.885   8.912   1.953
18524WAT      O55813   4.809   6.227   2.526
18524WAT     H155814   4.791   6.186   2.616
18524WAT     H255815   4.807   6.327   2.534
18525WAT      O55816   0.776   9.118   0.849
18525WAT     H155817   0.772   9.033   0.902
18525WAT     H255818   0.775   9.096   0.751
18526WAT      O55819   8.111   0.223   5.722
18526WAT     H155820   8.202   0.196   5.753
18526WAT     H255821   8.096   0.187   5.630
18527WAT      O55822   5.993   9.250   0.989
18527WAT     H155823   5.949   9.167   0.955
18527WAT     H255824   5.930   9.327   0.978
18528WAT      O55825   9.701   8.977   9.716
18528WAT     H155826   9.791   8.981   9.760
18528WAT     H255827   9.712   8.978   9.617
18529WAT      O55828   3.615   3.019   4.601
18529WAT     H155829   3.681   3.086   4.633
18529WAT     H255830   3.660   2.930   4.589
18530WAT      O55831   2.281   6.720   4.071
18530WAT     H155832   2.373   6.701   4.104
18530WAT     H255833   2.270   6.685   3.978
18531WAT      O55834   5.466   8.605   6.383
18531WAT     H155835   5.427   8.529   6.435
18531WAT     H255836   5.411   8.688   6.399
18532WAT      O55837   4.731   4.096   7.646
18532WAT     H155838   4.814   4.096   7.701
18532WAT     H255839   4.754   4.111   7.550
18533WAT      O55840   8.438   5.090   7.823
18533WAT     H155841   8.435   5.103   7.724
18533WAT     H255842   8.526   5.120   7.858
18534WAT      O55843   8.339   5.939   2.475
18534WAT     H155844   8.245   5.973   2.469
18534WAT     H255845   8.338   5.840   2.487
18535WAT      O55846   0.083   7.466   0.476
18535WAT     H155847   0.046   7.547   0.521
18535WAT     H255848   0.008   7.404   0.454
18536WAT      O55849   5.221   0.358   8.792
18536WAT     H155850   5.259   0.449   8.775
18536WAT     H255851   5.279   0.289   8.749
18537WAT      O55852   9.226   8.976   5.618
18537WAT     H155853   9.140   8.943   5.578
18537WAT     H255854   9.232   8.945   5.713
18538WAT      O55855   4.755   8.299   5.323
18538WAT     H155856   4.751   8.231   5.396
18538WAT     H255857   4.847   8.336   5.316
18539WAT      O55858   1.734   2.718   2.536
18539WAT     H155859   1.683   2.647   2.486
18539WAT     H255860   1.822   2.734   2.491
18540WAT      O55861   5.456   9.434   3.679
18540WAT     H155862   5.527   9.454   3.612
18540WAT     H255863   5.401   9.356   3.648
18541WAT      O55864   6.685   1.636   0.844
18541WAT     H155865   6.612   1.702   0.829
18541WAT     H255866   6.646   1.549   0.874
18542WAT      O55867   5.956   6.875   6.008
18542WAT     H155868   6.053   6.858   5.990
18542WAT     H255869   5.901   6.831   5.937
18543WAT      O55870   6.655   6.278   1.227
18543WAT     H155871   6.610   6.353   1.178
18543WAT     H255872   6.740   6.312   1.268
18544WAT      O55873   0.905   1.017   7.290
18544WAT     H155874   0.834   0.977   7.348
18544WAT     H255875   0.923   0.954   7.214
18545WAT      O55876   0.256   3.370   7.707
18545WAT     H155877   0.314   3.298   7.671
18545WAT     H255878   0.273   3.380   7.805
18546WAT      O55879   2.171   8.306   5.930
18546WAT     H155880   2.094   8.248   5.957
18546WAT     H255881   2.164   8.329   5.833
18547WAT      O55882   5.581   0.500   1.546
18547WAT     H155883   5.648   0.573   1.551
18547WAT     H255884   5.625   0.416   1.513
18548WAT      O55885   6.198   7.393   1.309
18548WAT     H155886   6.171   7.486   1.281
18548WAT     H255887   6.244   7.397   1.397
18549WAT      O55888   3.387   0.583   3.234
18549WAT     H155889   3.335   0.582   3.148
18549WAT     H255890   3.330   0.620   3.306
18550WAT      O55891   7.132   8.641   5.622
18550WAT     H155892   7.115   8.739   5.624
18550WAT     H255893   7.082   8.599   5.546
18551WAT      O55894   6.169   4.844   8.043
18551WAT     H155895   6.210   4.925   8.086
18551WAT     H255896   6.170   4.855   7.944
18552WAT      O55897   8.740   9.518   2.366
18552WAT     H155898   8.780   9.602   2.331
18552WAT     H255899   8.803   9.442   2.350
18553WAT      O55900   0.376   8.743   5.694
18553WAT     H155901   0.288   8.745   5.741
18553WAT     H255902   0.361   8.725   5.596
18554WAT      O55903   0.647   0.413   3.384
18554WAT     H155904   0.617   0.353   3.310
18554WAT     H255905   0.693   0.493   3.345
18555WAT      O55906   5.140   3.847   0.271
18555WAT     H155907   5.160   3.843   0.173
18555WAT     H255908   5.129   3.943   0.299
18556WAT      O55909   6.576   2.142   9.854
18556WAT     H155910   6.654   2.080   9.839
18556WAT     H255911   6.497   2.108   9.803
18557WAT      O55912   3.065   7.317   4.775
18557WAT     H155913   3.040   7.347   4.868
18557WAT     H255914   3.164   7.323   4.764
18558WAT      O55915   7.429   3.090   2.380
18558WAT     H155916   7.520   3.064   2.346
18558WAT     H255917   7.428   3.188   2.399
18559WAT      O55918   0.337   1.185   7.598
18559WAT     H155919   0.245   1.206   7.633
18559WAT     H255920   0.330   1.158   7.502
18560WAT      O55921   4.341   4.070   0.078
18560WAT     H155922   4.307   4.148   0.131
18560WAT     H255923   4.437   4.055   0.098
18561WAT      O55924   1.391   1.006   2.562
18561WAT     H155925   1.350   1.096   2.571
18561WAT     H255926   1.321   0.940   2.534
18562WAT      O55927   6.601   0.979   6.113
18562WAT     H155928   6.654   0.897   6.136
18562WAT     H255929   6.638   1.021   6.031
18563WAT      O55930   6.262   4.275   5.280
18563WAT     H155931   6.258   4.218   5.198
18563WAT     H255932   6.287   4.219   5.358
18564WAT      O55933   2.316   0.843   8.378
18564WAT     H155934   2.325   0.746   8.401
18564WAT     H255935   2.355   0.859   8.287
18565WAT      O55936   7.324   8.211   8.391
18565WAT     H155937   7.402   8.244   8.337
18565WAT     H255938   7.341   8.116   8.419
18566WAT      O55939   4.225   7.300   0.240
18566WAT     H155940   4.139   7.253   0.223
18566WAT     H255941   4.293   7.270   0.173
18567WAT      O55942   6.231   2.371   5.314
18567WAT     H155943   6.225   2.469   5.295
18567WAT     H255944   6.167   2.322   5.255
18568WAT      O55945   4.305   6.521   8.922
18568WAT     H155946   4.310   6.592   8.852
18568WAT     H255947   4.345   6.555   9.007
18569WAT      O55948   4.052   4.602   1.922
18569WAT     H155949   4.139   4.561   1.894
18569WAT     H255950   4.049   4.608   2.022
18570WAT      O55951   0.504   4.611   4.092
18570WAT     H155952   0.499   4.625   4.191
18570WAT     H255953   0.421   4.648   4.050
18571WAT      O55954   4.766   3.981   6.294
18571WAT     H155955   4.709   4.062   6.286
18571WAT     H255956   4.708   3.899   6.297
18572WAT      O55957   6.221   4.778   1.414
18572WAT     H155958   6.232   4.872   1.382
18572WAT     H255959   6.303   4.750   1.464
18573WAT      O55960   0.859   1.364   4.277
18573WAT     H155961   0.772   1.335   4.237
18573WAT     H255962   0.908   1.421   4.211
18574WAT      O55963   5.550   0.584   4.852
18574WAT     H155964   5.618   0.515   4.825
18574WAT     H255965   5.583   0.634   4.932
18575WAT      O55966   7.944   3.138   4.207
18575WAT     H155967   7.919   3.042   4.194
18575WAT     H255968   7.861   3.191   4.226
18576WAT      O55969   3.582   2.296   0.693
18576WAT     H155970   3.553   2.389   0.718
18576WAT     H255971   3.681   2.288   0.705
18577WAT      O55972   2.994   8.946   4.027
18577WAT     H155973   2.978   8.987   4.116
18577WAT     H255974   3.091   8.926   4.016
18578WAT      O55975   0.778   0.240   1.190
18578WAT     H155976   0.866   0.219   1.234
18578WAT     H255977   0.794   0.297   1.110
18579WAT      O55978   2.080   5.902   3.163
18579WAT     H155979   2.147   5.849   3.215
18579WAT     H255980   2.050   5.849   3.084
18580WAT      O55981   4.866   3.240   7.760
18580WAT     H155982   4.833   3.313   7.820
18580WAT     H255983   4.859   3.270   7.665
18581WAT      O55984   4.654   7.580   1.723
18581WAT     H155985   4.722   7.585   1.796
18581WAT     H255986   4.566   7.551   1.762
18582WAT      O55987   7.758   6.331   9.722
18582WAT     H155988   7.738   6.292   9.632
18582WAT     H255989   7.849   6.373   9.720
18583WAT      O55990   7.128   0.585   1.185
18583WAT     H155991   7.199   0.624   1.126
18583WAT     H255992   7.156   0.494   1.216
18584WAT      O55993   6.740   0.252   8.867
18584WAT     H155994   6.785   0.342   8.875
18584WAT     H255995   6.779   0.190   8.935
18585WAT      O55996   6.084   6.297   8.989
18585WAT     H155997   6.118   6.212   8.949
18585WAT     H255998   6.026   6.345   8.922
18586WAT      O55999   4.135   5.052   9.442
18586WAT     H156000   4.153   4.953   9.450
18586WAT     H256001   4.183   5.101   9.514
18587WAT      O56002   1.624   5.555   3.995
18587WAT     H156003   1.630   5.467   4.043
18587WAT     H256004   1.609   5.539   3.898
18588WAT      O56005   9.509   6.575   2.305
18588WAT     H156006   9.414   6.600   2.286
18588WAT     H256007   9.514   6.528   2.393
18589WAT      O56008   1.230   2.243   2.744
18589WAT     H156009   1.183   2.328   2.724
18589WAT     H256010   1.171   2.184   2.799
18590WAT      O56011   7.966   1.095   1.371
18590WAT     H156012   7.883   1.150   1.383
18590WAT     H256013   7.996   1.061   1.461
18591WAT      O56014   6.717   5.107   0.931
18591WAT     H156015   6.727   5.179   0.862
18591WAT     H256016   6.624   5.110   0.969
18592WAT      O56017   0.870   7.323   7.746
18592WAT     H156018   0.823   7.338   7.659
18592WAT     H256019   0.863   7.405   7.803
18593WAT      O56020   7.759   1.921   0.260
18593WAT     H156021   7.812   1.931   0.175
18593WAT     H256022   7.686   1.854   0.245
18594WAT      O56023   4.448   7.984   8.697
18594WAT     H156024   4.539   8.023   8.681
18594WAT     H256025   4.457   7.898   8.746
18595WAT      O56026   8.292   0.669   1.974
18595WAT     H156027   8.239   0.626   2.047
18595WAT     H256028   8.270   0.626   1.887
18596WAT      O56029   6.514   2.095   6.229
18596WAT     H156030   6.465   2.181   6.243
18596WAT     H256031   6.560   2.097   6.141
18597WAT      O56032   1.914   0.709   5.752
18597WAT     H156033   1.978   0.743   5.682
18597WAT     H256034   1.835   0.770   5.757
18598WAT      O56035   1.981   0.578   1.992
18598WAT     H156036   2.032   0.581   1.906
18598WAT     H256037   2.009   0.498   2.045
18599WAT      O56038   8.978   1.990   6.948
18599WAT     H156039   9.055   1.995   6.884
18599WAT     H256040   9.010   1.950   7.035
18600WAT      O56041   7.325   5.931   8.701
18600WAT     H156042   7.397   5.973   8.756
18600WAT     H256043   7.319   5.977   8.612
18601WAT      O56044   8.111   8.356   5.905
18601WAT     H156045   8.171   8.421   5.953
18601WAT     H256046   8.035   8.406   5.863
18602WAT      O56047   9.062   1.371   6.815
18602WAT     H156048   9.068   1.279   6.775
18602WAT     H256049   9.135   1.428   6.778
18603WAT      O56050   1.082   9.176   3.563
18603WAT     H156051   1.013   9.210   3.627
18603WAT     H256052   1.146   9.250   3.540
18604WAT      O56053   7.808   3.258   9.117
18604WAT     H156054   7.829   3.348   9.157
18604WAT     H256055   7.766   3.200   9.186
18605WAT      O56056   9.314   6.657   8.975
18605WAT     H156057   9.390   6.653   9.040
18605WAT     H256058   9.227   6.661   9.024
18606WAT      O56059   2.545   4.565   5.329
18606WAT     H156060   2.636   4.533   5.354
18606WAT     H256061   2.513   4.516   5.248
18607WAT      O56062   3.785   8.109   5.705
18607WAT     H156063   3.766   8.022   5.658
18607WAT     H256064   3.879   8.109   5.739
18608WAT      O56065   4.386   7.913   0.429
18608WAT     H156066   4.325   7.896   0.506
18608WAT     H256067   4.478   7.932   0.462
18609WAT      O56068   9.812   5.311   6.141
18609WAT     H156069   9.725   5.358   6.156
18609WAT     H256070   9.887   5.373   6.161
18610WAT      O56071   5.903   3.359   3.633
18610WAT     H156072   5.867   3.413   3.557
18610WAT     H256073   5.839   3.364   3.710
18611WAT      O56074   7.124   6.988   4.057
18611WAT     H156075   7.105   6.892   4.078
18611WAT     H256076   7.172   6.995   3.970
18612WAT      O56077   3.472   7.228   6.003
18612WAT     H156078   3.447   7.165   6.076
18612WAT     H256079   3.496   7.317   6.042
18613WAT      O56080   6.695   9.248   6.483
18613WAT     H156081   6.643   9.332   6.465
18613WAT     H256082   6.784   9.272   6.521
18614WAT      O56083   4.600   5.753   0.081
18614WAT     H156084   4.518   5.807   0.096
18614WAT     H256085   4.601   5.718  -0.013
18615WAT      O56086   8.587   5.775   1.876
18615WAT     H156087   8.686   5.787   1.883
18615WAT     H256088   8.546   5.856   1.835
18616WAT      O56089   7.200   1.008   9.548
18616WAT     H156090   7.287   0.966   9.523
18616WAT     H256091   7.215   1.073   9.623
18617WAT      O56092   0.407   1.011   9.632
18617WAT     H156093   0.356   0.934   9.669
18617WAT     H256094   0.504   0.986   9.624
18618WAT      O56095   2.262   0.602   5.135
18618WAT     H156096   2.278   0.669   5.062
18618WAT     H256097   2.347   0.555   5.156
18619WAT      O56098   5.568   8.373   6.205
18619WAT     H156099   5.515   8.457   6.219
18619WAT     H256100   5.664   8.389   6.228
18620WAT      O56101   3.310   7.674   1.118
18620WAT     H156102   3.279   7.669   1.213
18620WAT     H256103   3.363   7.592   1.096
18621WAT      O56104   8.451   4.995   1.218
18621WAT     H156105   8.371   4.940   1.243
18621WAT     H256106   8.420   5.078   1.172
18622WAT      O56107   2.910   3.133   7.341
18622WAT     H156108   2.871   3.220   7.310
18622WAT     H256109   2.866   3.058   7.292
18623WAT      O56110   3.752   8.839   7.505
18623WAT     H156111   3.755   8.836   7.406
18623WAT     H256112   3.660   8.816   7.537
18624WAT      O56113   7.081   8.243   8.958
18624WAT     H156114   7.096   8.341   8.961
18624WAT     H256115   7.109   8.202   9.045
18625WAT      O56116   8.193   7.105   6.928
18625WAT     H156117   8.261   7.155   6.982
18625WAT     H256118   8.161   7.026   6.979
18626WAT      O56119   1.369   2.282   3.104
18626WAT     H156120   1.293   2.345   3.089
18626WAT     H256121   1.450   2.334   3.132
18627WAT      O56122   6.044   7.941   7.315
18627WAT     H156123   6.134   7.984   7.324
18627WAT     H256124   5.979   7.989   7.374
18628WAT      O56125   3.254   1.672   8.651
18628WAT     H156126   3.274   1.666   8.749
18628WAT     H256127   3.331   1.713   8.603
18629WAT      O56128   7.706   0.396   9.875
18629WAT     H156129   7.621   0.443   9.852
18629WAT     H256130   7.757   0.450   9.942
18630WAT      O56131   6.091   6.198   1.762
18630WAT     H156132   6.095   6.162   1.669
18630WAT     H256133   5.996   6.203   1.792
18631WAT      O56134   2.727   7.815   4.593
18631WAT     H156135   2.825   7.828   4.611
18631WAT     H256136   2.710   7.719   4.573
18632WAT      O56137   9.715   5.546   5.530
18632WAT     H156138   9.749   5.612   5.597
18632WAT     H256139   9.616   5.535   5.542
18633WAT      O56140   7.770   6.828   9.786
18633WAT     H156141   7.866   6.855   9.791
18633WAT     H256142   7.733   6.853   9.696
18634WAT      O56143   0.050   4.005   5.752
18634WAT     H156144  -0.027   4.029   5.694
18634WAT     H256145   0.018   3.949   5.829
18635WAT      O56146   7.686   9.177   6.558
18635WAT     H156147   7.691   9.144   6.653
18635WAT     H256148   7.676   9.099   6.496
18636WAT      O56149   0.446   6.624   8.642
18636WAT     H156150   0.523   6.675   8.679
18636WAT     H256151   0.445   6.532   8.681
18637WAT      O56152   3.828   7.495   5.826
18637WAT     H156153   3.771   7.469   5.748
18637WAT     H256154   3.919   7.455   5.815
18638WAT      O56155   9.660   1.661   7.074
18638WAT     H156156   9.711   1.734   7.030
18638WAT     H256157   9.715   1.577   7.075
18639WAT      O56158   3.013   3.665   2.852
18639WAT     H156159   3.048   3.742   2.798
18639WAT     H256160   2.914   3.671   2.858
18640WAT      O56161   4.539   5.121   9.586
18640WAT     H156162   4.551   5.024   9.568
18640WAT     H256163   4.441   5.142   9.591
18641WAT      O56164   4.965   5.030   8.358
18641WAT     H156165   4.999   4.981   8.438
18641WAT     H256166   5.032   5.099   8.330
18642WAT      O56167   1.001   8.259   6.676
18642WAT     H156168   1.096   8.251   6.706
18642WAT     H256169   0.996   8.249   6.577
18643WAT      O56170   7.674   8.279   2.870
18643WAT     H156171   7.606   8.206   2.862
18643WAT     H256172   7.684   8.325   2.782
18644WAT      O56173   9.140   8.186   8.546
18644WAT     H156174   9.105   8.264   8.494
18644WAT     H256175   9.067   8.119   8.560
18645WAT      O56176   9.100   1.385   4.502
18645WAT     H156177   9.114   1.289   4.477
18645WAT     H256178   9.022   1.393   4.564
18646WAT      O56179   4.672   5.826   3.732
18646WAT     H156180   4.772   5.819   3.739
18646WAT     H256181   4.632   5.820   3.823
18647WAT      O56182   1.108   3.243   8.108
18647WAT     H156183   1.160   3.305   8.049
18647WAT     H256184   1.160   3.223   8.191
18648WAT      O56185   5.227   8.004   5.315
18648WAT     H156186   5.191   7.946   5.243
18648WAT     H256187   5.282   7.949   5.378
18649WAT      O56188   6.092   4.627   3.746
18649WAT     H156189   6.166   4.575   3.703
18649WAT     H256190   6.005   4.603   3.702
18650WAT      O56191   5.411   7.803   6.612
18650WAT     H156192   5.329   7.778   6.560
18650WAT     H256193   5.457   7.720   6.643
18651WAT      O56194   3.868   9.803   3.477
18651WAT     H156195   3.792   9.859   3.509
18651WAT     H256196   3.892   9.830   3.384
18652WAT      O56197   1.922   6.001   0.360
18652WAT     H156198   1.930   6.099   0.341
18652WAT     H256199   2.012   5.958   0.351
18653WAT      O56200   2.854   2.296   8.087
18653WAT     H156201   2.887   2.363   8.020
18653WAT     H256202   2.875   2.204   8.055
18654WAT      O56203   0.893   8.861   7.404
18654WAT     H156204   0.913   8.822   7.494
18654WAT     H256205   0.958   8.825   7.337
18655WAT      O56206   9.284   6.399   7.874
18655WAT     H156207   9.259   6.417   7.969
18655WAT     H256208   9.345   6.320   7.870
18656WAT      O56209   6.755   3.637   3.960
18656WAT     H156210   6.780   3.611   3.867
18656WAT     H256211   6.763   3.558   4.021
18657WAT      O56212   2.398   8.324   1.878
18657WAT     H156213   2.307   8.344   1.841
18657WAT     H256214   2.458   8.402   1.862
18658WAT      O56215   8.489   7.398   7.757
18658WAT     H156216   8.509   7.314   7.809
18658WAT     H256217   8.453   7.468   7.819
18659WAT      O56218   3.758   8.803   1.894
18659WAT     H156219   3.701   8.732   1.854
18659WAT     H256220   3.838   8.818   1.835
18660WAT      O56221   3.423   3.591   0.816
18660WAT     H156222   3.412   3.600   0.915
18660WAT     H256223   3.470   3.505   0.795
18661WAT      O56224   3.498   3.192   4.365
18661WAT     H156225   3.557   3.120   4.401
18661WAT     H256226   3.555   3.265   4.325
18662WAT      O56227   6.812   1.084   4.769
18662WAT     H156228   6.788   1.146   4.695
18662WAT     H256229   6.842   0.996   4.731
18663WAT      O56230   9.501   1.235   3.455
18663WAT     H156231   9.534   1.167   3.521
18663WAT     H256232   9.561   1.236   3.375
18664WAT      O56233   5.044   7.653   6.139
18664WAT     H156234   4.974   7.674   6.207
18664WAT     H256235   5.024   7.564   6.098
18665WAT      O56236   7.247   1.773   9.067
18665WAT     H156237   7.291   1.819   9.145
18665WAT     H256238   7.213   1.842   9.003
18666WAT      O56239   8.105   4.204   6.703
18666WAT     H156240   8.014   4.168   6.722
18666WAT     H256241   8.134   4.263   6.779
18667WAT      O56242   6.910   1.661   4.876
18667WAT     H156243   6.941   1.750   4.911
18667WAT     H256244   6.977   1.591   4.899
18668WAT      O56245   3.432   5.255   2.765
18668WAT     H156246   3.398   5.242   2.858
18668WAT     H256247   3.441   5.166   2.720
18669WAT      O56248   4.586   9.662   2.383
18669WAT     H156249   4.628   9.589   2.330
18669WAT     H256250   4.493   9.634   2.410
18670WAT      O56251   3.866   9.682   5.099
18670WAT     H156252   3.838   9.586   5.088
18670WAT     H256253   3.940   9.703   5.036
18671WAT      O56254   8.716   2.881   9.083
18671WAT     H156255   8.712   2.920   9.175
18671WAT     H256256   8.679   2.947   9.017
18672WAT      O56257   3.378   6.869   4.352
18672WAT     H156258   3.398   6.857   4.450
18672WAT     H256259   3.286   6.907   4.342
18673WAT      O56260   1.346   0.546   6.840
18673WAT     H156261   1.384   0.618   6.898
18673WAT     H256262   1.248   0.561   6.828
18674WAT      O56263   5.584   3.228   4.257
18674WAT     H156264   5.650   3.154   4.249
18674WAT     H256265   5.575   3.254   4.353
18675WAT      O56266   6.810   0.196   1.611
18675WAT     H156267   6.723   0.177   1.565
18675WAT     H256268   6.835   0.292   1.598
18676WAT      O56269   5.879   5.733   3.750
18676WAT     H156270   5.834   5.655   3.707
18676WAT     H256271   5.816   5.810   3.753
18677WAT      O56272   4.894   5.483   8.306
18677WAT     H156273   4.923   5.578   8.292
18677WAT     H256274   4.947   5.444   8.381
18678WAT      O56275   8.590   9.532   1.175
18678WAT     H156276   8.501   9.491   1.197
18678WAT     H256277   8.580   9.630   1.161
18679WAT      O56278   5.526   3.616   7.061
18679WAT     H156279   5.567   3.524   7.065
18679WAT     H256280   5.532   3.651   6.968
18680WAT      O56281   4.298   8.363   8.836
18680WAT     H156282   4.376   8.349   8.775
18680WAT     H256283   4.310   8.449   8.885
18681WAT      O56284   3.051   1.148   3.584
18681WAT     H156285   3.101   1.112   3.662
18681WAT     H256286   3.023   1.243   3.602
18682WAT      O56287   4.820   0.662   2.984
18682WAT     H156288   4.839   0.647   2.887
18682WAT     H256289   4.792   0.576   3.026
18683WAT      O56290   9.498   4.635   2.612
18683WAT     H156291   9.399   4.631   2.628
18683WAT     H256292   9.545   4.573   2.674
18684WAT      O56293   5.977   8.837   9.151
18684WAT     H156294   6.034   8.843   9.069
18684WAT     H256295   5.901   8.902   9.144
18685WAT      O56296   3.317   2.129   4.582
18685WAT     H156297   3.290   2.208   4.527
18685WAT     H256298   3.371   2.160   4.661
18686WAT      O56299   3.841   3.238   0.063
18686WAT     H156300   3.817   3.171   0.133
18686WAT     H256301   3.864   3.325   0.107
18687WAT      O56302   2.192   5.260   6.707
18687WAT     H156303   2.264   5.293   6.646
18687WAT     H256304   2.185   5.160   6.700
18688WAT      O56305   2.721   7.307   1.934
18688WAT     H156306   2.797   7.246   1.913
18688WAT     H256307   2.676   7.277   2.018
18689WAT      O56308   3.431   8.162   1.736
18689WAT     H156309   3.448   8.131   1.642
18689WAT     H256310   3.364   8.236   1.734
18690WAT      O56311   0.827   5.051   9.218
18690WAT     H156312   0.894   5.000   9.272
18690WAT     H256313   0.872   5.089   9.137
18691WAT      O56314   6.401   1.789   2.550
18691WAT     H156315   6.496   1.816   2.533
18691WAT     H256316   6.340   1.860   2.515
18692WAT      O56317   9.747   4.119   0.403
18692WAT     H156318   9.651   4.139   0.423
18692WAT     H256319   9.795   4.099   0.488
18693WAT      O56320   6.102   9.584   8.759
18693WAT     H156321   6.033   9.522   8.720
18693WAT     H256322   6.193   9.552   8.733
18694WAT      O56323   9.595   1.774   8.745
18694WAT     H156324   9.626   1.791   8.652
18694WAT     H256325   9.526   1.701   8.745
18695WAT      O56326   2.136   7.442   1.034
18695WAT     H156327   2.116   7.363   1.092
18695WAT     H256328   2.140   7.413   0.938
18696WAT      O56329   6.711   2.883   8.302
18696WAT     H156330   6.717   2.858   8.398
18696WAT     H256331   6.621   2.857   8.266
18697WAT      O56332   2.332   2.578   8.798
18697WAT     H156333   2.370   2.547   8.885
18697WAT     H256334   2.328   2.678   8.796
18698WAT      O56335   1.778   8.971   7.921
18698WAT     H156336   1.725   8.921   7.990
18698WAT     H256337   1.825   8.905   7.862
18699WAT      O56338   4.628   6.674   8.974
18699WAT     H156339   4.702   6.727   9.015
18699WAT     H256340   4.624   6.692   8.876
18700WAT      O56341   4.697   0.078   6.140
18700WAT     H156342   4.775   0.113   6.089
18700WAT     H256343   4.643   0.154   6.176
18701WAT      O56344   2.393   7.112   0.204
18701WAT     H156345   2.409   7.076   0.112
18701WAT     H256346   2.390   7.212   0.200
18702WAT      O56347   2.875   7.092   5.684
18702WAT     H156348   2.786   7.077   5.728
18702WAT     H256349   2.924   7.005   5.679
18703WAT      O56350   1.159   6.439   3.006
18703WAT     H156351   1.241   6.471   3.054
18703WAT     H256352   1.160   6.474   2.913
18704WAT      O56353   2.367   0.113   8.769
18704WAT     H156354   2.433   0.163   8.826
18704WAT     H256355   2.402   0.021   8.751
18705WAT      O56356   8.366   6.546   4.113
18705WAT     H156357   8.455   6.502   4.097
18705WAT     H256358   8.316   6.495   4.183
18706WAT      O56359   7.951   1.531   3.944
18706WAT     H156360   8.047   1.502   3.939
18706WAT     H256361   7.900   1.492   3.867
18707WAT      O56362   1.844   8.666   6.847
18707WAT     H156363   1.846   8.751   6.899
18707WAT     H256364   1.917   8.667   6.778
18708WAT      O56365   8.522   1.027   4.100
18708WAT     H156366   8.460   1.098   4.134
18708WAT     H256367   8.490   0.995   4.011
18709WAT      O56368   1.530   9.348   5.008
18709WAT     H156369   1.504   9.438   5.045
18709WAT     H256370   1.466   9.323   4.935
18710WAT      O56371   4.535   7.280   8.864
18710WAT     H156372   4.549   7.256   8.768
18710WAT     H256373   4.437   7.277   8.885
18711WAT      O56374   8.021   3.721   8.210
18711WAT     H156375   7.964   3.776   8.149
18711WAT     H256376   8.055   3.640   8.162
18712WAT      O56377   1.938   9.764   1.206
18712WAT     H156378   1.963   9.859   1.223
18712WAT     H256379   1.945   9.712   1.291
18713WAT      O56380   1.293   2.760   0.420
18713WAT     H156381   1.213   2.723   0.373
18713WAT     H256382   1.310   2.854   0.390
18714WAT      O56383   9.044   7.001   1.788
18714WAT     H156384   9.034   7.057   1.705
18714WAT     H256385   8.962   7.008   1.843
18715WAT      O56386   6.850   0.227   6.412
18715WAT     H156387   6.804   0.246   6.325
18715WAT     H256388   6.903   0.142   6.404
18716WAT      O56389   7.692   5.519   6.598
18716WAT     H156390   7.765   5.568   6.550
18716WAT     H256391   7.625   5.485   6.531
18717WAT      O56392   4.008   4.835   5.474
18717WAT     H156393   3.946   4.776   5.421
18717WAT     H256394   4.089   4.782   5.500
18718WAT      O56395   5.914   7.124   1.796
18718WAT     H156396   5.916   7.061   1.874
18718WAT     H256397   5.914   7.218   1.830
18719WAT      O56398   7.446   8.165   9.623
18719WAT     H156399   7.469   8.128   9.533
18719WAT     H256400   7.505   8.242   9.643
18720WAT      O56401   4.269   9.771   6.435
18720WAT     H156402   4.178   9.812   6.436
18720WAT     H256403   4.287   9.731   6.345
18721WAT      O56404   6.251   6.574   0.386
18721WAT     H156405   6.218   6.481   0.404
18721WAT     H256406   6.319   6.571   0.313
18722WAT      O56407   1.176   8.785   5.453
18722WAT     H156408   1.133   8.833   5.529
18722WAT     H256409   1.106   8.751   5.391
18723WAT      O56410   2.226   6.951   8.769
18723WAT     H156411   2.303   7.013   8.751
18723WAT     H256412   2.258   6.857   8.771
18724WAT      O56413   0.116   8.080   9.874
18724WAT     H156414   0.056   8.043   9.803
18724WAT     H256415   0.104   8.179   9.881
18725WAT      O56416   9.490   0.955   3.022
18725WAT     H156417   9.406   1.008   3.029
18725WAT     H256418   9.527   0.940   3.114
18726WAT      O56419   7.773   9.416   2.467
18726WAT     H156420   7.777   9.512   2.492
18726WAT     H256421   7.693   9.373   2.508
18727WAT      O56422   1.343   1.470   5.385
18727WAT     H156423   1.407   1.395   5.402
18727WAT     H256424   1.377   1.527   5.310
18728WAT      O56425   2.641   4.933   3.945
18728WAT     H156426   2.695   4.849   3.950
18728WAT     H256427   2.545   4.912   3.966
18729WAT      O56428   5.678   3.319   8.630
18729WAT     H156429   5.753   3.283   8.685
18729WAT     H256430   5.696   3.414   8.606
18730WAT      O56431   5.405   2.840   1.045
18730WAT     H156432   5.323   2.884   1.080
18730WAT     H256433   5.381   2.750   1.009
18731WAT      O56434   3.458   9.300   7.001
18731WAT     H156435   3.476   9.353   7.084
18731WAT     H256436   3.449   9.363   6.924
18732WAT      O56437   2.805   8.643   0.678
18732WAT     H156438   2.853   8.723   0.714
18732WAT     H256439   2.751   8.601   0.750
18733WAT      O56440   1.113   2.917   2.501
18733WAT     H156441   1.065   2.960   2.425
18733WAT     H256442   1.191   2.865   2.466
18734WAT      O56443   8.170   9.121   4.182
18734WAT     H156444   8.206   9.096   4.271
18734WAT     H256445   8.088   9.068   4.162
18735WAT      O56446   1.899   8.425   7.993
18735WAT     H156447   1.859   8.477   7.918
18735WAT     H256448   1.929   8.336   7.958
18736WAT      O56449   8.953   8.995   9.526
18736WAT     H156450   8.927   9.032   9.437
18736WAT     H256451   9.029   9.049   9.564
18737WAT      O56452   1.701   0.563   2.927
18737WAT     H156453   1.794   0.526   2.917
18737WAT     H256454   1.677   0.616   2.845
18738WAT      O56455   1.276   4.890   4.699
18738WAT     H156456   1.213   4.818   4.669
18738WAT     H256457   1.348   4.902   4.631
18739WAT      O56458   1.583   4.075   6.863
18739WAT     H156459   1.674   4.104   6.893
18739WAT     H256460   1.547   4.006   6.925
18740WAT      O56461   1.746   4.393   8.825
18740WAT     H156462   1.810   4.420   8.897
18740WAT     H256463   1.683   4.324   8.861
18741WAT      O56464   4.191   8.242   0.098
18741WAT     H156465   4.169   8.150   0.066
18741WAT     H256466   4.267   8.237   0.163
18742WAT      O56467   6.911   8.454   7.746
18742WAT     H156468   6.852   8.534   7.751
18742WAT     H256469   6.971   8.462   7.667
18743WAT      O56470   7.134   4.764   9.002
18743WAT     H156471   7.087   4.755   8.914
18743WAT     H256472   7.172   4.857   9.010
18744WAT      O56473   5.031   2.779   2.921
18744WAT     H156474   4.934   2.755   2.932
18744WAT     H256475   5.044   2.875   2.942
18745WAT      O56476   8.945   0.073   8.218
18745WAT     H156477   8.987   0.047   8.130
18745WAT     H256478   8.848   0.050   8.216
18746WAT      O56479   4.535   8.598   2.060
18746WAT     H156480   4.503   8.687   2.029
18746WAT     H256481   4.541   8.536   1.982
18747WAT      O56482   5.936   0.607   4.259
18747WAT     H156483   5.933   0.529   4.196
18747WAT     H256484   5.914   0.576   4.352
18748WAT      O56485   4.275   9.413   7.024
18748WAT     H156486   4.218   9.353   6.968
18748WAT     H256487   4.365   9.423   6.980
18749WAT      O56488   3.774   6.409   4.280
18749WAT     H156489   3.810   6.454   4.198
18749WAT     H256490   3.794   6.311   4.276
18750WAT      O56491   0.627   3.918   0.839
18750WAT     H156492   0.702   3.868   0.881
18750WAT     H256493   0.554   3.854   0.814
18751WAT      O56494   4.599   6.715   0.471
18751WAT     H156495   4.565   6.779   0.403
18751WAT     H256496   4.699   6.712   0.467
18752WAT      O56497   9.549   9.011   0.764
18752WAT     H156498   9.521   9.038   0.856
18752WAT     H256499   9.484   8.945   0.727
18753WAT      O56500   4.530   8.391   9.471
18753WAT     H156501   4.568   8.443   9.548
18753WAT     H256502   4.463   8.325   9.505
18754WAT      O56503   8.188   6.780   4.405
18754WAT     H156504   8.286   6.762   4.415
18754WAT     H256505   8.172   6.829   4.320
18755WAT      O56506   4.528   3.223   5.681
18755WAT     H156507   4.601   3.233   5.749
18755WAT     H256508   4.440   3.244   5.723
18756WAT      O56509   2.471   6.378   2.857
18756WAT     H156510   2.407   6.454   2.844
18756WAT     H256511   2.421   6.298   2.890
18757WAT      O56512   6.358   6.601   3.855
18757WAT     H156513   6.356   6.642   3.946
18757WAT     H256514   6.386   6.505   3.862
18758WAT      O56515   7.742   0.679   4.851
18758WAT     H156516   7.658   0.662   4.904
18758WAT     H256517   7.798   0.746   4.900
18759WAT      O56518   3.786   3.024   5.804
18759WAT     H156519   3.877   2.983   5.797
18759WAT     H256520   3.761   3.066   5.717
18760WAT      O56521   4.769   6.999   1.463
18760WAT     H156522   4.774   7.064   1.539
18760WAT     H256523   4.838   6.928   1.475
18761WAT      O56524   3.730   5.803   4.963
18761WAT     H156525   3.800   5.733   4.979
18761WAT     H256526   3.765   5.872   4.899
18762WAT      O56527   2.666   7.912   7.297
18762WAT     H156528   2.585   7.873   7.254
18762WAT     H256529   2.657   7.908   7.396
18763WAT      O56530   2.223   2.101   8.864
18763WAT     H156531   2.320   2.096   8.838
18763WAT     H256532   2.198   2.196   8.881
18764WAT      O56533   4.104   9.197   3.493
18764WAT     H156534   4.193   9.234   3.466
18764WAT     H256535   4.054   9.169   3.411
18765WAT      O56536   9.848   4.273   8.459
18765WAT     H156537   9.753   4.301   8.443
18765WAT     H256538   9.870   4.196   8.400
18766WAT      O56539   0.838   0.869   6.521
18766WAT     H156540   0.922   0.923   6.520
18766WAT     H256541   0.766   0.920   6.569
18767WAT      O56542   8.179   5.255   5.131
18767WAT     H156543   8.116   5.179   5.143
18767WAT     H256544   8.273   5.223   5.143
18768WAT      O56545   1.467   8.807   3.190
18768WAT     H156546   1.505   8.898   3.169
18768WAT     H256547   1.402   8.781   3.119
18769WAT      O56548   7.397   6.319   7.001
18769WAT     H156549   7.340   6.401   7.003
18769WAT     H256550   7.391   6.272   7.089
18770WAT      O56551   2.348   0.707   1.695
18770WAT     H156552   2.329   0.802   1.672
18770WAT     H256553   2.431   0.677   1.648
18771WAT      O56554   1.381   5.171   1.511
18771WAT     H156555   1.318   5.135   1.441
18771WAT     H256556   1.457   5.216   1.466
18772WAT      O56557   2.416   5.993   2.265
18772WAT     H156558   2.470   5.926   2.315
18772WAT     H256559   2.468   6.025   2.186
18773WAT      O56560   7.559   8.730   0.473
18773WAT     H156561   7.462   8.739   0.449
18773WAT     H256562   7.568   8.722   0.572
18774WAT      O56563   2.098   3.810   5.259
18774WAT     H156564   2.019   3.779   5.207
18774WAT     H256565   2.070   3.832   5.353
18775WAT      O56566   4.064   9.584   8.654
18775WAT     H156567   3.976   9.565   8.698
18775WAT     H256568   4.053   9.657   8.587
18776WAT      O56569   6.550   2.333   3.453
18776WAT     H156570   6.452   2.353   3.445
18776WAT     H256571   6.564   2.260   3.520
18777WAT      O56572   4.757   8.093   4.693
18777WAT     H156573   4.805   8.167   4.739
18777WAT     H256574   4.801   8.006   4.714
18778WAT      O56575   9.269   3.355   0.541
18778WAT     H156576   9.334   3.404   0.598
18778WAT     H256577   9.317   3.302   0.472
18779WAT      O56578   0.454   8.556   4.499
18779WAT     H156579   0.411   8.467   4.484
18779WAT     H256580   0.524   8.572   4.429
18780WAT      O56581   8.282   1.015   9.544
18780WAT     H156582   8.203   0.960   9.516
18780WAT     H256583   8.361   0.956   9.555
18781WAT      O56584   7.455   1.467   9.738
18781WAT     H156585   7.388   1.393   9.743
18781WAT     H256586   7.545   1.431   9.762
18782WAT      O56587   9.687   7.441   8.177
18782WAT     H156588   9.774   7.403   8.145
18782WAT     H256589   9.684   7.539   8.157
18783WAT      O56590   7.956   2.224   5.700
18783WAT     H156591   7.884   2.269   5.647
18783WAT     H256592   7.926   2.132   5.726
18784WAT      O56593   0.837   1.394   6.878
18784WAT     H156594   0.742   1.376   6.853
18784WAT     H256595   0.861   1.343   6.960
18785WAT      O56596   7.137   6.594   1.188
18785WAT     H156597   7.160   6.518   1.128
18785WAT     H256598   7.041   6.617   1.178
18786WAT      O56599   1.795   2.486   7.505
18786WAT     H156600   1.838   2.542   7.577
18786WAT     H256601   1.764   2.545   7.431
18787WAT      O56602   4.739   6.764   3.606
18787WAT     H156603   4.649   6.781   3.646
18787WAT     H256604   4.781   6.685   3.650
18788WAT      O56605   5.768   1.706   0.924
18788WAT     H156606   5.728   1.785   0.971
18788WAT     H256607   5.808   1.736   0.837
18789WAT      O56608   0.756   0.314   2.208
18789WAT     H156609   0.844   0.267   2.195
18789WAT     H256610   0.693   0.254   2.256
18790WAT      O56611   5.331   7.578   6.151
18790WAT     H156612   5.250   7.597   6.206
18790WAT     H256613   5.401   7.648   6.168
18791WAT      O56614   9.081   7.931   1.113
18791WAT     H156615   9.068   8.011   1.170
18791WAT     H256616   9.008   7.865   1.130
18792WAT      O56617   5.007   7.441   2.061
18792WAT     H156618   4.920   7.478   2.093
18792WAT     H256619   5.013   7.449   1.962
18793WAT      O56620   8.615   7.539   2.161
18793WAT     H156621   8.517   7.522   2.160
18793WAT     H256622   8.655   7.509   2.074
18794WAT      O56623   9.725   8.147   7.939
18794WAT     H156624   9.778   8.225   7.970
18794WAT     H256625   9.781   8.091   7.877
18795WAT      O56626   0.767   1.817   0.026
18795WAT     H156627   0.820   1.814  -0.059
18795WAT     H256628   0.669   1.814   0.004
18796WAT      O56629   3.020   5.651   2.511
18796WAT     H156630   3.070   5.601   2.582
18796WAT     H256631   2.935   5.687   2.550
18797WAT      O56632   8.697   2.796   1.032
18797WAT     H156633   8.744   2.854   1.098
18797WAT     H256634   8.606   2.773   1.066
18798WAT      O56635   1.804   2.269   3.402
18798WAT     H156636   1.805   2.279   3.302
18798WAT     H256637   1.721   2.221   3.430
18799WAT      O56638   3.125   2.075   3.990
18799WAT     H156639   3.201   2.029   3.945
18799WAT     H256640   3.060   2.107   3.921
18800WAT      O56641   6.447   6.523   4.426
18800WAT     H156642   6.461   6.559   4.518
18800WAT     H256643   6.382   6.446   4.430
18801WAT      O56644   4.238   5.095   4.899
18801WAT     H156645   4.246   5.191   4.926
18801WAT     H256646   4.322   5.046   4.924
18802WAT      O56647   4.970   6.623   7.204
18802WAT     H156648   4.945   6.685   7.279
18802WAT     H256649   5.068   6.608   7.205
18803WAT      O56650   1.485   3.715   2.081
18803WAT     H156651   1.460   3.656   2.004
18803WAT     H256652   1.406   3.770   2.107
18804WAT      O56653   1.746   4.664   3.268
18804WAT     H156654   1.729   4.567   3.252
18804WAT     H256655   1.736   4.714   3.182
18805WAT      O56656   3.578   6.846   0.988
18805WAT     H156657   3.483   6.854   1.019
18805WAT     H256658   3.589   6.760   0.937
18806WAT      O56659   6.197   1.409   7.546
18806WAT     H156660   6.228   1.487   7.492
18806WAT     H256661   6.097   1.404   7.546
18807WAT      O56662   7.565   6.911   7.107
18807WAT     H156663   7.621   6.955   7.177
18807WAT     H256664   7.617   6.904   7.022
18808WAT      O56665   2.649   9.412   9.289
18808WAT     H156666   2.561   9.368   9.272
18808WAT     H256667   2.654   9.442   9.385
18809WAT      O56668   3.096   5.662   1.755
18809WAT     H156669   3.163   5.637   1.825
18809WAT     H256670   3.015   5.701   1.799
18810WAT      O56671   6.358   5.206   6.157
18810WAT     H156672   6.377   5.301   6.136
18810WAT     H256673   6.419   5.147   6.104
18811WAT      O56674   5.998   7.309   7.885
18811WAT     H156675   5.980   7.260   7.799
18811WAT     H256676   6.079   7.366   7.874
18812WAT      O56677   4.323   2.328   3.865
18812WAT     H156678   4.283   2.265   3.799
18812WAT     H256679   4.385   2.391   3.819
18813WAT      O56680   2.448   2.980   1.782
18813WAT     H156681   2.413   3.023   1.699
18813WAT     H256682   2.382   2.913   1.816
18814WAT      O56683   1.230   1.110   2.266
18814WAT     H156684   1.249   1.148   2.176
18814WAT     H256685   1.209   1.013   2.258
18815WAT      O56686   0.185   1.775   0.615
18815WAT     H156687   0.242   1.694   0.606
18815WAT     H256688   0.162   1.810   0.524
18816WAT      O56689   7.484   5.308   6.867
18816WAT     H156690   7.580   5.280   6.859
18816WAT     H256691   7.428   5.252   6.805
18817WAT      O56692   2.554   3.070   7.493
18817WAT     H156693   2.516   3.160   7.471
18817WAT     H256694   2.602   3.034   7.413
18818WAT      O56695   0.613   4.715   5.754
18818WAT     H156696   0.544   4.652   5.792
18818WAT     H256697   0.690   4.721   5.818
18819WAT      O56698   8.275   1.843   6.577
18819WAT     H156699   8.355   1.798   6.617
18819WAT     H256700   8.229   1.898   6.647
18820WAT      O56701   5.523   3.628   4.117
18820WAT     H156702   5.450   3.642   4.049
18820WAT     H256703   5.580   3.551   4.089
18821WAT      O56704   9.804   4.787   3.269
18821WAT     H156705   9.851   4.724   3.206
18821WAT     H256706   9.852   4.787   3.357
18822WAT      O56707   2.162   8.162   7.078
18822WAT     H156708   2.064   8.182   7.078
18822WAT     H256709   2.179   8.081   7.135
18823WAT      O56710   9.328   2.102   2.590
18823WAT     H156711   9.281   2.093   2.678
18823WAT     H256712   9.377   2.017   2.570
18824WAT      O56713   4.470   9.317   3.090
18824WAT     H156714   4.432   9.242   3.145
18824WAT     H256715   4.525   9.279   3.016
18825WAT      O56716   6.809   3.491   3.060
18825WAT     H156717   6.762   3.461   3.143
18825WAT     H256718   6.763   3.572   3.023
18826WAT      O56719   2.214   1.668   7.444
18826WAT     H156720   2.233   1.766   7.445
18826WAT     H256721   2.169   1.641   7.528
18827WAT      O56722   1.353   0.377   8.966
18827WAT     H156723   1.410   0.355   8.887
18827WAT     H256724   1.257   0.374   8.939
18828WAT      O56725   8.453   7.360   9.163
18828WAT     H156726   8.449   7.418   9.244
18828WAT     H256727   8.535   7.383   9.109
18829WAT      O56728   0.335   3.973   4.747
18829WAT     H156729   0.353   4.036   4.671
18829WAT     H256730   0.334   3.879   4.713
18830WAT      O56731   9.731   0.689   1.255
18830WAT     H156732   9.640   0.713   1.290
18830WAT     H256733   9.736   0.590   1.242
18831WAT      O56734   7.588   4.215   0.896
18831WAT     H156735   7.597   4.156   0.815
18831WAT     H256736   7.504   4.192   0.944
18832WAT      O56737   3.387   8.126   2.714
18832WAT     H156738   3.367   8.083   2.626
18832WAT     H256739   3.480   8.101   2.742
18833WAT      O56740   7.618   2.925   5.511
18833WAT     H156741   7.550   2.980   5.561
18833WAT     H256742   7.685   2.888   5.576
18834WAT      O56743   6.980   4.200   6.414
18834WAT     H156744   6.902   4.164   6.364
18834WAT     H256745   6.971   4.299   6.424
18835WAT      O56746   0.284   2.257   8.201
18835WAT     H156747   0.266   2.324   8.272
18835WAT     H256748   0.382   2.256   8.180
18836WAT      O56749   2.168   8.897   3.734
18836WAT     H156750   2.077   8.874   3.699
18836WAT     H256751   2.169   8.993   3.762
18837WAT      O56752   1.859   3.888   0.250
18837WAT     H156753   1.844   3.923   0.342
18837WAT     H256754   1.913   3.954   0.197
18838WAT      O56755   5.056   6.723   3.190
18838WAT     H156756   5.019   6.668   3.265
18838WAT     H256757   5.151   6.746   3.210
18839WAT      O56758   4.804   5.277   9.187
18839WAT     H156759   4.875   5.221   9.229
18839WAT     H256760   4.765   5.338   9.256
18840WAT      O56761   5.125   6.995   6.149
18840WAT     H156762   5.118   7.046   6.234
18840WAT     H256763   5.143   7.058   6.073
18841WAT      O56764   7.069   4.759   0.790
18841WAT     H156765   7.028   4.669   0.808
18841WAT     H256766   7.005   4.830   0.820
18842WAT      O56767   5.196   5.485   6.569
18842WAT     H156768   5.239   5.434   6.643
18842WAT     H256769   5.121   5.540   6.605
18843WAT      O56770   5.907   9.503   6.873
18843WAT     H156771   5.906   9.425   6.935
18843WAT     H256772   5.920   9.471   6.780
18844WAT      O56773   2.937   9.064   1.009
18844WAT     H156774   3.006   9.112   1.063
18844WAT     H256775   2.861   9.126   0.991
18845WAT      O56776   4.020   1.060   1.301
18845WAT     H156777   4.021   1.028   1.207
18845WAT     H256778   3.970   1.147   1.307
18846WAT      O56779   2.091   7.635   5.397
18846WAT     H156780   2.081   7.673   5.305
18846WAT     H256781   2.153   7.556   5.394
18847WAT      O56782   4.089   3.396   5.488
18847WAT     H156783   4.017   3.459   5.516
18847WAT     H256784   4.056   3.302   5.494
18848WAT      O56785   8.534   2.053   4.315
18848WAT     H156786   8.597   2.055   4.393
18848WAT     H256787   8.504   1.959   4.300
18849WAT      O56788   5.141   5.501   8.934
18849WAT     H156789   5.047   5.482   8.962
18849WAT     H256790   5.158   5.599   8.938
18850WAT      O56791   2.066   6.877   4.203
18850WAT     H156792   2.154   6.844   4.168
18850WAT     H256793   2.016   6.924   4.130
18851WAT      O56794   9.191   5.460   1.357
18851WAT     H156795   9.185   5.540   1.298
18851WAT     H256796   9.099   5.421   1.368
18852WAT      O56797   1.447   3.890   7.562
18852WAT     H156798   1.413   3.801   7.532
18852WAT     H256799   1.493   3.936   7.486
18853WAT      O56800   4.375   5.626   4.907
18853WAT     H156801   4.295   5.664   4.953
18853WAT     H256802   4.456   5.642   4.963
18854WAT      O56803   6.340   9.047   6.700
18854WAT     H156804   6.287   8.993   6.634
18854WAT     H256805   6.337   9.003   6.789
18855WAT      O56806   2.551   3.765   1.377
18855WAT     H156807   2.618   3.807   1.316
18855WAT     H256808   2.598   3.727   1.457
18856WAT      O56809   0.352   5.159   5.988
18856WAT     H156810   0.382   5.101   5.912
18856WAT     H256811   0.259   5.132   6.015
18857WAT      O56812   6.982   5.038   8.188
18857WAT     H156813   6.911   5.065   8.123
18857WAT     H256814   6.991   4.938   8.188
18858WAT      O56815   3.114   3.966   3.876
18858WAT     H156816   3.126   3.884   3.932
18858WAT     H256817   3.175   3.961   3.797
18859WAT      O56818   7.934   7.995   4.051
18859WAT     H156819   7.908   7.952   3.965
18859WAT     H256820   8.005   8.063   4.035
18860WAT      O56821   2.557   3.127   8.695
18860WAT     H156822   2.515   3.215   8.675
18860WAT     H256823   2.488   3.055   8.691
18861WAT      O56824   2.087   5.134   4.835
18861WAT     H156825   2.020   5.084   4.890
18861WAT     H256826   2.105   5.223   4.877
18862WAT      O56827   6.073   3.403   9.492
18862WAT     H156828   6.150   3.435   9.549
18862WAT     H256829   5.987   3.435   9.532
18863WAT      O56830   0.757   2.049   3.178
18863WAT     H156831   0.840   2.052   3.123
18863WAT     H256832   0.677   2.055   3.118
18864WAT      O56833   3.574   0.919   0.750
18864WAT     H156834   3.632   0.838   0.740
18864WAT     H256835   3.632   1.000   0.764
18865WAT      O56836   3.788   1.130   3.000
18865WAT     H156837   3.823   1.090   3.085
18865WAT     H256838   3.692   1.156   3.012
18866WAT      O56839   4.884   6.629   3.401
18866WAT     H156840   4.851   6.704   3.459
18866WAT     H256841   4.823   6.618   3.323
18867WAT      O56842   9.715   4.668   7.691
18867WAT     H156843   9.722   4.760   7.729
18867WAT     H256844   9.792   4.612   7.723
18868WAT      O56845   8.733   8.196   3.953
18868WAT     H156846   8.812   8.257   3.959
18868WAT     H256847   8.690   8.188   4.043
18869WAT      O56848   8.947   9.785   8.761
18869WAT     H156849   8.854   9.796   8.796
18869WAT     H256850   8.952   9.822   8.668
18870WAT      O56851   6.797   2.232   2.832
18870WAT     H156852   6.879   2.205   2.884
18870WAT     H256853   6.778   2.163   2.763
18871WAT      O56854   9.191   8.527   4.307
18871WAT     H156855   9.265   8.589   4.332
18871WAT     H256856   9.220   8.470   4.230
18872WAT      O56857   0.900   6.043   3.892
18872WAT     H156858   0.909   5.961   3.948
18872WAT     H256859   0.955   6.033   3.809
18873WAT      O56860   3.991   7.931   2.221
18873WAT     H156861   3.994   7.873   2.302
18873WAT     H256862   3.960   7.878   2.143
18874WAT      O56863   7.646   5.251   7.539
18874WAT     H156864   7.599   5.225   7.623
18874WAT     H256865   7.580   5.262   7.465
18875WAT      O56866   7.873   1.473   0.923
18875WAT     H156867   7.891   1.385   0.878
18875WAT     H256868   7.873   1.460   1.023
18876WAT      O56869   2.561   4.046   4.534
18876WAT     H156870   2.491   4.026   4.465
18876WAT     H256871   2.652   4.039   4.493
18877WAT      O56872   2.767   9.542   3.231
18877WAT     H156873   2.787   9.499   3.319
18877WAT     H256874   2.820   9.626   3.222
18878WAT      O56875   5.476   5.009   7.760
18878WAT     H156876   5.378   5.025   7.749
18878WAT     H256877   5.502   4.926   7.709
18879WAT      O56878   4.965   7.295   5.755
18879WAT     H156879   4.965   7.384   5.801
18879WAT     H256880   4.898   7.236   5.798
18880WAT      O56881   0.499   4.145   5.336
18880WAT     H156882   0.531   4.084   5.264
18880WAT     H256883   0.577   4.188   5.381
18881WAT      O56884   0.725   0.168   0.852
18881WAT     H156885   0.657   0.126   0.791
18881WAT     H256886   0.679   0.227   0.918
18882WAT      O56887   9.483   3.633   6.747
18882WAT     H156888   9.545   3.696   6.794
18882WAT     H256889   9.519   3.612   6.656
18883WAT      O56890   8.884   9.740   2.324
18883WAT     H156891   8.979   9.728   2.354
18883WAT     H256892   8.878   9.727   2.225
18884WAT      O56893   6.399   5.629   0.839
18884WAT     H156894   6.469   5.700   0.833
18884WAT     H256895   6.443   5.539   0.840
18885WAT      O56896   0.328   9.344   6.313
18885WAT     H156897   0.342   9.442   6.330
18885WAT     H256898   0.353   9.293   6.395
18886WAT      O56899   1.940   4.457   8.992
18886WAT     H156900   1.959   4.474   9.089
18886WAT     H256901   1.972   4.535   8.938
18887WAT      O56902   6.079   0.751   2.125
18887WAT     H156903   6.127   0.683   2.070
18887WAT     H256904   6.145   0.800   2.183
18888WAT      O56905   0.967   2.908   0.023
18888WAT     H156906   0.869   2.927   0.018
18888WAT     H256907   1.016   2.967  -0.041
18889WAT      O56908   4.025   7.592   3.255
18889WAT     H156909   3.993   7.511   3.304
18889WAT     H256910   4.080   7.648   3.317
18890WAT      O56911   1.431   3.581   1.242
18890WAT     H156912   1.503   3.623   1.186
18890WAT     H256913   1.408   3.491   1.205
18891WAT      O56914   9.645   9.239   2.955
18891WAT     H156915   9.591   9.157   2.972
18891WAT     H256916   9.720   9.217   2.893
18892WAT      O56917   2.259   4.157   6.941
18892WAT     H156918   2.188   4.154   6.870
18892WAT     H256919   2.234   4.096   7.016
18893WAT      O56920   5.669   3.442   6.866
18893WAT     H156921   5.750   3.400   6.825
18893WAT     H256922   5.659   3.536   6.833
18894WAT      O56923   6.031   1.328   4.348
18894WAT     H156924   6.065   1.323   4.442
18894WAT     H256925   6.108   1.332   4.285
18895WAT      O56926   6.151   8.855   4.288
18895WAT     H156927   6.069   8.887   4.334
18895WAT     H256928   6.142   8.867   4.189
18896WAT      O56929   0.101   2.278   3.060
18896WAT     H156930   0.192   2.256   3.093
18896WAT     H256931   0.044   2.196   3.061
18897WAT      O56932   8.416   0.563   6.426
18897WAT     H156933   8.478   0.494   6.390
18897WAT     H256934   8.378   0.616   6.350
18898WAT      O56935   4.440   4.235   8.514
18898WAT     H156936   4.445   4.150   8.566
18898WAT     H256937   4.516   4.240   8.449
18899WAT      O56938   7.767   7.964   5.827
18899WAT     H156939   7.724   8.053   5.813
18899WAT     H256940   7.808   7.933   5.741
18900WAT      O56941   4.247   5.007   9.816
18900WAT     H156942   4.234   5.034   9.911
18900WAT     H256943   4.181   4.936   9.792
18901WAT      O56944   2.257   0.968   4.462
18901WAT     H156945   2.205   0.887   4.435
18901WAT     H256946   2.202   1.050   4.446
18902WAT      O56947   1.504   2.977   8.759
18902WAT     H156948   1.485   2.995   8.663
18902WAT     H256949   1.452   3.040   8.816
18903WAT      O56950   3.383   0.004   2.206
18903WAT     H156951   3.402   0.093   2.247
18903WAT     H256952   3.469  -0.041   2.184
18904WAT      O56953   1.921   9.654   4.572
18904WAT     H156954   1.837   9.611   4.537
18904WAT     H256955   1.934   9.628   4.667
18905WAT      O56956   1.789   5.801   0.240
18905WAT     H156957   1.858   5.872   0.256
18905WAT     H256958   1.824   5.713   0.272
18906WAT      O56959   1.837   5.511   3.340
18906WAT     H156960   1.929   5.513   3.300
18906WAT     H256961   1.843   5.523   3.439
18907WAT      O56962   1.308   2.119   6.682
18907WAT     H156963   1.390   2.137   6.736
18907WAT     H256964   1.333   2.102   6.587
18908WAT      O56965   9.666   9.140   6.021
18908WAT     H156966   9.675   9.172   6.116
18908WAT     H256967   9.570   9.117   6.002
18909WAT      O56968   5.014   7.625   0.750
18909WAT     H156969   4.981   7.719   0.755
18909WAT     H256970   5.045   7.605   0.657
18910WAT      O56971   7.037   6.451   6.921
18910WAT     H156972   7.132   6.472   6.900
18910WAT     H256973   6.998   6.395   6.848
18911WAT      O56974   9.347   5.619   0.503
18911WAT     H156975   9.440   5.602   0.537
18911WAT     H256976   9.295   5.534   0.503
18912WAT      O56977   1.988   6.331   0.976
18912WAT     H156978   2.067   6.360   1.031
18912WAT     H256979   1.906   6.380   1.007
18913WAT      O56980   5.326   6.906   5.200
18913WAT     H156981   5.343   6.947   5.110
18913WAT     H256982   5.261   6.963   5.251
18914WAT      O56983   1.550   6.608   8.807
18914WAT     H156984   1.525   6.646   8.718
18914WAT     H256985   1.536   6.509   8.806
18915WAT      O56986   5.751   0.375   0.651
18915WAT     H156987   5.669   0.424   0.680
18915WAT     H256988   5.731   0.278   0.642
18916WAT      O56989   3.243   1.434   1.572
18916WAT     H156990   3.212   1.529   1.583
18916WAT     H256991   3.206   1.378   1.646
18917WAT      O56992   7.555   0.597   2.448
18917WAT     H156993   7.467   0.550   2.456
18917WAT     H256994   7.609   0.555   2.375
18918WAT      O56995   2.947   7.036   2.928
18918WAT     H156996   2.883   6.983   2.984
18918WAT     H256997   2.932   7.133   2.944
18919WAT      O56998   2.434   2.163   1.076
18919WAT     H156999   2.476   2.171   0.986
18919WAT     H257000   2.501   2.186   1.146
18920WAT      O57001   4.605   4.047   2.935
18920WAT     H157002   4.517   4.051   2.984
18920WAT     H257003   4.630   3.951   2.920
18921WAT      O57004   6.561   9.580   8.882
18921WAT     H157005   6.508   9.664   8.868
18921WAT     H257006   6.595   9.577   8.975
18922WAT      O57007   0.962   1.421   2.536
18922WAT     H157008   0.970   1.332   2.491
18922WAT     H257009   0.954   1.408   2.634
18923WAT      O57010   6.038   2.085   0.320
18923WAT     H157011   6.065   2.168   0.271
18923WAT     H257012   6.074   2.005   0.273
18924WAT      O57013   3.218   4.991   3.669
18924WAT     H157014   3.219   5.052   3.591
18924WAT     H257015   3.157   4.914   3.650
18925WAT      O57016   1.215   7.911   1.527
18925WAT     H157017   1.286   7.920   1.597
18925WAT     H257018   1.127   7.893   1.571
18926WAT      O57019   2.139   8.528   5.049
18926WAT     H157020   2.118   8.465   5.124
18926WAT     H257021   2.148   8.621   5.085
18927WAT      O57022   6.255   4.502   4.391
18927WAT     H157023   6.349   4.475   4.369
18927WAT     H257024   6.211   4.430   4.444
18928WAT      O57025   6.133   2.933   0.296
18928WAT     H157026   6.040   2.897   0.307
18928WAT     H257027   6.158   2.985   0.377
18929WAT      O57028   5.294   2.985   1.515
18929WAT     H157029   5.340   3.073   1.529
18929WAT     H257030   5.255   2.953   1.601
18930WAT      O57031   1.331   5.873   1.708
18930WAT     H157032   1.312   5.964   1.745
18930WAT     H257033   1.303   5.804   1.774
18931WAT      O57034   2.905   9.099   4.494
18931WAT     H157035   2.878   9.146   4.578
18931WAT     H257036   2.875   9.003   4.499
18932WAT      O57037   8.066   8.293   6.167
18932WAT     H157038   8.041   8.375   6.219
18932WAT     H257039   8.093   8.320   6.074
18933WAT      O57040   2.966   7.741   6.163
18933WAT     H157041   2.983   7.701   6.074
18933WAT     H257042   2.903   7.818   6.154
18934WAT      O57043   7.386   5.862   2.853
18934WAT     H157044   7.305   5.857   2.912
18934WAT     H257045   7.358   5.860   2.757
18935WAT      O57046   9.312   4.950   2.324
18935WAT     H157047   9.217   4.975   2.340
18935WAT     H257048   9.372   5.004   2.384
18936WAT      O57049   1.980   1.924   1.045
18936WAT     H157050   1.900   1.980   1.065
18936WAT     H257051   2.063   1.972   1.074
18937WAT      O57052  -0.001   7.379   5.649
18937WAT     H157053   0.032   7.308   5.711
18937WAT     H257054   0.069   7.399   5.581
18938WAT      O57055   2.536   4.924   7.167
18938WAT     H157056   2.565   4.832   7.142
18938WAT     H257057   2.443   4.921   7.204
18939WAT      O57058   8.331   7.686   8.831
18939WAT     H157059   8.334   7.598   8.878
18939WAT     H257060   8.348   7.760   8.896
18940WAT      O57061   3.251   0.529   4.038
18940WAT     H157062   3.335   0.582   4.023
18940WAT     H257063   3.211   0.554   4.126
18941WAT      O57064   6.107   3.554   3.120
18941WAT     H157065   6.087   3.580   3.026
18941WAT     H257066   6.073   3.624   3.182
18942WAT      O57067   7.717   5.931   4.765
18942WAT     H157068   7.697   5.952   4.860
18942WAT     H257069   7.814   5.949   4.746
18943WAT      O57070   1.549   9.585   7.068
18943WAT     H157071   1.545   9.577   6.968
18943WAT     H257072   1.569   9.680   7.092
18944WAT      O57073   7.932   3.339   3.019
18944WAT     H157074   7.976   3.419   3.061
18944WAT     H257075   7.835   3.357   3.006
18945WAT      O57076   2.831   3.470   9.024
18945WAT     H157077   2.826   3.393   8.961
18945WAT     H257078   2.739   3.492   9.058
18946WAT      O57079   2.400   8.783   7.508
18946WAT     H157080   2.339   8.716   7.550
18946WAT     H257081   2.493   8.745   7.506
18947WAT      O57082   6.486   4.417   7.517
18947WAT     H157083   6.490   4.503   7.568
18947WAT     H257084   6.541   4.348   7.564
18948WAT      O57085   0.201   5.658   6.542
18948WAT     H157086   0.109   5.697   6.556
18948WAT     H257087   0.235   5.622   6.628
18949WAT      O57088   7.294   1.977   9.341
18949WAT     H157089   7.259   2.025   9.261
18949WAT     H257090   7.220   1.960   9.405
18950WAT      O57091   6.063   3.770   4.077
18950WAT     H157092   6.131   3.813   4.136
18950WAT     H257093   6.046   3.828   3.997
18951WAT      O57094   5.163   8.767   5.470
18951WAT     H157095   5.136   8.695   5.534
18951WAT     H257096   5.195   8.847   5.520
18952WAT      O57097   4.284   0.496   1.025
18952WAT     H157098   4.287   0.493   1.125
18952WAT     H257099   4.337   0.419   0.989
18953WAT      O57100   3.721   7.172   1.949
18953WAT     H157101   3.726   7.115   1.867
18953WAT     H257102   3.653   7.243   1.936
18954WAT      O57103   3.412   9.287   2.911
18954WAT     H157104   3.469   9.230   2.852
18954WAT     H257105   3.317   9.283   2.881
18955WAT      O57106   7.164   4.560   3.592
18955WAT     H157107   7.104   4.481   3.585
18955WAT     H257108   7.256   4.534   3.564
18956WAT      O57109   3.260   5.628   7.088
18956WAT     H157110   3.228   5.606   7.180
18956WAT     H257111   3.219   5.713   7.057
18957WAT      O57112   8.830   5.433   7.955
18957WAT     H157113   8.885   5.509   7.921
18957WAT     H257114   8.890   5.359   7.986
18958WAT      O57115   2.749   9.761   9.846
18958WAT     H157116   2.791   9.699   9.779
18958WAT     H257117   2.728   9.711   9.930
18959WAT      O57118   1.713   3.761   0.805
18959WAT     H157119   1.657   3.799   0.731
18959WAT     H257120   1.788   3.824   0.825
18960WAT      O57121   8.922   3.890   4.727
18960WAT     H157122   8.861   3.813   4.709
18960WAT     H257123   8.891   3.938   4.809
18961WAT      O57124   2.855   2.341   5.260
18961WAT     H157125   2.947   2.361   5.294
18961WAT     H257126   2.859   2.323   5.162
18962WAT      O57127   3.070   3.469   3.927
18962WAT     H157128   3.002   3.484   3.856
18962WAT     H257129   3.048   3.386   3.979
18963WAT      O57130   4.267   0.244   7.737
18963WAT     H157131   4.228   0.157   7.767
18963WAT     H257132   4.364   0.247   7.758
18964WAT      O57133   8.661   1.616   0.016
18964WAT     H157134   8.714   1.672   0.080
18964WAT     H257135   8.591   1.672  -0.027
18965WAT      O57136   1.115   5.720   9.406
18965WAT     H157137   1.175   5.649   9.368
18965WAT     H257138   1.056   5.755   9.333
18966WAT      O57139   6.594   7.944   5.214
18966WAT     H157140   6.574   8.036   5.179
18966WAT     H257141   6.667   7.903   5.158
18967WAT      O57142   7.988   0.652   8.410
18967WAT     H157143   8.022   0.580   8.472
18967WAT     H257144   8.020   0.741   8.443
18968WAT      O57145   6.004   6.277   8.350
18968WAT     H157146   5.987   6.197   8.408
18968WAT     H257147   5.925   6.339   8.355
18969WAT      O57148   2.618   9.529   0.638
18969WAT     H157149   2.699   9.585   0.657
18969WAT     H257150   2.637   9.470   0.559
18970WAT      O57151   6.266   5.926   4.366
18970WAT     H157152   6.259   5.939   4.267
18970WAT     H257153   6.197   5.860   4.396
18971WAT      O57154   7.755   4.422   0.561
18971WAT     H157155   7.679   4.443   0.622
18971WAT     H257156   7.750   4.326   0.533
18972WAT      O57157   5.448   8.160   7.902
18972WAT     H157158   5.356   8.168   7.864
18972WAT     H257159   5.453   8.079   7.961
18973WAT      O57160   8.971   7.526   9.288
18973WAT     H157161   8.994   7.548   9.193
18973WAT     H257162   8.930   7.435   9.291
18974WAT      O57163   6.997   5.153   0.586
18974WAT     H157164   6.985   5.177   0.490
18974WAT     H257165   7.053   5.070   0.593
18975WAT      O57166   5.667   7.743   3.207
18975WAT     H157167   5.665   7.843   3.218
18975WAT     H257168   5.755   7.708   3.240
18976WAT      O57169   8.339   3.111   5.810
18976WAT     H157170   8.409   3.126   5.740
18976WAT     H257171   8.259   3.068   5.769
18977WAT      O57172   3.197   6.848   7.577
18977WAT     H157173   3.267   6.893   7.632
18977WAT     H257174   3.211   6.749   7.579
18978WAT      O57175   3.815   1.826   7.300
18978WAT     H157176   3.863   1.911   7.318
18978WAT     H257177   3.821   1.766   7.380
18979WAT      O57178   4.144   1.785   7.570
18979WAT     H157179   4.194   1.858   7.617
18979WAT     H257180   4.046   1.799   7.583
18980WAT      O57181   3.356   1.832   6.197
18980WAT     H157182   3.286   1.883   6.147
18980WAT     H257183   3.335   1.734   6.195
18981WAT      O57184   1.553   8.392   0.806
18981WAT     H157185   1.520   8.326   0.738
18981WAT     H257186   1.530   8.361   0.898
18982WAT      O57187   3.911   1.720   6.701
18982WAT     H157188   3.838   1.703   6.766
18982WAT     H257189   3.936   1.634   6.655
18983WAT      O57190   0.141   6.695   3.630
18983WAT     H157191   0.169   6.599   3.638
18983WAT     H257192   0.108   6.713   3.537
18984WAT      O57193   0.586   0.287   5.782
18984WAT     H157194   0.530   0.224   5.727
18984WAT     H257195   0.538   0.375   5.789
18985WAT      O57196   3.163   9.098   0.821
18985WAT     H157197   3.073   9.067   0.850
18985WAT     H257198   3.233   9.054   0.876
18986WAT      O57199   6.842   2.998   1.491
18986WAT     H157200   6.908   2.929   1.459
18986WAT     H257201   6.845   3.077   1.430
18987WAT      O57202   3.356   9.838   3.720
18987WAT     H157203   3.390   9.920   3.766
18987WAT     H257204   3.300   9.785   3.783
18988WAT      O57205   3.618   2.856   8.463
18988WAT     H157206   3.591   2.836   8.368
18988WAT     H257207   3.715   2.881   8.465
18989WAT      O57208   6.738   4.225   6.806
18989WAT     H157209   6.827   4.206   6.765
18989WAT     H257210   6.741   4.314   6.852
18990WAT      O57211   6.088   3.847   0.014
18990WAT     H157212   6.081   3.756  -0.027
18990WAT     H257213   6.170   3.893  -0.019
18991WAT      O57214   1.717   6.789   8.131
18991WAT     H157215   1.690   6.858   8.198
18991WAT     H257216   1.751   6.834   8.049
18992WAT      O57217   4.881   9.101   7.691
18992WAT     H157218   4.789   9.076   7.660
18992WAT     H257219   4.882   9.196   7.721
18993WAT      O57220   8.213   2.848   4.238
18993WAT     H157221   8.138   2.787   4.263
18993WAT     H257222   8.257   2.883   4.320
18994WAT      O57223   7.342   8.265   4.696
18994WAT     H157224   7.268   8.317   4.655
18994WAT     H257225   7.425   8.277   4.641
18995WAT      O57226   0.016   8.162   2.833
18995WAT     H157227   0.006   8.114   2.920
18995WAT     H257228   0.090   8.119   2.780
18996WAT      O57229   3.064   8.145   4.259
18996WAT     H157230   3.135   8.117   4.322
18996WAT     H257231   2.980   8.094   4.278
18997WAT      O57232   5.146   6.487   0.125
18997WAT     H157233   5.206   6.415   0.159
18997WAT     H257234   5.131   6.474   0.027
18998WAT      O57235   5.521   9.701   4.529
18998WAT     H157236   5.515   9.608   4.493
18998WAT     H257237   5.488   9.765   4.460
18999WAT      O57238   8.397   6.933   8.821
18999WAT     H157239   8.372   6.871   8.894
18999WAT     H257240   8.322   6.997   8.804
19000WAT      O57241   5.338   5.250   1.449
19000WAT     H157242   5.261   5.277   1.392
19000WAT     H257243   5.373   5.329   1.499
19001WAT      O57244   1.416   7.154   4.008
19001WAT     H157245   1.389   7.059   4.025
19001WAT     H257246   1.507   7.156   3.966
19002WAT      O57247   5.041   1.291   7.590
19002WAT     H157248   4.987   1.327   7.666
19002WAT     H257249   5.040   1.357   7.515
19003WAT      O57250   2.310   0.128   2.043
19003WAT     H157251   2.332   0.217   2.084
19003WAT     H257252   2.373   0.110   1.967
19004WAT      O57253   0.620   4.228   2.437
19004WAT     H157254   0.711   4.190   2.450
19004WAT     H257255   0.553   4.154   2.440
19005WAT      O57256   1.042   5.223   9.591
19005WAT     H157257   1.118   5.230   9.527
19005WAT     H257258   0.961   5.267   9.552
19006WAT      O57259   0.116   0.252   5.472
19006WAT     H157260   0.082   0.338   5.434
19006WAT     H257261   0.101   0.251   5.571
19007WAT      O57262   5.008   5.648   7.058
19007WAT     H157263   4.929   5.677   7.113
19007WAT     H257264   4.984   5.565   7.008
19008WAT      O57265   4.955   9.097   5.506
19008WAT     H157266   4.878   9.160   5.512
19008WAT     H257267   5.035   9.137   5.551
19009WAT      O57268   1.988   2.404   1.925
19009WAT     H157269   1.963   2.372   2.016
19009WAT     H257270   2.044   2.335   1.880
19010WAT      O57271   3.474   0.867   9.346
19010WAT     H157272   3.433   0.799   9.286
19010WAT     H257273   3.403   0.922   9.389
19011WAT      O57274   0.885   9.702   7.460
19011WAT     H157275   0.804   9.662   7.416
19011WAT     H257276   0.929   9.765   7.397
19012WAT      O57277   9.633   2.168   8.331
19012WAT     H157278   9.718   2.126   8.364
19012WAT     H257279   9.651   2.262   8.302
19013WAT      O57280   7.799   1.495   2.537
19013WAT     H157281   7.731   1.486   2.464
19013WAT     H257282   7.760   1.464   2.623
19014WAT      O57283   7.661   5.392   7.151
19014WAT     H157284   7.632   5.297   7.153
19014WAT     H257285   7.701   5.417   7.240
19015WAT      O57286   7.098   0.765   5.482
19015WAT     H157287   7.041   0.708   5.541
19015WAT     H257288   7.123   0.713   5.400
19016WAT      O57289   2.387   1.083   5.415
19016WAT     H157290   2.369   1.159   5.353
19016WAT     H257291   2.425   1.006   5.364
19017WAT      O57292   2.319   3.144   9.615
19017WAT     H157293   2.246   3.211   9.626
19017WAT     H257294   2.406   3.191   9.603
19018WAT      O57295   4.854   9.433   5.443
19018WAT     H157296   4.862   9.522   5.400
19018WAT     H257297   4.858   9.361   5.374
19019WAT      O57298   9.416   5.476   8.413
19019WAT     H157299   9.498   5.516   8.374
19019WAT     H257300   9.424   5.376   8.412
19020WAT      O57301   8.470   7.817   0.352
19020WAT     H157302   8.559   7.838   0.312
19020WAT     H257303   8.406   7.891   0.330
19021WAT      O57304   6.519   0.615   5.861
19021WAT     H157305   6.463   0.691   5.826
19021WAT     H257306   6.505   0.607   5.960
19022WAT      O57307   7.633   9.708   2.029
19022WAT     H157308   7.537   9.682   2.021
19022WAT     H257309   7.683   9.637   2.080
19023WAT      O57310   5.495   5.013   6.129
19023WAT     H157311   5.412   4.999   6.076
19023WAT     H257312   5.575   4.991   6.072
19024WAT      O57313   8.861   1.621   5.082
19024WAT     H157314   8.802   1.544   5.060
19024WAT     H257315   8.862   1.686   5.006
19025WAT      O57316   0.790   8.921   6.625
19025WAT     H157317   0.785   8.837   6.570
19025WAT     H257318   0.697   8.950   6.648
19026WAT      O57319   8.035   7.029   7.684
19026WAT     H157320   8.094   7.110   7.679
19026WAT     H257321   7.998   7.021   7.777
19027WAT      O57322   2.206   1.088   9.458
19027WAT     H157323   2.187   1.063   9.364
19027WAT     H257324   2.230   1.185   9.463
19028WAT      O57325   0.034   1.908   5.416
19028WAT     H157326   0.027   1.820   5.368
19028WAT     H257327  -0.029   1.909   5.494
19029WAT      O57328   2.713   5.724   8.591
19029WAT     H157329   2.636   5.771   8.549
19029WAT     H257330   2.799   5.764   8.559
19030WAT      O57331   5.507   3.111   9.017
19030WAT     H157332   5.515   3.024   9.066
19030WAT     H257333   5.410   3.131   9.000
19031WAT      O57334   8.373   1.527   0.487
19031WAT     H157335   8.306   1.602   0.489
19031WAT     H257336   8.421   1.528   0.399
19032WAT      O57337   1.594   3.054   5.277
19032WAT     H157338   1.572   2.968   5.231
19032WAT     H257339   1.692   3.073   5.269
19033WAT      O57340   2.472   7.889   4.138
19033WAT     H157341   2.516   7.883   4.228
19033WAT     H257342   2.394   7.950   4.143
19034WAT      O57343   5.330   4.247   3.990
19034WAT     H157344   5.259   4.307   3.952
19034WAT     H257345   5.288   4.163   4.024
19035WAT      O57346   7.284   4.371   3.969
19035WAT     H157347   7.188   4.377   3.940
19035WAT     H257348   7.342   4.353   3.890
19036WAT      O57349   5.398   3.870   5.047
19036WAT     H157350   5.458   3.938   5.089
19036WAT     H257351   5.303   3.899   5.056
19037WAT      O57352   7.564   8.178   9.336
19037WAT     H157353   7.653   8.174   9.381
19037WAT     H257354   7.536   8.086   9.308
19038WAT      O57355   7.756   5.733   8.907
19038WAT     H157356   7.681   5.796   8.924
19038WAT     H257357   7.806   5.762   8.825
19039WAT      O57358   2.773   9.680   7.136
19039WAT     H157359   2.744   9.768   7.098
19039WAT     H257360   2.800   9.618   7.062
19040WAT      O57361   4.093   1.913   8.384
19040WAT     H157362   4.099   1.820   8.346
19040WAT     H257363   4.057   1.909   8.477
19041WAT      O57364   6.677   4.812   1.665
19041WAT     H157365   6.734   4.742   1.624
19041WAT     H257366   6.604   4.770   1.718
19042WAT      O57367   6.392   9.569   1.061
19042WAT     H157368   6.353   9.512   1.133
19042WAT     H257369   6.471   9.523   1.021
19043WAT      O57370   4.787   2.569   5.995
19043WAT     H157371   4.871   2.518   6.011
19043WAT     H257372   4.746   2.594   6.083
19044WAT      O57373   4.574   7.407   2.207
19044WAT     H157374   4.506   7.457   2.153
19044WAT     H257375   4.532   7.375   2.292
19045WAT      O57376   5.473   8.086   7.153
19045WAT     H157377   5.550   8.055   7.208
19045WAT     H257378   5.486   8.182   7.127
19046WAT      O57379   5.230   4.411   3.479
19046WAT     H157380   5.329   4.418   3.465
19046WAT     H257381   5.183   4.455   3.403
19047WAT      O57382   0.950   1.100   6.289
19047WAT     H157383   0.883   1.169   6.314
19047WAT     H257384   0.972   1.109   6.192
19048WAT      O57385   1.360   8.344   0.386
19048WAT     H157386   1.423   8.322   0.312
19048WAT     H257387   1.270   8.307   0.365
19049WAT      O57388   7.571   5.371   5.704
19049WAT     H157389   7.489   5.340   5.657
19049WAT     H257390   7.578   5.326   5.793
19050WAT      O57391   6.715   0.118   0.068
19050WAT     H157392   6.692   0.033   0.020
19050WAT     H257393   6.766   0.178   0.006
19051WAT      O57394   4.377   6.869   0.348
19051WAT     H157395   4.305   6.916   0.400
19051WAT     H257396   4.345   6.778   0.322
19052WAT      O57397   4.048   5.014   2.832
19052WAT     H157398   4.135   4.978   2.867
19052WAT     H257399   3.981   5.018   2.906
19053WAT      O57400   7.568   7.958   7.506
19053WAT     H157401   7.516   7.913   7.434
19053WAT     H257402   7.658   7.914   7.514
19054WAT      O57403   7.728   4.827   1.411
19054WAT     H157404   7.794   4.841   1.485
19054WAT     H257405   7.647   4.782   1.448
19055WAT      O57406   7.226   4.394   5.238
19055WAT     H157407   7.193   4.425   5.149
19055WAT     H257408   7.150   4.361   5.293
19056WAT      O57409   3.186   2.189   3.542
19056WAT     H157410   3.161   2.097   3.570
19056WAT     H257411   3.283   2.204   3.561
19057WAT      O57412   9.432   1.814   6.508
19057WAT     H157413   9.363   1.874   6.469
19057WAT     H257414   9.411   1.795   6.604
19058WAT      O57415   8.214   8.464   3.962
19058WAT     H157416   8.265   8.533   4.013
19058WAT     H257417   8.241   8.469   3.865
19059WAT      O57418   5.791   5.987   7.118
19059WAT     H157419   5.739   6.017   7.038
19059WAT     H257420   5.747   6.023   7.201
19060WAT      O57421   4.731   9.132   5.842
19060WAT     H157422   4.755   9.182   5.759
19060WAT     H257423   4.631   9.125   5.849
19061WAT      O57424   2.272   3.014   2.806
19061WAT     H157425   2.293   3.045   2.714
19061WAT     H257426   2.355   2.975   2.848
19062WAT      O57427   0.906   2.281   9.313
19062WAT     H157428   0.889   2.223   9.233
19062WAT     H257429   0.946   2.226   9.386
19063WAT      O57430   6.758   3.230   1.869
19063WAT     H157431   6.672   3.181   1.880
19063WAT     H257432   6.781   3.278   1.954
19064WAT      O57433   9.025   8.556   6.408
19064WAT     H157434   9.047   8.640   6.359
19064WAT     H257435   9.100   8.491   6.398
19065WAT      O57436   9.124   7.185   7.374
19065WAT     H157437   9.045   7.124   7.374
19065WAT     H257438   9.093   7.279   7.383
19066WAT      O57439   3.199   6.189   0.548
19066WAT     H157440   3.245   6.220   0.465
19066WAT     H257441   3.204   6.261   0.618
19067WAT      O57442   5.231   0.591   5.316
19067WAT     H157443   5.213   0.508   5.263
19067WAT     H257444   5.264   0.565   5.407
19068WAT      O57445   3.208   1.553   2.361
19068WAT     H157446   3.286   1.530   2.419
19068WAT     H257447   3.240   1.606   2.282
19069WAT      O57448   8.004   3.571   8.437
19069WAT     H157449   7.995   3.634   8.360
19069WAT     H257450   8.094   3.583   8.480
19070WAT      O57451   2.788   6.079   3.907
19070WAT     H157452   2.827   6.066   3.998
19070WAT     H257453   2.862   6.089   3.840
19071WAT      O57454   1.736   4.424   3.746
19071WAT     H157455   1.691   4.473   3.671
19071WAT     H257456   1.829   4.400   3.719
19072WAT      O57457   2.320   5.985   4.597
19072WAT     H157458   2.336   5.888   4.578
19072WAT     H257459   2.245   5.995   4.662
19073WAT      O57460   9.027   7.549   1.610
19073WAT     H157461   9.006   7.623   1.673
19073WAT     H257462   8.946   7.491   1.597
19074WAT      O57463   7.175   4.373   0.972
19074WAT     H157464   7.244   4.443   0.953
19074WAT     H257465   7.163   4.315   0.892
19075WAT      O57466   8.094   4.476   1.461
19075WAT     H157467   8.034   4.397   1.478
19075WAT     H257468   8.056   4.557   1.506
19076WAT      O57469   3.513   5.331   1.626
19076WAT     H157470   3.572   5.362   1.551
19076WAT     H257471   3.418   5.357   1.607
19077WAT      O57472   4.057   2.246   4.338
19077WAT     H157473   3.979   2.294   4.378
19077WAT     H257474   4.125   2.230   4.409
19078WAT      O57475   1.939   8.511   9.271
19078WAT     H157476   1.951   8.582   9.341
19078WAT     H257477   1.862   8.536   9.212
19079WAT      O57478   0.245   6.159   4.879
19079WAT     H157479   0.187   6.082   4.907
19079WAT     H257480   0.247   6.165   4.780
19080WAT      O57481   1.053   1.452   4.526
19080WAT     H157482   0.955   1.440   4.546
19080WAT     H257483   1.072   1.420   4.434
19081WAT      O57484   7.941   6.032   3.012
19081WAT     H157485   7.973   6.101   2.947
19081WAT     H257486   7.852   5.997   2.982
19082WAT      O57487   7.829   4.715   3.213
19082WAT     H157488   7.803   4.806   3.247
19082WAT     H257489   7.919   4.691   3.249
19083WAT      O57490   3.597   3.440   8.609
19083WAT     H157491   3.603   3.539   8.606
19083WAT     H257492   3.665   3.400   8.546
19084WAT      O57493   9.251   6.438   7.581
19084WAT     H157494   9.299   6.459   7.666
19084WAT     H257495   9.270   6.509   7.514
19085WAT      O57496   0.372   6.582   0.653
19085WAT     H157497   0.353   6.554   0.558
19085WAT     H257498   0.398   6.501   0.706
19086WAT      O57499   8.868   0.637   8.879
19086WAT     H157500   8.831   0.721   8.918
19086WAT     H257501   8.940   0.659   8.813
19087WAT      O57502   6.376   7.361   6.413
19087WAT     H157503   6.393   7.373   6.315
19087WAT     H257504   6.279   7.341   6.428
19088WAT      O57505   2.344   6.787   9.604
19088WAT     H157506   2.250   6.813   9.584
19088WAT     H257507   2.346   6.711   9.669
19089WAT      O57508   2.401   1.439   5.882
19089WAT     H157509   2.403   1.440   5.982
19089WAT     H257510   2.386   1.532   5.849
19090WAT      O57511   2.125   4.047   9.135
19090WAT     H157512   2.062   4.107   9.184
19090WAT     H257513   2.175   4.101   9.067
19091WAT      O57514   0.885   6.099   2.809
19091WAT     H157515   0.979   6.117   2.780
19091WAT     H257516   0.859   6.164   2.880
19092WAT      O57517   1.513   2.646   3.598
19092WAT     H157518   1.490   2.559   3.642
19092WAT     H257519   1.485   2.643   3.502
19093WAT      O57520   1.903   7.937   9.347
19093WAT     H157521   1.894   7.924   9.445
19093WAT     H257522   1.874   8.029   9.321
19094WAT      O57523   8.543   1.239   5.454
19094WAT     H157524   8.532   1.144   5.484
19094WAT     H257525   8.640   1.264   5.455
19095WAT      O57526   2.498   5.104   5.551
19095WAT     H157527   2.573   5.117   5.616
19095WAT     H257528   2.468   5.193   5.517
19096WAT      O57529   4.153   8.029   3.825
19096WAT     H157530   4.160   8.112   3.770
19096WAT     H257531   4.242   8.007   3.865
19097WAT      O57532   9.398   4.418   1.879
19097WAT     H157533   9.424   4.331   1.922
19097WAT     H257534   9.434   4.421   1.786
19098WAT      O57535   2.597   0.175   2.199
19098WAT     H157536   2.684   0.204   2.237
19098WAT     H257537   2.547   0.254   2.163
19099WAT      O57538   6.553   2.676   7.573
19099WAT     H157539   6.565   2.773   7.556
19099WAT     H257540   6.642   2.634   7.592
19100WAT      O57541   0.975   1.172   7.068
19100WAT     H157542   1.015   1.261   7.088
19100WAT     H257543   0.945   1.129   7.153
19101WAT      O57544   7.229   7.324   9.255
19101WAT     H157545   7.134   7.297   9.267
19101WAT     H257546   7.285   7.244   9.233
19102WAT      O57547   6.768   6.829   5.764
19102WAT     H157548   6.701   6.761   5.793
19102WAT     H257549   6.755   6.849   5.667
19103WAT      O57550   0.068   4.213   6.558
19103WAT     H157551   0.121   4.257   6.630
19103WAT     H257552   0.118   4.132   6.525
19104WAT      O57553   8.118   8.048   6.611
19104WAT     H157554   8.090   8.112   6.683
19104WAT     H257555   8.217   8.053   6.598
19105WAT      O57556   5.719   2.397   2.082
19105WAT     H157557   5.645   2.386   2.148
19105WAT     H257558   5.789   2.459   2.119
19106WAT      O57559   3.586   8.837   8.602
19106WAT     H157560   3.652   8.901   8.564
19106WAT     H257561   3.620   8.799   8.688
19107WAT      O57562   6.457   1.908   5.895
19107WAT     H157563   6.477   2.006   5.891
19107WAT     H257564   6.376   1.893   5.952
19108WAT      O57565   5.173   0.446   2.576
19108WAT     H157566   5.080   0.481   2.563
19108WAT     H257567   5.171   0.370   2.641
19109WAT      O57568   0.502   4.755   7.212
19109WAT     H157569   0.540   4.842   7.244
19109WAT     H257570   0.501   4.690   7.288
19110WAT      O57571   4.040   3.415   0.688
19110WAT     H157572   4.134   3.380   0.689
19110WAT     H257573   4.006   3.417   0.594
19111WAT      O57574   6.149   9.571   0.794
19111WAT     H157575   6.163   9.476   0.821
19111WAT     H257576   6.154   9.630   0.875
19112WAT      O57577   1.326   1.486   4.891
19112WAT     H157578   1.231   1.512   4.878
19112WAT     H257579   1.373   1.484   4.803
19113WAT      O57580   1.731   5.681   7.368
19113WAT     H157581   1.715   5.763   7.421
19113WAT     H257582   1.679   5.686   7.282
19114WAT      O57583   4.224   1.690   2.284
19114WAT     H157584   4.321   1.691   2.311
19114WAT     H257585   4.185   1.600   2.305
19115WAT      O57586   9.469   1.857   7.836
19115WAT     H157587   9.436   1.812   7.754
19115WAT     H257588   9.434   1.809   7.917
19116WAT      O57589   0.746   4.471   4.212
19116WAT     H157590   0.790   4.560   4.196
19116WAT     H257591   0.683   4.451   4.137
19117WAT      O57592   5.541   7.331   7.621
19117WAT     H157593   5.474   7.271   7.665
19117WAT     H257594   5.493   7.402   7.570
19118WAT      O57595   6.878   4.847   0.584
19118WAT     H157596   6.799   4.885   0.632
19118WAT     H257597   6.870   4.747   0.581
19119WAT      O57598   5.659   0.074   7.096
19119WAT     H157599   5.663   0.050   6.999
19119WAT     H257600   5.576   0.126   7.114
19120WAT      O57601   0.127   6.049   7.552
19120WAT     H157602   0.115   6.137   7.597
19120WAT     H257603   0.164   6.063   7.460
19121WAT      O57604   9.477   4.143   1.587
19121WAT     H157605   9.526   4.189   1.513
19121WAT     H257606   9.539   4.079   1.634
19122WAT      O57607   0.060   1.909   9.513
19122WAT     H157608   0.017   1.917   9.422
19122WAT     H257609   0.020   1.832   9.561
19123WAT      O57610   0.823   0.612   6.605
19123WAT     H157611   0.899   0.614   6.669
19123WAT     H257612   0.812   0.702   6.564
19124WAT      O57613   0.977   6.752   4.122
19124WAT     H157614   0.967   6.811   4.202
19124WAT     H257615   1.013   6.805   4.045
19125WAT      O57616   7.220   4.069   7.053
19125WAT     H157617   7.301   4.127   7.059
19125WAT     H257618   7.159   4.104   6.982
19126WAT      O57619   3.624   9.281   9.469
19126WAT     H157620   3.546   9.340   9.444
19126WAT     H257621   3.624   9.200   9.410
19127WAT      O57622   3.600   7.016   5.565
19127WAT     H157623   3.540   7.061   5.498
19127WAT     H257624   3.559   6.929   5.593
19128WAT      O57625   1.862   2.367   8.429
19128WAT     H157626   1.948   2.336   8.472
19128WAT     H257627   1.865   2.346   8.331
19129WAT      O57628   1.275   6.826   8.145
19129WAT     H157629   1.361   6.811   8.095
19129WAT     H257630   1.219   6.744   8.139
19130WAT      O57631   2.389   2.907   1.014
19130WAT     H157632   2.356   2.928   0.922
19130WAT     H257633   2.370   2.811   1.036
19131WAT      O57634   6.422   0.577   7.855
19131WAT     H157635   6.391   0.482   7.851
19131WAT     H257636   6.479   0.597   7.775
19132WAT      O57637   3.634   6.349   3.072
19132WAT     H157638   3.611   6.253   3.088
19132WAT     H257639   3.669   6.360   2.979
19133WAT      O57640   8.410   1.437   5.552
19133WAT     H157641   8.456   1.487   5.625
19133WAT     H257642   8.465   1.358   5.525
19134WAT      O57643   4.758   8.037   9.822
19134WAT     H157644   4.806   8.059   9.907
19134WAT     H257645   4.680   8.099   9.811
19135WAT      O57646   6.387   9.543   7.946
19135WAT     H157647   6.298   9.585   7.964
19135WAT     H257648   6.374   9.446   7.926
19136WAT      O57649   7.058   6.954   8.621
19136WAT     H157650   7.008   6.924   8.702
19136WAT     H257651   7.052   7.054   8.614
19137WAT      O57652   7.118   1.532   2.994
19137WAT     H157653   7.067   1.514   2.910
19137WAT     H257654   7.054   1.566   3.064
19138WAT      O57655   1.677   6.031   7.005
19138WAT     H157656   1.601   5.966   7.000
19138WAT     H257657   1.752   5.998   6.949
19139WAT      O57658   1.835   3.348   5.426
19139WAT     H157659   1.791   3.379   5.510
19139WAT     H257660   1.916   3.403   5.407
19140WAT      O57661   2.832   5.495   7.634
19140WAT     H157662   2.761   5.445   7.683
19140WAT     H257663   2.922   5.460   7.659
19141WAT      O57664   1.801   3.103   1.887
19141WAT     H157665   1.764   3.027   1.941
19141WAT     H257666   1.759   3.189   1.917
19142WAT      O57667   1.005   1.793   4.547
19142WAT     H157668   0.922   1.737   4.543
19142WAT     H257669   1.085   1.735   4.535
19143WAT      O57670   5.827   8.448   1.083
19143WAT     H157671   5.912   8.484   1.043
19143WAT     H257672   5.829   8.460   1.182
19144WAT      O57673   0.875   3.971   8.964
19144WAT     H157674   0.790   3.965   8.912
19144WAT     H257675   0.950   3.997   8.903
19145WAT      O57676   5.917   4.410   1.103
19145WAT     H157677   5.860   4.342   1.149
19145WAT     H257678   5.977   4.454   1.170
19146WAT      O57679   8.718   4.477   5.039
19146WAT     H157680   8.672   4.562   5.015
19146WAT     H257681   8.807   4.473   4.993
19147WAT      O57682   5.743   9.143   8.159
19147WAT     H157683   5.647   9.162   8.139
19147WAT     H257684   5.796   9.227   8.148
19148WAT      O57685   7.083   7.150   6.866
19148WAT     H157686   7.033   7.180   6.785
19148WAT     H257687   7.147   7.077   6.841
19149WAT      O57688   4.277   8.576   2.970
19149WAT     H157689   4.250   8.598   3.064
19149WAT     H257690   4.226   8.634   2.906
19150WAT      O57691   7.722   4.631   2.688
19150WAT     H157692   7.681   4.722   2.685
19150WAT     H257693   7.791   4.627   2.761
19151WAT      O57694   3.633   9.817   5.680
19151WAT     H157695   3.720   9.797   5.634
19151WAT     H257696   3.636   9.780   5.773
19152WAT      O57697   2.381   0.460   9.743
19152WAT     H157698   2.360   0.553   9.772
19152WAT     H257699   2.299   0.403   9.751
19153WAT      O57700   5.455   5.538   0.445
19153WAT     H157701   5.500   5.514   0.531
19153WAT     H257702   5.373   5.593   0.465
19154WAT      O57703   6.680   0.681   8.623
19154WAT     H157704   6.776   0.695   8.645
19154WAT     H257705   6.640   0.616   8.688
19155WAT      O57706   7.851   9.027   2.571
19155WAT     H157707   7.817   9.096   2.635
19155WAT     H257708   7.900   9.072   2.497
19156WAT      O57709   7.107   3.531   4.208
19156WAT     H157710   7.024   3.573   4.242
19156WAT     H257711   7.126   3.565   4.116
19157WAT      O57712   0.600   9.473   2.684
19157WAT     H157713   0.539   9.545   2.718
19157WAT     H257714   0.603   9.477   2.584
19158WAT      O57715   1.580   9.633   0.953
19158WAT     H157716   1.606   9.705   1.017
19158WAT     H257717   1.637   9.552   0.969
19159WAT      O57718   8.290   9.307   3.569
19159WAT     H157719   8.302   9.354   3.482
19159WAT     H257720   8.294   9.208   3.555
19160WAT      O57721   8.415   6.244   8.178
19160WAT     H157722   8.359   6.178   8.128
19160WAT     H257723   8.459   6.199   8.256
19161WAT      O57724   0.463   9.777   3.284
19161WAT     H157725   0.377   9.727   3.284
19161WAT     H257726   0.502   9.777   3.192
19162WAT      O57727   4.074   5.628   3.235
19162WAT     H157728   4.079   5.717   3.189
19162WAT     H257729   4.152   5.572   3.207
19163WAT      O57730   8.167   5.717   4.283
19163WAT     H157731   8.205   5.648   4.221
19163WAT     H257732   8.078   5.747   4.249
19164WAT      O57733   7.629   9.668   7.765
19164WAT     H157734   7.612   9.753   7.715
19164WAT     H257735   7.542   9.623   7.784
19165WAT      O57736   8.455   9.722   4.399
19165WAT     H157737   8.534   9.779   4.420
19165WAT     H257738   8.374   9.761   4.442
19166WAT      O57739   6.420   8.599   2.640
19166WAT     H157740   6.371   8.567   2.721
19166WAT     H257741   6.358   8.600   2.561
19167WAT      O57742   3.327   0.565   9.337
19167WAT     H157743   3.390   0.490   9.316
19167WAT     H257744   3.271   0.586   9.257
19168WAT      O57745   2.459   1.120   0.755
19168WAT     H157746   2.522   1.190   0.723
19168WAT     H257747   2.383   1.163   0.804
19169WAT      O57748   4.967   4.849   4.319
19169WAT     H157749   4.910   4.769   4.337
19169WAT     H257750   4.918   4.931   4.348
19170WAT      O57751   6.695   9.292   4.950
19170WAT     H157752   6.600   9.263   4.964
19170WAT     H257753   6.709   9.380   4.997
19171WAT      O57754   8.653   4.843   6.451
19171WAT     H157755   8.619   4.858   6.544
19171WAT     H257756   8.576   4.845   6.387
19172WAT      O57757   6.750   8.878   5.896
19172WAT     H157758   6.748   8.834   5.986
19172WAT     H257759   6.698   8.823   5.830
19173WAT      O57760   7.900   6.725   9.508
19173WAT     H157761   7.920   6.628   9.522
19173WAT     H257762   7.986   6.776   9.505
19174WAT      O57763   5.602   3.379   6.043
19174WAT     H157764   5.536   3.375   5.968
19174WAT     H257765   5.609   3.473   6.076
19175WAT      O57766   3.628   7.701   8.208
19175WAT     H157767   3.601   7.729   8.117
19175WAT     H257768   3.552   7.716   8.272
19176WAT      O57769   6.568   9.605   6.691
19176WAT     H157770   6.548   9.627   6.786
19176WAT     H257771   6.484   9.615   6.636
19177WAT      O57772   4.814   8.242   3.104
19177WAT     H157773   4.768   8.176   3.164
19177WAT     H257774   4.912   8.225   3.104
19178WAT      O57775   5.019   9.397   1.758
19178WAT     H157776   5.018   9.341   1.675
19178WAT     H257777   5.017   9.494   1.733
19179WAT      O57778   7.414   5.129   2.430
19179WAT     H157779   7.372   5.198   2.489
19179WAT     H257780   7.359   5.046   2.430
19180WAT      O57781   3.317   9.375   6.192
19180WAT     H157782   3.297   9.385   6.094
19180WAT     H257783   3.277   9.451   6.242
19181WAT      O57784   0.785   9.428   4.936
19181WAT     H157785   0.737   9.351   4.977
19181WAT     H257786   0.880   9.402   4.917
19182WAT      O57787   1.395   0.353   1.838
19182WAT     H157788   1.411   0.358   1.937
19182WAT     H257789   1.473   0.391   1.790
19183WAT      O57790   2.360   7.708   8.524
19183WAT     H157791   2.381   7.774   8.596
19183WAT     H257792   2.439   7.648   8.510
19184WAT      O57793   5.188   1.476   5.766
19184WAT     H157794   5.110   1.537   5.751
19184WAT     H257795   5.253   1.486   5.690
19185WAT      O57796   2.543   9.636   7.328
19185WAT     H157797   2.617   9.664   7.267
19185WAT     H257798   2.543   9.536   7.337
19186WAT      O57799   9.241   1.909   5.004
19186WAT     H157800   9.293   1.921   4.920
19186WAT     H257801   9.236   1.812   5.028
19187WAT      O57802   3.678   5.111   6.655
19187WAT     H157803   3.586   5.133   6.690
19187WAT     H257804   3.687   5.012   6.647
19188WAT      O57805   3.761   9.438   4.300
19188WAT     H157806   3.853   9.409   4.329
19188WAT     H257807   3.756   9.538   4.299
19189WAT      O57808   4.176   2.662   7.879
19189WAT     H157809   4.097   2.609   7.850
19189WAT     H257810   4.176   2.750   7.831
19190WAT      O57811   7.863   3.600   1.246
19190WAT     H157812   7.865   3.564   1.340
19190WAT     H257813   7.803   3.544   1.190
19191WAT      O57814   5.475   9.258   8.076
19191WAT     H157815   5.483   9.284   8.172
19191WAT     H257816   5.475   9.158   8.068
19192WAT      O57817   6.598   8.994   9.870
19192WAT     H157818   6.549   9.081   9.860
19192WAT     H257819   6.684   8.999   9.819
19193WAT      O57820   0.730   3.062   2.703
19193WAT     H157821   0.660   3.019   2.646
19193WAT     H257822   0.689   3.096   2.787
19194WAT      O57823   5.582   2.594   2.397
19194WAT     H157824   5.512   2.599   2.468
19194WAT     H257825   5.566   2.513   2.340
19195WAT      O57826   2.075   0.728   8.390
19195WAT     H157827   2.113   0.821   8.383
19195WAT     H257828   2.056   0.693   8.299
19196WAT      O57829   4.863   2.132   7.926
19196WAT     H157830   4.800   2.188   7.979
19196WAT     H257831   4.830   2.038   7.924
19197WAT      O57832   2.580   0.899   5.812
19197WAT     H157833   2.517   0.953   5.756
19197WAT     H257834   2.587   0.940   5.903
19198WAT      O57835   6.095   5.684   8.622
19198WAT     H157836   6.133   5.594   8.645
19198WAT     H257837   6.014   5.672   8.564
19199WAT      O57838   5.829   0.041   6.519
19199WAT     H157839   5.864   0.040   6.425
19199WAT     H257840   5.829   0.135   6.553
19200WAT      O57841   2.108   8.821   4.357
19200WAT     H157842   2.047   8.834   4.435
19200WAT     H257843   2.119   8.909   4.309
19201WAT      O57844   6.433   5.623   2.962
19201WAT     H157845   6.366   5.648   3.032
19201WAT     H257846   6.441   5.524   2.956
19202WAT      O57847   5.789   5.733   3.112
19202WAT     H157848   5.864   5.707   3.051
19202WAT     H257849   5.732   5.654   3.131
19203WAT      O57850   0.740   5.842   5.591
19203WAT     H157851   0.715   5.863   5.496
19203WAT     H257852   0.838   5.858   5.603
19204WAT      O57853   2.472   7.736   6.598
19204WAT     H157854   2.544   7.676   6.633
19204WAT     H257855   2.495   7.763   6.504
19205WAT      O57856   4.116   7.396   4.140
19205WAT     H157857   4.059   7.420   4.219
19205WAT     H257858   4.162   7.309   4.158
19206WAT      O57859   1.178   0.819   7.711
19206WAT     H157860   1.256   0.757   7.723
19206WAT     H257861   1.196   0.904   7.760
19207WAT      O57862   8.968   9.506   0.187
19207WAT     H157863   9.011   9.593   0.212
19207WAT     H257864   9.033   9.450   0.137
19208WAT      O57865   0.940   6.746   1.670
19208WAT     H157866   0.865   6.811   1.659
19208WAT     H257867   0.969   6.745   1.766
19209WAT      O57868   5.783   9.047   7.279
19209WAT     H157869   5.876   9.061   7.314
19209WAT     H257870   5.787   9.026   7.182
19210WAT      O57871   2.465   7.732   0.263
19210WAT     H157872   2.387   7.781   0.302
19210WAT     H257873   2.550   7.767   0.303
19211WAT      O57874   8.349   8.767   9.412
19211WAT     H157875   8.366   8.777   9.314
19211WAT     H257876   8.435   8.772   9.462
19212WAT      O57877   5.814   9.094   3.057
19212WAT     H157878   5.886   9.054   3.000
19212WAT     H257879   5.825   9.193   3.060
19213WAT      O57880   7.837   7.430   2.459
19213WAT     H157881   7.853   7.475   2.547
19213WAT     H257882   7.775   7.485   2.404
19214WAT      O57883   2.914   4.997   1.148
19214WAT     H157884   2.995   4.944   1.124
19214WAT     H257885   2.936   5.095   1.144
19215WAT      O57886   3.952   5.603   0.849
19215WAT     H157887   4.039   5.653   0.843
19215WAT     H257888   3.881   5.654   0.801
19216WAT      O57889   6.551   4.955   2.954
19216WAT     H157890   6.576   5.051   2.951
19216WAT     H257891   6.548   4.924   3.049
19217WAT      O57892   5.982   0.179   8.779
19217WAT     H157893   5.907   0.200   8.716
19217WAT     H257894   5.979   0.082   8.803
19218WAT      O57895   0.771   0.176   9.149
19218WAT     H157896   0.711   0.235   9.094
19218WAT     H257897   0.793   0.094   9.096
19219WAT      O57898   3.639   5.082   5.405
19219WAT     H157899   3.581   5.041   5.476
19219WAT     H257900   3.678   5.167   5.439
19220WAT      O57901   6.664   7.668   4.703
19220WAT     H157902   6.696   7.594   4.763
19220WAT     H257903   6.566   7.660   4.690
19221WAT      O57904   7.569   7.006   1.468
19221WAT     H157905   7.559   7.081   1.404
19221WAT     H257906   7.512   6.929   1.440
19222WAT      O57907   8.056   5.226   0.884
19222WAT     H157908   8.071   5.127   0.884
19222WAT     H257909   8.137   5.272   0.847
19223WAT      O57910   2.648   8.780   7.323
19223WAT     H157911   2.688   8.703   7.373
19223WAT     H257912   2.716   8.853   7.315
19224WAT      O57913   8.353   0.383   1.669
19224WAT     H157914   8.416   0.419   1.737
19224WAT     H257915   8.392   0.299   1.629
19225WAT      O57916   9.720   7.509   9.218
19225WAT     H157917   9.753   7.422   9.255
19225WAT     H257918   9.782   7.540   9.145
19226WAT      O57919   9.181   8.913   5.041
19226WAT     H157920   9.278   8.891   5.034
19226WAT     H257921   9.171   9.000   5.090
19227WAT      O57922   4.017   4.678   2.421
19227WAT     H157923   3.996   4.767   2.460
19227WAT     H257924   4.017   4.609   2.494
19228WAT      O57925   7.596   6.567   5.492
19228WAT     H157926   7.513   6.530   5.536
19228WAT     H257927   7.591   6.667   5.492
19229WAT      O57928   7.929   0.716   4.475
19229WAT     H157929   7.837   0.753   4.489
19229WAT     H257930   7.930   0.619   4.500
19230WAT      O57931   2.142   7.508   2.870
19230WAT     H157932   2.211   7.443   2.902
19230WAT     H257933   2.161   7.598   2.907
19231WAT      O57934   5.758   1.058   5.523
19231WAT     H157935   5.809   0.986   5.570
19231WAT     H257936   5.664   1.059   5.555
19232WAT      O57937   5.954   1.199   6.086
19232WAT     H157938   5.984   1.186   5.992
19232WAT     H257939   6.033   1.194   6.147
19233WAT      O57940   6.747   2.102   5.376
19233WAT     H157941   6.678   2.079   5.308
19233WAT     H257942   6.730   2.194   5.411
19234WAT      O57943   7.095   2.216   4.125
19234WAT     H157944   7.182   2.174   4.152
19234WAT     H257945   7.100   2.248   4.031
19235WAT      O57946   3.793   6.803   0.447
19235WAT     H157947   3.763   6.898   0.463
19235WAT     H257948   3.835   6.767   0.530
19236WAT      O57949   3.440   6.243   6.713
19236WAT     H157950   3.508   6.179   6.679
19236WAT     H257951   3.351   6.198   6.717
19237WAT      O57952   7.752   5.771   2.583
19237WAT     H157953   7.728   5.868   2.586
19237WAT     H257954   7.852   5.762   2.582
19238WAT      O57955   9.415   0.833   9.234
19238WAT     H157956   9.354   0.796   9.164
19238WAT     H257957   9.368   0.906   9.284
19239WAT      O57958   1.463   2.863   1.676
19239WAT     H157959   1.450   2.949   1.724
19239WAT     H257960   1.526   2.805   1.727
19240WAT      O57961   5.563   1.428   3.675
19240WAT     H157962   5.576   1.329   3.677
19240WAT     H257963   5.648   1.473   3.703
19241WAT      O57964   4.473   5.633   1.730
19241WAT     H157965   4.450   5.689   1.810
19241WAT     H257966   4.458   5.686   1.647
19242WAT      O57967   5.242   1.790   4.527
19242WAT     H157968   5.186   1.722   4.573
19242WAT     H257969   5.289   1.846   4.594
19243WAT      O57970   0.406   6.227   3.073
19243WAT     H157971   0.443   6.320   3.073
19243WAT     H257972   0.306   6.230   3.075
19244WAT      O57973   9.402   0.765   7.708
19244WAT     H157974   9.426   0.788   7.614
19244WAT     H257975   9.407   0.666   7.722
19245WAT      O57976   0.450   7.351   3.890
19245WAT     H157977   0.351   7.338   3.894
19245WAT     H257978   0.491   7.321   3.976
19246WAT      O57979   8.044   9.783   6.208
19246WAT     H157980   8.073   9.826   6.123
19246WAT     H257981   7.949   9.752   6.199
19247WAT      O57982   3.495   1.092   7.043
19247WAT     H157983   3.444   1.175   7.065
19247WAT     H257984   3.587   1.097   7.082
19248WAT      O57985   6.201   6.264   5.064
19248WAT     H157986   6.254   6.343   5.094
19248WAT     H257987   6.239   6.229   4.978
19249WAT      O57988   8.999   7.016   7.845
19249WAT     H157989   9.044   7.036   7.932
19249WAT     H257990   9.028   7.083   7.776
19250WAT      O57991   5.197   6.710   1.536
19250WAT     H157992   5.279   6.756   1.570
19250WAT     H257993   5.220   6.655   1.455
19251WAT      O57994   0.719   2.982   9.781
19251WAT     H157995   0.721   3.072   9.736
19251WAT     H257996   0.673   2.916   9.721
19252WAT      O57997   8.408   5.218   1.050
19252WAT     H157998   8.338   5.239   0.982
19252WAT     H257999   8.423   5.298   1.109
19253WAT      O58000   7.172   1.641   7.888
19253WAT     H158001   7.101   1.705   7.916
19253WAT     H258002   7.239   1.630   7.962
19254WAT      O58003   5.870   6.686   3.793
19254WAT     H158004   5.890   6.600   3.840
19254WAT     H258005   5.947   6.748   3.804
19255WAT      O58006   0.765   9.111   4.732
19255WAT     H158007   0.856   9.082   4.762
19255WAT     H258008   0.774   9.183   4.663
19256WAT      O58009   0.392   8.173   1.606
19256WAT     H158010   0.442   8.087   1.621
19256WAT     H258011   0.305   8.169   1.655
19257WAT      O58012   5.806   4.261   4.614
19257WAT     H158013   5.887   4.221   4.656
19257WAT     H258014   5.739   4.189   4.594
19258WAT      O58015   1.951   1.380   4.370
19258WAT     H158016   1.931   1.397   4.274
19258WAT     H258017   1.982   1.464   4.413
19259WAT      O58018   4.271   6.755   8.791
19259WAT     H158019   4.354   6.810   8.802
19259WAT     H258020   4.195   6.814   8.762
19260WAT      O58021   9.309   3.183   7.689
19260WAT     H158022   9.221   3.148   7.656
19260WAT     H258023   9.300   3.210   7.785
19261WAT      O58024   8.412   5.941   5.946
19261WAT     H158025   8.410   5.956   5.847
19261WAT     H258026   8.502   5.964   5.982
19262WAT      O58027   5.964   6.676   6.663
19262WAT     H158028   6.022   6.754   6.640
19262WAT     H258029   6.013   6.615   6.725
19263WAT      O58030   9.820   3.459   6.308
19263WAT     H158031   9.747   3.525   6.288
19263WAT     H258032   9.825   3.392   6.233
19264WAT      O58033   2.844   1.936   6.876
19264WAT     H158034   2.914   2.002   6.906
19264WAT     H258035   2.835   1.941   6.776
19265WAT      O58036   5.661   5.800   9.550
19265WAT     H158037   5.715   5.720   9.524
19265WAT     H258038   5.593   5.774   9.618
19266WAT      O58039   5.080   6.469   1.831
19266WAT     H158040   5.071   6.423   1.743
19266WAT     H258041   5.096   6.567   1.816
19267WAT      O58042   6.703   8.989   4.161
19267WAT     H158043   6.725   9.024   4.252
19267WAT     H258044   6.604   8.986   4.149
19268WAT      O58045   9.880   3.938   0.808
19268WAT     H158046   9.824   3.943   0.891
19268WAT     H258047   9.839   3.873   0.745
19269WAT      O58048   9.600   7.311   4.411
19269WAT     H158049   9.600   7.311   4.311
19269WAT     H258050   9.672   7.372   4.445
19270WAT      O58051   2.302   4.537   9.816
19270WAT     H158052   2.391   4.552   9.860
19270WAT     H258053   2.229   4.554   9.883
19271WAT      O58054   1.858   5.574   9.814
19271WAT     H158055   1.942   5.627   9.805
19271WAT     H258056   1.858   5.526   9.901
19272WAT      O58057   9.634   8.430   3.898
19272WAT     H158058   9.663   8.448   3.804
19272WAT     H258059   9.700   8.469   3.962
19273WAT      O58060   2.372   0.466   6.164
19273WAT     H158061   2.433   0.545   6.152
19273WAT     H258062   2.298   0.491   6.227
19274WAT      O58063   2.902   3.026   5.086
19274WAT     H158064   2.967   3.037   5.010
19274WAT     H258065   2.816   3.070   5.062
19275WAT      O58066   9.105   1.940   1.990
19275WAT     H158067   9.012   1.948   1.953
19275WAT     H258068   9.106   1.873   2.064
19276WAT      O58069   8.237   0.826   7.138
19276WAT     H158070   8.238   0.913   7.188
19276WAT     H258071   8.159   0.825   7.074
19277WAT      O58072   6.543   7.881   8.858
19277WAT     H158073   6.626   7.865   8.912
19277WAT     H258074   6.567   7.934   8.776
19278WAT      O58075   1.268   2.211   8.739
19278WAT     H158076   1.332   2.135   8.725
19278WAT     H258077   1.296   2.288   8.682
19279WAT      O58078   0.372   5.494   3.650
19279WAT     H158079   0.415   5.409   3.618
19279WAT     H258080   0.391   5.567   3.585
19280WAT      O58081   8.156   6.317   1.668
19280WAT     H158082   8.078   6.336   1.728
19280WAT     H258083   8.179   6.220   1.673
19281WAT      O58084   9.351   2.576   2.311
19281WAT     H158085   9.371   2.673   2.294
19281WAT     H258086   9.427   2.534   2.361
19282WAT      O58087   7.496   6.940   6.079
19282WAT     H158088   7.425   6.902   6.021
19282WAT     H258089   7.457   7.015   6.133
19283WAT      O58090   3.812   5.827   7.243
19283WAT     H158091   3.834   5.884   7.164
19283WAT     H258092   3.821   5.731   7.218
19284WAT      O58093   2.382   6.891   3.793
19284WAT     H158094   2.344   6.799   3.786
19284WAT     H258095   2.455   6.891   3.861
19285WAT      O58096   5.381   5.862   9.052
19285WAT     H158097   5.321   5.810   9.113
19285WAT     H258098   5.363   5.959   9.063
19286WAT      O58099   7.094   2.875   3.065
19286WAT     H158100   7.180   2.824   3.074
19286WAT     H258101   7.111   2.972   3.082
19287WAT      O58102   6.454   2.275   2.100
19287WAT     H158103   6.471   2.179   2.075
19287WAT     H258104   6.407   2.320   2.026
19288WAT      O58105   4.693   4.952   7.682
19288WAT     H158106   4.627   5.025   7.665
19288WAT     H258107   4.780   4.991   7.713
19289WAT      O58108   1.038   9.242   8.627
19289WAT     H158109   1.132   9.274   8.612
19289WAT     H258110   1.030   9.147   8.596
19290WAT      O58111   6.177   5.727   1.407
19290WAT     H158112   6.147   5.635   1.381
19290WAT     H258113   6.226   5.722   1.494
19291WAT      O58114   7.822   9.282   1.707
19291WAT     H158115   7.755   9.266   1.779
19291WAT     H258116   7.843   9.196   1.662
19292WAT      O58117   6.680   5.057   1.521
19292WAT     H158118   6.588   5.093   1.536
19292WAT     H258119   6.690   4.970   1.568
19293WAT      O58120   5.884   1.519   4.476
19293WAT     H158121   5.970   1.535   4.526
19293WAT     H258122   5.898   1.446   4.410
19294WAT      O58123   3.275   8.051   2.476
19294WAT     H158124   3.273   7.965   2.425
19294WAT     H258125   3.206   8.113   2.439
19295WAT      O58126   9.129   3.846   1.550
19295WAT     H158127   9.169   3.915   1.610
19295WAT     H258128   9.092   3.771   1.604
19296WAT      O58129   6.774   5.450   0.123
19296WAT     H158130   6.763   5.548   0.134
19296WAT     H258131   6.871   5.429   0.108
19297WAT      O58132   9.029   6.271   1.607
19297WAT     H158133   9.050   6.368   1.602
19297WAT     H258134   9.064   6.224   1.527
19298WAT      O58135   3.675   7.702   6.256
19298WAT     H158136   3.599   7.768   6.255
19298WAT     H258137   3.708   7.690   6.349
19299WAT      O58138   0.824   7.612   0.177
19299WAT     H158139   0.754   7.541   0.160
19299WAT     H258140   0.792   7.672   0.250
19300WAT      O58141   2.439   1.910   7.186
19300WAT     H158142   2.380   1.966   7.243
19300WAT     H258143   2.479   1.966   7.113
19301WAT      O58144   1.505   0.163   8.769
19301WAT     H158145   1.437   0.114   8.825
19301WAT     H258146   1.589   0.109   8.764
19302WAT      O58147   5.089   4.713   0.103
19302WAT     H158148   5.187   4.730   0.110
19302WAT     H258149   5.044   4.745   0.186
19303WAT      O58150   1.766   9.407   6.922
19303WAT     H158151   1.719   9.407   6.834
19303WAT     H258152   1.863   9.388   6.909
19304WAT      O58153   6.492   6.756   0.859
19304WAT     H158154   6.439   6.676   0.888
19304WAT     H258155   6.478   6.830   0.924
19305WAT      O58156   0.891   2.261   7.226
19305WAT     H158157   0.888   2.343   7.168
19305WAT     H258158   0.947   2.279   7.307
19306WAT      O58159   7.767   0.008   8.603
19306WAT     H158160   7.706   0.053   8.537
19306WAT     H258161   7.744  -0.089   8.609
19307WAT      O58162   7.400   3.772   6.860
19307WAT     H158163   7.443   3.849   6.812
19307WAT     H258164   7.463   3.695   6.862
19308WAT      O58165   4.739   6.107   6.727
19308WAT     H158166   4.685   6.162   6.791
19308WAT     H258167   4.678   6.050   6.672
19309WAT      O58168   2.331   0.241   4.620
19309WAT     H158169   2.294   0.181   4.548
19309WAT     H258170   2.388   0.312   4.579
19310WAT      O58171   2.888   8.929   0.172
19310WAT     H158172   2.913   8.843   0.216
19310WAT     H258173   2.874   8.914   0.074
19311WAT      O58174   3.766   5.228   6.369
19311WAT     H158175   3.750   5.206   6.466
19311WAT     H258176   3.712   5.166   6.312
19312WAT      O58177   4.717   5.318   1.056
19312WAT     H158178   4.789   5.308   0.987
19312WAT     H258179   4.633   5.274   1.024
19313WAT      O58180   4.584   4.103   6.969
19313WAT     H158181   4.633   4.081   6.885
19313WAT     H258182   4.518   4.176   6.951
19314WAT      O58183   6.097   3.932   1.283
19314WAT     H158184   6.179   3.983   1.309
19314WAT     H258185   6.114   3.834   1.292
19315WAT      O58186   7.471   3.099   1.367
19315WAT     H158187   7.439   3.100   1.272
19315WAT     H258188   7.489   3.005   1.395
19316WAT      O58189   1.309   6.831   3.163
19316WAT     H158190   1.311   6.732   3.180
19316WAT     H258191   1.308   6.879   3.250
19317WAT      O58192   7.792   6.968   0.229
19317WAT     H158193   7.775   7.019   0.144
19317WAT     H258194   7.745   6.880   0.225
19318WAT      O58195   1.613   0.819   4.399
19318WAT     H158196   1.535   0.835   4.339
19318WAT     H258197   1.691   0.875   4.369
19319WAT      O58198   6.763   0.892   3.635
19319WAT     H158199   6.834   0.838   3.682
19319WAT     H258200   6.677   0.884   3.685
19320WAT      O58201   1.246   9.060   4.989
19320WAT     H158202   1.318   9.115   4.946
19320WAT     H258203   1.230   9.093   5.082
19321WAT      O58204   8.082   5.139   0.126
19321WAT     H158205   8.008   5.085   0.085
19321WAT     H258206   8.138   5.080   0.184
19322WAT      O58207   0.876   1.124   2.912
19322WAT     H158208   0.828   1.058   2.855
19322WAT     H258209   0.814   1.159   2.982
19323WAT      O58210   7.933   0.014   3.268
19323WAT     H158211   7.899   0.057   3.185
19323WAT     H258212   7.957   0.085   3.335
19324WAT      O58213   4.390   0.263   3.984
19324WAT     H158214   4.366   0.329   4.055
19324WAT     H258215   4.454   0.196   4.022
19325WAT      O58216   4.331   4.838   7.385
19325WAT     H158217   4.271   4.766   7.420
19325WAT     H258218   4.277   4.907   7.336
19326WAT      O58219   9.486   7.554   3.206
19326WAT     H158220   9.461   7.511   3.119
19326WAT     H258221   9.535   7.639   3.188
19327WAT      O58222   3.757   1.322   0.107
19327WAT     H158223   3.760   1.408   0.057
19327WAT     H258224   3.745   1.246   0.043
19328WAT      O58225   4.010   2.344   9.179
19328WAT     H158226   4.007   2.275   9.106
19328WAT     H258227   3.964   2.427   9.148
19329WAT      O58228   9.210   3.789   4.723
19329WAT     H158229   9.119   3.831   4.727
19329WAT     H258230   9.259   3.808   4.808
19330WAT      O58231   4.998   9.019   3.108
19330WAT     H158232   5.011   8.966   3.024
19330WAT     H258233   5.084   9.064   3.132
19331WAT      O58234   0.718   6.682   3.046
19331WAT     H158235   0.805   6.652   3.006
19331WAT     H258236   0.732   6.765   3.099
19332WAT      O58237   0.719   0.682   8.565
19332WAT     H158238   0.775   0.658   8.644
19332WAT     H258239   0.635   0.628   8.566
19333WAT      O58240   1.878   3.561   7.886
19333WAT     H158241   1.924   3.648   7.900
19333WAT     H258242   1.795   3.557   7.941
19334WAT      O58243   2.046   2.416   9.852
19334WAT     H158244   1.962   2.445   9.805
19334WAT     H258245   2.033   2.325   9.891
19335WAT      O58246   2.935   4.771   7.866
19335WAT     H158247   2.957   4.751   7.961
19335WAT     H258248   2.955   4.866   7.846
19336WAT      O58249   4.574   2.844   8.425
19336WAT     H158250   4.554   2.835   8.327
19336WAT     H258251   4.490   2.865   8.474
19337WAT      O58252   6.764   9.235   5.337
19337WAT     H158253   6.675   9.263   5.370
19337WAT     H258254   6.820   9.316   5.317
19338WAT      O58255   9.268   2.260   8.750
19338WAT     H158256   9.330   2.261   8.829
19338WAT     H258257   9.322   2.247   8.666
19339WAT      O58258   2.214   5.223   2.602
19339WAT     H158259   2.311   5.245   2.588
19339WAT     H258260   2.158   5.276   2.538
19340WAT      O58261   8.182   6.015   6.847
19340WAT     H158262   8.207   5.949   6.776
19340WAT     H258263   8.083   6.009   6.865
19341WAT      O58264   6.545   7.141   8.915
19341WAT     H158265   6.520   7.129   9.011
19341WAT     H258266   6.535   7.237   8.890
19342WAT      O58267   7.941   2.408   1.598
19342WAT     H158268   7.850   2.424   1.559
19342WAT     H258269   7.947   2.451   1.688
19343WAT      O58270   0.467   9.788   4.528
19343WAT     H158271   0.514   9.793   4.616
19343WAT     H258272   0.500   9.862   4.469
19344WAT      O58273   8.230   9.616   2.407
19344WAT     H158274   8.211   9.566   2.322
19344WAT     H258275   8.325   9.649   2.405
19345WAT      O58276   3.701   0.290   2.127
19345WAT     H158277   3.625   0.278   2.063
19345WAT     H258278   3.698   0.218   2.196
19346WAT      O58279   2.863   9.103   8.845
19346WAT     H158280   2.799   9.138   8.913
19346WAT     H258281   2.814   9.044   8.781
19347WAT      O58282   8.673   5.615   6.790
19347WAT     H158283   8.626   5.541   6.837
19347WAT     H258284   8.613   5.695   6.785
19348WAT      O58285   3.539   7.827   1.220
19348WAT     H158286   3.540   7.899   1.290
19348WAT     H258287   3.445   7.809   1.193
19349WAT      O58288   3.756   6.403   4.569
19349WAT     H158289   3.749   6.305   4.551
19349WAT     H258290   3.789   6.450   4.487
19350WAT      O58291   1.423   7.729   9.740
19350WAT     H158292   1.466   7.702   9.653
19350WAT     H258293   1.473   7.806   9.779
19351WAT      O58294   6.634   9.360   4.278
19351WAT     H158295   6.688   9.289   4.323
19351WAT     H258296   6.609   9.431   4.344
19352WAT      O58297   1.940   5.226   9.136
19352WAT     H158298   2.035   5.211   9.165
19352WAT     H258299   1.882   5.156   9.177
19353WAT      O58300   9.221   1.468   2.466
19353WAT     H158301   9.274   1.431   2.543
19353WAT     H258302   9.282   1.484   2.389
19354WAT      O58303   6.114   7.075   6.396
19354WAT     H158304   6.122   7.163   6.441
19354WAT     H258305   6.058   7.085   6.313
19355WAT      O58306   1.560   7.724   6.584
19355WAT     H158307   1.613   7.653   6.631
19355WAT     H258308   1.604   7.747   6.498
19356WAT      O58309   3.766   6.557   7.046
19356WAT     H158310   3.717   6.635   7.085
19356WAT     H258311   3.700   6.493   7.007
19357WAT      O58312   0.436   0.443   3.588
19357WAT     H158313   0.393   0.526   3.552
19357WAT     H258314   0.514   0.419   3.531
19358WAT      O58315   6.340   0.451   2.322
19358WAT     H158316   6.361   0.355   2.306
19358WAT     H258317   6.359   0.504   2.239
19359WAT      O58318   7.688   3.277   6.679
19359WAT     H158319   7.605   3.293   6.626
19359WAT     H258320   7.765   3.262   6.617
19360WAT      O58321   5.306   1.908   9.323
19360WAT     H158322   5.314   1.839   9.395
19360WAT     H258323   5.384   1.971   9.328
19361WAT      O58324   9.439   7.207   3.092
19361WAT     H158325   9.475   7.146   3.022
19361WAT     H258326   9.424   7.298   3.053
19362WAT      O58327   8.632   5.519   0.262
19362WAT     H158328   8.573   5.483   0.190
19362WAT     H258329   8.641   5.452   0.335
19363WAT      O58330   1.838   4.613   6.366
19363WAT     H158331   1.788   4.545   6.312
19363WAT     H258332   1.936   4.603   6.349
19364WAT      O58333   6.811   1.409   6.786
19364WAT     H158334   6.835   1.425   6.690
19364WAT     H258335   6.731   1.464   6.810
19365WAT      O58336   2.137   8.126   3.325
19365WAT     H158337   2.093   8.086   3.406
19365WAT     H258338   2.236   8.119   3.335
19366WAT      O58339   5.566   6.856   6.282
19366WAT     H158340   5.509   6.926   6.326
19366WAT     H258341   5.508   6.790   6.236
19367WAT      O58342   0.282   7.764   0.216
19367WAT     H158343   0.284   7.703   0.295
19367WAT     H258344   0.203   7.824   0.222
19368WAT      O58345   8.228   7.503   8.407
19368WAT     H158346   8.282   7.430   8.449
19368WAT     H258347   8.288   7.579   8.384
19369WAT      O58348   0.021   2.482   4.135
19369WAT     H158349   0.112   2.449   4.159
19369WAT     H258350   0.026   2.540   4.053
19370WAT      O58351   9.328   7.681   5.733
19370WAT     H158352   9.348   7.760   5.792
19370WAT     H258353   9.334   7.709   5.638
19371WAT      O58354   3.211   0.573   0.987
19371WAT     H158355   3.253   0.644   0.929
19371WAT     H258356   3.278   0.541   1.053
19372WAT      O58357   6.289   3.550   4.609
19372WAT     H158358   6.353   3.473   4.608
19372WAT     H258359   6.237   3.550   4.694
19373WAT      O58360   6.884   2.166   2.197
19373WAT     H158361   6.798   2.130   2.232
19373WAT     H258362   6.870   2.205   2.106
19374WAT      O58363   9.722   6.393   6.307
19374WAT     H158364   9.818   6.374   6.288
19374WAT     H258365   9.674   6.307   6.323
19375WAT      O58366   2.892   1.360   7.573
19375WAT     H158367   2.981   1.385   7.613
19375WAT     H258368   2.865   1.430   7.506
19376WAT      O58369   4.374   6.860   1.762
19376WAT     H158370   4.416   6.904   1.683
19376WAT     H258371   4.354   6.764   1.739
19377WAT      O58372   0.198   2.305   4.289
19377WAT     H158373   0.190   2.260   4.200
19377WAT     H258374   0.133   2.263   4.353
19378WAT      O58375   3.868   2.831   6.866
19378WAT     H158376   3.866   2.931   6.862
19378WAT     H258377   3.789   2.794   6.817
19379WAT      O58378   4.644   7.450   3.419
19379WAT     H158379   4.634   7.375   3.354
19379WAT     H258380   4.680   7.415   3.505
19380WAT      O58381   5.620   6.935   8.681
19380WAT     H158382   5.692   6.937   8.612
19380WAT     H258383   5.619   7.022   8.730
19381WAT      O58384   6.862   6.656   2.132
19381WAT     H158385   6.931   6.629   2.200
19381WAT     H258386   6.908   6.677   2.046
19382WAT      O58387   4.499   5.534   6.377
19382WAT     H158388   4.558   5.504   6.452
19382WAT     H258389   4.414   5.571   6.414
19383WAT      O58390   3.037   2.820   1.751
19383WAT     H158391   3.075   2.896   1.698
19383WAT     H258392   3.034   2.845   1.848
19384WAT      O58393   1.878   1.134   9.219
19384WAT     H158394   1.885   1.231   9.242
19384WAT     H258395   1.968   1.091   9.226
19385WAT      O58396   3.739   6.932   7.045
19385WAT     H158397   3.838   6.923   7.056
19385WAT     H258398   3.705   7.006   7.103
19386WAT      O58399   2.188   2.482   3.876
19386WAT     H158400   2.223   2.549   3.811
19386WAT     H258401   2.145   2.529   3.953
19387WAT      O58402   1.092   6.066   7.245
19387WAT     H158403   1.153   6.032   7.173
19387WAT     H258404   1.135   6.143   7.291
19388WAT      O58405   9.225   4.706   8.975
19388WAT     H158406   9.252   4.610   8.981
19388WAT     H258407   9.246   4.752   9.062
19389WAT      O58408   7.756   3.903   5.688
19389WAT     H158409   7.854   3.896   5.709
19389WAT     H258410   7.743   3.968   5.613
19390WAT      O58411   7.948   7.312   7.328
19390WAT     H158412   7.905   7.256   7.258
19390WAT     H258413   7.897   7.304   7.414
19391WAT      O58414   4.827   7.603   2.508
19391WAT     H158415   4.731   7.628   2.509
19391WAT     H258416   4.863   7.614   2.415
19392WAT      O58417   2.792   9.091   6.528
19392WAT     H158418   2.827   9.034   6.603
19392WAT     H258419   2.816   9.186   6.545
19393WAT      O58420   3.617   5.169   7.463
19393WAT     H158421   3.669   5.232   7.404
19393WAT     H258422   3.655   5.077   7.454
19394WAT      O58423   7.310   8.800   9.346
19394WAT     H158424   7.291   8.793   9.444
19394WAT     H258425   7.263   8.880   9.309
19395WAT      O58426   7.047   1.562   4.483
19395WAT     H158427   7.064   1.655   4.450
19395WAT     H258428   7.105   1.544   4.562
19396WAT      O58429   0.846   6.816   3.703
19396WAT     H158430   0.814   6.735   3.652
19396WAT     H258431   0.799   6.897   3.670
19397WAT      O58432   2.218   4.464   7.556
19397WAT     H158433   2.143   4.489   7.617
19397WAT     H258434   2.227   4.532   7.484
19398WAT      O58435   6.868   3.675   1.946
19398WAT     H158436   6.823   3.765   1.947
19398WAT     H258437   6.871   3.640   1.852
19399WAT      O58438   7.847   0.405   8.656
19399WAT     H158439   7.759   0.448   8.635
19399WAT     H258440   7.905   0.408   8.575
19400WAT      O58441   8.763   5.393   8.260
19400WAT     H158442   8.728   5.376   8.352
19400WAT     H258443   8.746   5.314   8.202
19401WAT      O58444   3.049   2.355   9.013
19401WAT     H158445   2.969   2.380   9.067
19401WAT     H258446   3.020   2.324   8.922
19402WAT      O58447   4.883   7.863   0.756
19402WAT     H158448   4.894   7.946   0.811
19402WAT     H258449   4.792   7.863   0.715
19403WAT      O58450   3.986   6.235   8.018
19403WAT     H158451   4.071   6.277   8.053
19403WAT     H258452   3.977   6.256   7.921
19404WAT      O58453   3.397   1.505   2.559
19404WAT     H158454   3.493   1.501   2.535
19404WAT     H258455   3.366   1.415   2.589
19405WAT      O58456   5.090   9.772   5.987
19405WAT     H158457   5.065   9.687   6.032
19405WAT     H258458   5.100   9.757   5.889
19406WAT      O58459   2.926   3.319   4.096
19406WAT     H158460   2.845   3.294   4.044
19406WAT     H258461   2.962   3.239   4.144
19407WAT      O58462   9.773   9.142   7.474
19407WAT     H158463   9.766   9.046   7.448
19407WAT     H258464   9.719   9.158   7.557
19408WAT      O58465   7.345   4.240   1.497
19408WAT     H158466   7.313   4.334   1.496
19408WAT     H258467   7.284   4.184   1.553
19409WAT      O58468   1.804   2.879   3.273
19409WAT     H158469   1.742   2.922   3.338
19409WAT     H258470   1.776   2.901   3.180
19410WAT      O58471   3.968   8.026   1.246
19410WAT     H158472   3.962   8.097   1.175
19410WAT     H258473   3.907   7.951   1.223
19411WAT      O58474   1.626   0.263   5.057
19411WAT     H158475   1.533   0.272   5.093
19411WAT     H258476   1.654   0.350   5.017
19412WAT      O58477   3.021   5.230   9.377
19412WAT     H158478   2.957   5.155   9.359
19412WAT     H258479   2.999   5.308   9.318
19413WAT      O58480   6.829   5.976   8.889
19413WAT     H158481   6.888   5.979   8.809
19413WAT     H258482   6.740   5.939   8.864
19414WAT      O58483   4.490   2.412   8.635
19414WAT     H158484   4.553   2.399   8.558
19414WAT     H258485   4.521   2.356   8.712
19415WAT      O58486   5.686   7.687   5.187
19415WAT     H158487   5.611   7.684   5.253
19415WAT     H258488   5.728   7.778   5.189
19416WAT      O58489   9.775   2.620   7.853
19416WAT     H158490   9.764   2.525   7.879
19416WAT     H258491   9.858   2.630   7.797
19417WAT      O58492   8.647   4.983   8.423
19417WAT     H158493   8.647   4.892   8.382
19417WAT     H258494   8.690   4.979   8.514
19418WAT      O58495   8.216   4.478   6.570
19418WAT     H158496   8.313   4.480   6.594
19418WAT     H258497   8.175   4.394   6.605
19419WAT      O58498   3.581   6.025   5.081
19419WAT     H158499   3.631   5.944   5.049
19419WAT     H258500   3.584   6.096   5.010
19420WAT      O58501   9.747   3.677   1.833
19420WAT     H158502   9.836   3.640   1.806
19420WAT     H258503   9.680   3.657   1.762
19421WAT      O58504   8.909   7.491   6.102
19421WAT     H158505   8.919   7.562   6.032
19421WAT     H258506   8.892   7.403   6.057
19422WAT      O58507   9.386   0.009   3.120
19422WAT     H158508   9.286   0.015   3.116
19422WAT     H258509   9.416   0.004   3.215
19423WAT      O58510   8.338   4.451   7.545
19423WAT     H158511   8.247   4.422   7.573
19423WAT     H258512   8.383   4.378   7.494
19424WAT      O58513   4.509   5.120   2.634
19424WAT     H158514   4.544   5.070   2.713
19424WAT     H258515   4.585   5.162   2.585
19425WAT      O58516   2.056   8.881   4.649
19425WAT     H158517   2.036   8.789   4.683
19425WAT     H258518   2.125   8.924   4.708
19426WAT      O58519   4.874   2.070   5.744
19426WAT     H158520   4.859   2.164   5.775
19426WAT     H258521   4.887   2.069   5.645
19427WAT      O58522   7.707   4.799   8.922
19427WAT     H158523   7.637   4.870   8.930
19427WAT     H258524   7.706   4.763   8.828
19428WAT      O58525   5.016   8.864   9.308
19428WAT     H158526   4.960   8.842   9.228
19428WAT     H258527   4.958   8.899   9.381
19429WAT      O58528   0.115   5.648   4.340
19429WAT     H158529   0.153   5.559   4.316
19429WAT     H258530   0.022   5.636   4.374
19430WAT      O58531   5.536   3.638   5.408
19430WAT     H158532   5.565   3.585   5.329
19430WAT     H258533   5.616   3.680   5.451
19431WAT      O58534   9.559   1.113   4.445
19431WAT     H158535   9.597   1.205   4.457
19431WAT     H258536   9.521   1.104   4.353
19432WAT      O58537   4.114   1.950   5.274
19432WAT     H158538   4.138   1.978   5.181
19432WAT     H258539   4.056   2.019   5.316
19433WAT      O58540   7.106   6.818   5.633
19433WAT     H158541   7.048   6.737   5.642
19433WAT     H258542   7.174   6.820   5.706
19434WAT      O58543   2.544   0.324   3.855
19434WAT     H158544   2.467   0.318   3.919
19434WAT     H258545   2.611   0.254   3.877
19435WAT      O58546   1.585   6.165   5.338
19435WAT     H158547   1.546   6.118   5.259
19435WAT     H258548   1.511   6.198   5.396
19436WAT      O58549   7.763   7.151   6.776
19436WAT     H158550   7.700   7.225   6.799
19436WAT     H258551   7.729   7.065   6.815
19437WAT      O58552   2.953   5.695   3.063
19437WAT     H158553   2.858   5.673   3.039
19437WAT     H258554   2.960   5.792   3.086
19438WAT      O58555   1.516   5.690   2.218
19438WAT     H158556   1.461   5.639   2.151
19438WAT     H258557   1.613   5.676   2.200
19439WAT      O58558   7.442   1.623   8.927
19439WAT     H158559   7.391   1.537   8.932
19439WAT     H258560   7.383   1.698   8.958
19440WAT      O58561   9.680   0.900   5.545
19440WAT     H158562   9.710   0.958   5.620
19440WAT     H258563   9.643   0.958   5.472
19441WAT      O58564   7.952   6.535   5.858
19441WAT     H158565   7.956   6.631   5.831
19441WAT     H258566   8.022   6.516   5.928
19442WAT      O58567   7.691   0.978   8.623
19442WAT     H158568   7.671   1.074   8.643
19442WAT     H258569   7.647   0.920   8.691
19443WAT      O58570   4.877   3.884   3.724
19443WAT     H158571   4.811   3.835   3.667
19443WAT     H258572   4.932   3.945   3.666
19444WAT      O58573   8.097   6.942   0.943
19444WAT     H158574   8.181   6.914   0.990
19444WAT     H258575   8.066   7.030   0.978
19445WAT      O58576   3.021   7.315   1.134
19445WAT     H158577   2.959   7.289   1.208
19445WAT     H258578   3.093   7.246   1.125
19446WAT      O58579   2.675   5.038   1.736
19446WAT     H158580   2.727   5.052   1.820
19446WAT     H258581   2.737   5.039   1.657
19447WAT      O58582   8.694   9.744   4.008
19447WAT     H158583   8.608   9.785   3.979
19447WAT     H258584   8.686   9.715   4.104
19448WAT      O58585   3.832   5.173   3.258
19448WAT     H158586   3.837   5.273   3.259
19448WAT     H258587   3.800   5.141   3.347
19449WAT      O58588   5.114   2.459   5.730
19449WAT     H158589   5.108   2.444   5.632
19449WAT     H258590   5.208   2.485   5.754
19450WAT      O58591   4.222   0.772   9.386
19450WAT     H158592   4.161   0.728   9.452
19450WAT     H258593   4.189   0.754   9.293
19451WAT      O58594   6.784   5.661   6.497
19451WAT     H158595   6.818   5.741   6.547
19451WAT     H258596   6.749   5.593   6.561
19452WAT      O58597   4.311   8.946   3.433
19452WAT     H158598   4.292   8.944   3.531
19452WAT     H258599   4.361   8.864   3.406
19453WAT      O58600   3.065   8.205   2.371
19453WAT     H158601   3.048   8.303   2.368
19453WAT     H258602   3.026   8.162   2.290
19454WAT      O58603   8.634   3.549   8.453
19454WAT     H158604   8.632   3.531   8.552
19454WAT     H258605   8.581   3.479   8.406
19455WAT      O58606   0.916   5.966   5.995
19455WAT     H158607   0.949   5.872   6.010
19455WAT     H258608   0.994   6.028   5.992
19456WAT      O58609   1.997   4.356   0.226
19456WAT     H158610   2.046   4.338   0.311
19456WAT     H258611   1.943   4.440   0.236
19457WAT      O58612   6.227   1.465   5.312
19457WAT     H158613   6.281   1.467   5.396
19457WAT     H258614   6.140   1.418   5.329
19458WAT      O58615   9.057   3.614   6.165
19458WAT     H158616   9.040   3.712   6.158
19458WAT     H258617   9.123   3.587   6.094
19459WAT      O58618   8.235   8.875   0.330
19459WAT     H158619   8.218   8.967   0.366
19459WAT     H258620   8.284   8.821   0.398
19460WAT      O58621   8.466   6.139   9.607
19460WAT     H158622   8.415   6.221   9.580
19460WAT     H258623   8.446   6.118   9.703
19461WAT      O58624   8.875   9.802   1.442
19461WAT     H158625   8.863   9.840   1.534
19461WAT     H258626   8.883   9.703   1.448
19462WAT      O58627   3.501   8.502   6.798
19462WAT     H158628   3.584   8.558   6.797
19462WAT     H258629   3.516   8.420   6.743
19463WAT      O58630   8.157   4.878   8.459
19463WAT     H158631   8.229   4.906   8.521
19463WAT     H258632   8.074   4.857   8.511
19464WAT      O58633   5.026   9.263   0.498
19464WAT     H158634   4.966   9.320   0.442
19464WAT     H258635   4.971   9.195   0.547
19465WAT      O58636   3.270   2.410   6.447
19465WAT     H158637   3.266   2.487   6.511
19465WAT     H258638   3.300   2.329   6.495
19466WAT      O58639   7.220   4.129   9.478
19466WAT     H158640   7.246   4.036   9.452
19466WAT     H258641   7.207   4.133   9.576
19467WAT      O58642   0.581   5.376   6.158
19467WAT     H158643   0.502   5.381   6.218
19467WAT     H258644   0.595   5.464   6.113
19468WAT      O58645   2.229   0.018   5.442
19468WAT     H158646   2.199   0.114   5.442
19468WAT     H258647   2.157  -0.039   5.482
19469WAT      O58648   8.062   3.937   9.203
19469WAT     H158649   8.136   4.002   9.223
19469WAT     H258650   7.978   3.968   9.247
19470WAT      O58651   9.373   0.531   5.926
19470WAT     H158652   9.454   0.571   5.969
19470WAT     H258653   9.313   0.604   5.892
19471WAT      O58654   9.359   5.520   6.320
19471WAT     H158655   9.403   5.449   6.265
19471WAT     H258656   9.405   5.526   6.409
19472WAT      O58657   9.767   8.351   2.656
19472WAT     H158658   9.853   8.317   2.693
19472WAT     H258659   9.690   8.315   2.710
19473WAT      O58660   0.180   8.172   4.590
19473WAT     H158661   0.133   8.251   4.630
19473WAT     H258662   0.118   8.094   4.588
19474WAT      O58663   7.582   6.526   0.664
19474WAT     H158664   7.675   6.496   0.645
19474WAT     H258665   7.553   6.492   0.753
19475WAT      O58666   2.834   5.703   1.893
19475WAT     H158667   2.819   5.800   1.877
19475WAT     H258668   2.810   5.652   1.810
19476WAT      O58669   1.254   6.645   4.147
19476WAT     H158670   1.155   6.661   4.148
19476WAT     H258671   1.274   6.566   4.090
19477WAT      O58672   8.916   9.822   6.730
19477WAT     H158673   8.930   9.752   6.800
19477WAT     H258674   9.001   9.837   6.680
19478WAT      O58675   2.900   3.910   7.020
19478WAT     H158676   2.850   3.900   7.106
19478WAT     H258677   2.965   3.834   7.011
19479WAT      O58678   2.844   6.174   5.401
19479WAT     H158679   2.899   6.204   5.479
19479WAT     H258680   2.904   6.154   5.324
19480WAT      O58681   6.019   2.202   7.594
19480WAT     H158682   5.963   2.152   7.661
19480WAT     H258683   6.093   2.142   7.562
19481WAT      O58684   5.889   8.689   3.628
19481WAT     H158685   5.949   8.704   3.549
19481WAT     H258686   5.901   8.764   3.693
19482WAT      O58687   9.415   6.694   6.578
19482WAT     H158688   9.489   6.628   6.563
19482WAT     H258689   9.327   6.645   6.577
19483WAT      O58690   3.069   7.757   1.851
19483WAT     H158691   3.058   7.667   1.893
19483WAT     H258692   3.140   7.808   1.899
19484WAT      O58693   2.336   0.980   6.564
19484WAT     H158694   2.417   1.020   6.607
19484WAT     H258695   2.308   0.899   6.615
19485WAT      O58696   8.854   6.867   0.114
19485WAT     H158697   8.925   6.816   0.162
19485WAT     H258698   8.854   6.843   0.017
19486WAT      O58699   0.724   4.331   7.036
19486WAT     H158700   0.790   4.405   7.026
19486WAT     H258701   0.768   4.253   7.082
19487WAT      O58702   2.216   0.661   0.138
19487WAT     H158703   2.156   0.662   0.058
19487WAT     H258704   2.265   0.748   0.143
19488WAT      O58705   8.289   0.298   4.399
19488WAT     H158706   8.207   0.314   4.344
19488WAT     H258707   8.360   0.258   4.341
19489WAT      O58708   0.984   5.472   1.822
19489WAT     H158709   0.889   5.456   1.794
19489WAT     H258710   1.040   5.493   1.741
19490WAT      O58711   6.999   6.716   1.887
19490WAT     H158712   7.088   6.735   1.928
19490WAT     H258713   7.008   6.707   1.788
19491WAT      O58714   7.244   4.886   8.352
19491WAT     H158715   7.271   4.980   8.375
19491WAT     H258716   7.270   4.866   8.258
19492WAT      O58717   9.614   9.510   0.172
19492WAT     H158718   9.593   9.574   0.098
19492WAT     H258719   9.679   9.442   0.139
19493WAT      O58720   4.708   5.762   9.682
19493WAT     H158721   4.759   5.842   9.652
19493WAT     H258722   4.672   5.713   9.603
19494WAT      O58723   7.456   1.247   6.498
19494WAT     H158724   7.406   1.181   6.441
19494WAT     H258725   7.391   1.301   6.551
19495WAT      O58726   9.255   5.598   4.100
19495WAT     H158727   9.338   5.546   4.081
19495WAT     H258728   9.253   5.681   4.044
19496WAT      O58729   1.193   6.506   7.457
19496WAT     H158730   1.241   6.561   7.389
19496WAT     H258731   1.118   6.559   7.497
19497WAT      O58732   3.047   5.440   2.679
19497WAT     H158733   3.042   5.461   2.777
19497WAT     H258734   2.990   5.359   2.660
19498WAT      O58735   3.742   0.693   0.731
19498WAT     H158736   3.799   0.697   0.812
19498WAT     H258737   3.692   0.606   0.729
19499WAT      O58738   3.809   9.533   9.276
19499WAT     H158739   3.833   9.471   9.350
19499WAT     H258740   3.886   9.542   9.213
19500WAT      O58741   1.146   5.364   0.277
19500WAT     H158742   1.228   5.384   0.223
19500WAT     H258743   1.089   5.298   0.228
19501WAT      O58744   0.517   3.430   8.183
19501WAT     H158745   0.467   3.431   8.269
19501WAT     H258746   0.542   3.336   8.160
19502WAT      O58747   6.934   1.412   3.166
19502WAT     H158748   6.988   1.341   3.120
19502WAT     H258749   6.855   1.371   3.210
19503WAT      O58750   9.523   4.326   2.412
19503WAT     H158751   9.585   4.307   2.336
19503WAT     H258752   9.574   4.367   2.487
19504WAT      O58753   9.206   1.573   6.501
19504WAT     H158754   9.276   1.636   6.465
19504WAT     H258755   9.125   1.626   6.528
19505WAT      O58756   6.229   1.603   7.348
19505WAT     H158757   6.144   1.565   7.310
19505WAT     H258758   6.303   1.593   7.281
19506WAT      O58759   5.427   8.334   8.479
19506WAT     H158760   5.444   8.297   8.388
19506WAT     H258761   5.331   8.362   8.487
19507WAT      O58762   6.551   7.363   0.606
19507WAT     H158763   6.489   7.353   0.528
19507WAT     H258764   6.646   7.363   0.574
19508WAT      O58765   5.196   4.212   2.220
19508WAT     H158766   5.198   4.116   2.247
19508WAT     H258767   5.289   4.246   2.211
19509WAT      O58768   6.882   4.225   5.953
19509WAT     H158769   6.856   4.143   5.902
19509WAT     H258770   6.880   4.304   5.893
19510WAT      O58771   6.536   9.467   5.660
19510WAT     H158772   6.525   9.427   5.569
19510WAT     H258773   6.460   9.438   5.718
19511WAT      O58774   8.371   5.126   2.261
19511WAT     H158775   8.298   5.058   2.245
19511WAT     H258776   8.387   5.178   2.177
19512WAT      O58777   5.953   8.565   2.551
19512WAT     H158778   6.006   8.497   2.500
19512WAT     H258779   5.895   8.518   2.618
19513WAT      O58780   7.029   6.879   2.537
19513WAT     H158781   7.037   6.780   2.544
19513WAT     H258782   6.940   6.908   2.574
19514WAT      O58783   9.031   3.342   6.057
19514WAT     H158784   9.040   3.407   6.133
19514WAT     H258785   8.953   3.368   6.001
19515WAT      O58786   2.328   0.606   0.959
19515WAT     H158787   2.421   0.615   0.994
19515WAT     H258788   2.276   0.688   0.983
19516WAT      O58789   2.276   8.245   7.575
19516WAT     H158790   2.297   8.203   7.663
19516WAT     H258791   2.270   8.174   7.505
19517WAT      O58792   4.664   4.159   4.163
19517WAT     H158793   4.615   4.168   4.077
19517WAT     H258794   4.753   4.205   4.156
19518WAT      O58795   0.638   8.625   4.293
19518WAT     H158796   0.702   8.599   4.220
19518WAT     H258797   0.600   8.716   4.273
19519WAT      O58798   3.615   4.890   8.123
19519WAT     H158799   3.563   4.938   8.193
19519WAT     H258800   3.670   4.818   8.165
19520WAT      O58801   7.584   9.257   9.743
19520WAT     H158802   7.640   9.176   9.763
19520WAT     H258803   7.591   9.321   9.819
19521WAT      O58804   9.876   6.005   4.455
19521WAT     H158805   9.936   5.960   4.522
19521WAT     H258806   9.924   6.012   4.368
19522WAT      O58807   0.269   0.501   0.921
19522WAT     H158808   0.273   0.421   0.981
19522WAT     H258809   0.312   0.479   0.833
19523WAT      O58810   4.671   6.086   7.174
19523WAT     H158811   4.614   6.112   7.096
19523WAT     H258812   4.617   6.095   7.258
19524WAT      O58813   0.575   4.673   3.154
19524WAT     H158814   0.630   4.656   3.072
19524WAT     H258815   0.590   4.599   3.219
19525WAT      O58816   8.940   6.021   7.105
19525WAT     H158817   8.855   6.001   7.057
19525WAT     H258818   9.018   6.000   7.046
19526WAT      O58819   5.530   7.858   0.136
19526WAT     H158820   5.478   7.927   0.086
19526WAT     H258821   5.626   7.861   0.108
19527WAT      O58822   3.340   2.473   8.630
19527WAT     H158823   3.245   2.489   8.601
19527WAT     H258824   3.381   2.406   8.569
19528WAT      O58825   2.526   9.530   8.448
19528WAT     H158826   2.457   9.463   8.422
19528WAT     H258827   2.600   9.484   8.497
19529WAT      O58828   5.619   4.239   1.556
19529WAT     H158829   5.593   4.203   1.645
19529WAT     H258830   5.710   4.206   1.532
19530WAT      O58831   3.463   7.086   5.112
19530WAT     H158832   3.403   7.067   5.034
19530WAT     H258833   3.557   7.096   5.081
19531WAT      O58834   5.870   5.848   4.181
19531WAT     H158835   5.893   5.913   4.109
19531WAT     H258836   5.803   5.782   4.146
19532WAT      O58837   2.350   4.141   1.772
19532WAT     H158838   2.314   4.146   1.865
19532WAT     H258839   2.338   4.228   1.726
19533WAT      O58840   0.746   3.763   5.593
19533WAT     H158841   0.781   3.741   5.501
19533WAT     H258842   0.675   3.834   5.585
19534WAT      O58843   9.777   6.678   6.248
19534WAT     H158844   9.724   6.707   6.169
19534WAT     H258845   9.775   6.578   6.256
19535WAT      O58846   9.747   9.327   8.322
19535WAT     H158847   9.729   9.415   8.366
19535WAT     H258848   9.721   9.253   8.384
19536WAT      O58849   3.121   7.991   4.877
19536WAT     H158850   3.159   8.067   4.825
19536WAT     H258851   3.051   8.025   4.940
19537WAT      O58852   5.382   5.241   2.608
19537WAT     H158853   5.463   5.201   2.567
19537WAT     H258854   5.403   5.271   2.701
19538WAT      O58855   7.662   9.019   1.557
19538WAT     H158856   7.592   9.053   1.620
19538WAT     H258857   7.626   8.940   1.507
19539WAT      O58858   7.529   4.993   8.914
19539WAT     H158859   7.438   5.002   8.955
19539WAT     H258860   7.522   4.998   8.815
19540WAT      O58861   2.644   8.619   7.569
19540WAT     H158862   2.672   8.616   7.665
19540WAT     H258863   2.574   8.550   7.553
19541WAT      O58864   9.193   9.734   8.832
19541WAT     H158865   9.103   9.755   8.795
19541WAT     H258866   9.215   9.638   8.816
19542WAT      O58867   0.029   0.622   4.643
19542WAT     H158868   0.090   0.563   4.695
19542WAT     H258869   0.047   0.717   4.666
19543WAT      O58870   4.812   7.646   9.144
19543WAT     H158871   4.751   7.598   9.081
19543WAT     H258872   4.850   7.581   9.210
19544WAT      O58873   7.816   7.291   8.992
19544WAT     H158874   7.815   7.371   8.932
19544WAT     H258875   7.876   7.309   9.069
19545WAT      O58876   0.933   5.967   1.061
19545WAT     H158877   0.908   6.039   1.126
19545WAT     H258878   0.916   5.877   1.101
19546WAT      O58879   6.813   8.313   7.979
19546WAT     H158880   6.724   8.322   8.023
19546WAT     H258881   6.812   8.360   7.891
19547WAT      O58882   7.807   9.268   8.068
19547WAT     H158883   7.789   9.175   8.098
19547WAT     H258884   7.730   9.300   8.012
19548WAT      O58885   0.659   6.751   1.350
19548WAT     H158886   0.699   6.808   1.423
19548WAT     H258887   0.638   6.809   1.271
19549WAT      O58888   8.154   6.586   1.885
19549WAT     H158889   8.227   6.599   1.817
19549WAT     H258890   8.066   6.610   1.844
19550WAT      O58891   6.776   8.799   2.462
19550WAT     H158892   6.843   8.848   2.517
19550WAT     H258893   6.813   8.785   2.370
19551WAT      O58894   3.388   8.648   9.557
19551WAT     H158895   3.448   8.647   9.637
19551WAT     H258896   3.341   8.560   9.550
19552WAT      O58897   6.532   1.988   4.754
19552WAT     H158898   6.598   1.989   4.829
19552WAT     H258899   6.474   2.070   4.758
19553WAT      O58900   9.347   2.257   5.378
19553WAT     H158901   9.330   2.253   5.476
19553WAT     H258902   9.335   2.166   5.338
19554WAT      O58903   6.267   2.768   0.116
19554WAT     H158904   6.250   2.688   0.173
19554WAT     H258905   6.234   2.850   0.162
19555WAT      O58906   8.429   5.804   5.242
19555WAT     H158907   8.408   5.720   5.193
19555WAT     H258908   8.511   5.846   5.203
19556WAT      O58909   7.140   6.473   8.655
19556WAT     H158910   7.125   6.551   8.594
19556WAT     H258911   7.099   6.391   8.614
19557WAT      O58912   1.811   2.741   2.797
19557WAT     H158913   1.776   2.736   2.703
19557WAT     H258914   1.833   2.649   2.829
19558WAT      O58915   8.249   8.989   3.804
19558WAT     H158916   8.263   8.948   3.894
19558WAT     H258917   8.232   8.918   3.737
19559WAT      O58918   0.037   9.721   1.407
19559WAT     H158919   0.113   9.756   1.463
19559WAT     H258920   0.073   9.683   1.322
19560WAT      O58921   6.626   7.959   6.287
19560WAT     H158922   6.598   7.871   6.326
19560WAT     H258923   6.705   7.945   6.227
19561WAT      O58924   0.292   1.566   6.543
19561WAT     H158925   0.232   1.536   6.469
19561WAT     H258926   0.367   1.501   6.553
19562WAT      O58927   8.167   3.318   6.227
19562WAT     H158928   8.168   3.414   6.199
19562WAT     H258929   8.231   3.266   6.170
19563WAT      O58930   0.174   5.849   4.157
19563WAT     H158931   0.214   5.771   4.109
19563WAT     H258932   0.142   5.820   4.247
19564WAT      O58933   9.424   4.955   5.124
19564WAT     H158934   9.355   4.884   5.135
19564WAT     H258935   9.467   4.946   5.034
19565WAT      O58936   1.524   6.223   8.233
19565WAT     H158937   1.550   6.181   8.321
19565WAT     H258938   1.574   6.178   8.159
19566WAT      O58939   5.392   4.017   7.073
19566WAT     H158940   5.418   4.049   7.164
19566WAT     H258941   5.383   4.096   7.011
19567WAT      O58942   0.595   3.861   7.350
19567WAT     H158943   0.618   3.772   7.390
19567WAT     H258944   0.640   3.871   7.261
19568WAT      O58945   1.645   2.604   9.884
19568WAT     H158946   1.741   2.599   9.911
19568WAT     H258947   1.624   2.529   9.821
19569WAT      O58948   8.714   4.515   9.760
19569WAT     H158949   8.798   4.543   9.805
19569WAT     H258950   8.733   4.490   9.665
19570WAT      O58951   6.391   6.837   2.064
19570WAT     H158952   6.366   6.812   2.157
19570WAT     H258953   6.402   6.936   2.057
19571WAT      O58954   2.674   0.791   5.046
19571WAT     H158955   2.763   0.794   5.092
19571WAT     H258956   2.640   0.885   5.035
19572WAT      O58957   6.040   0.189   7.182
19572WAT     H158958   6.041   0.281   7.222
19572WAT     H258959   6.125   0.173   7.132
19573WAT      O58960   6.117   8.054   1.174
19573WAT     H158961   6.129   7.958   1.148
19573WAT     H258962   6.112   8.061   1.273
19574WAT      O58963   3.199   1.553   0.636
19574WAT     H158964   3.181   1.489   0.561
19574WAT     H258965   3.210   1.501   0.722
19575WAT      O58966   7.038   8.135   2.321
19575WAT     H158967   7.056   8.232   2.335
19575WAT     H258968   6.947   8.123   2.282
19576WAT      O58969   0.677   4.171   5.714
19576WAT     H158970   0.586   4.204   5.742
19576WAT     H258971   0.742   4.246   5.718
19577WAT      O58972   0.631   6.449   8.371
19577WAT     H158973   0.690   6.517   8.415
19577WAT     H258974   0.602   6.482   8.282
19578WAT      O58975   0.600   9.410   4.549
19578WAT     H158976   0.567   9.340   4.613
19578WAT     H258977   0.524   9.442   4.493
19579WAT      O58978   2.263   0.133   2.843
19579WAT     H158979   2.264   0.061   2.774
19579WAT     H258980   2.284   0.094   2.932
19580WAT      O58981   1.509   7.882   8.170
19580WAT     H158982   1.497   7.809   8.238
19580WAT     H258983   1.557   7.959   8.212
19581WAT      O58984   1.036   6.669   1.943
19581WAT     H158985   1.125   6.661   1.989
19581WAT     H258986   0.981   6.588   1.962
19582WAT      O58987   5.821   2.558   1.391
19582WAT     H158988   5.790   2.573   1.297
19582WAT     H258989   5.743   2.531   1.448
19583WAT      O58990   8.199   3.095   3.982
19583WAT     H158991   8.125   3.107   4.048
19583WAT     H258992   8.258   3.020   4.011
19584WAT      O58993   5.723   1.023   0.307
19584WAT     H158994   5.731   0.926   0.330
19584WAT     H258995   5.662   1.068   0.372
19585WAT      O58996   7.067   3.143   6.195
19585WAT     H158997   7.062   3.216   6.126
19585WAT     H258998   7.056   3.183   6.286
19586WAT      O58999   5.828   5.264   9.855
19586WAT     H159000   5.848   5.276   9.758
19586WAT     H259001   5.843   5.168   9.880
19587WAT      O59002   6.764   3.341   8.133
19587WAT     H159003   6.669   3.338   8.164
19587WAT     H259004   6.805   3.250   8.144
19588WAT      O59005   6.621   6.019   3.914
19588WAT     H159006   6.691   6.071   3.866
19588WAT     H259007   6.593   5.941   3.858
19589WAT      O59008   2.839   8.971   7.281
19589WAT     H159009   2.891   8.958   7.196
19589WAT     H259010   2.793   9.060   7.278
19590WAT      O59011   1.628   2.056   0.844
19590WAT     H159012   1.539   2.091   0.874
19590WAT     H259013   1.615   1.998   0.763
19591WAT      O59014   8.326   9.499   6.033
19591WAT     H159015   8.413   9.451   6.023
19591WAT     H259016   8.252   9.441   5.997
19592WAT      O59017   9.303   9.716   7.567
19592WAT     H159018   9.209   9.682   7.558
19592WAT     H259019   9.358   9.684   7.489
19593WAT      O59020   3.533   5.170   4.076
19593WAT     H159021   3.518   5.263   4.045
19593WAT     H259022   3.485   5.106   4.015
19594WAT      O59023   3.805   5.996   5.333
19594WAT     H159024   3.854   5.937   5.270
19594WAT     H259025   3.844   5.986   5.425
19595WAT      O59026   2.144   8.943   6.612
19595WAT     H159027   2.112   9.024   6.661
19595WAT     H259028   2.067   8.904   6.560
19596WAT      O59029   7.823   5.312   5.588
19596WAT     H159030   7.740   5.364   5.608
19596WAT     H259031   7.894   5.375   5.556
19597WAT      O59032   8.345   6.774   9.019
19597WAT     H159033   8.305   6.806   9.105
19597WAT     H259034   8.341   6.675   9.014
19598WAT      O59035   1.031   2.117   9.485
19598WAT     H159036   1.088   2.167   9.549
19598WAT     H259037   1.086   2.051   9.434
19599WAT      O59038   1.583   3.576   9.520
19599WAT     H159039   1.599   3.477   9.523
19599WAT     H259040   1.511   3.595   9.453
19600WAT      O59041   8.343   7.851   8.369
19600WAT     H159042   8.354   7.942   8.329
19600WAT     H259043   8.399   7.785   8.318
19601WAT      O59044   8.725   5.518   6.386
19601WAT     H159045   8.683   5.435   6.348
19601WAT     H259046   8.731   5.510   6.485
19602WAT      O59047   5.553   2.846   2.689
19602WAT     H159048   5.487   2.784   2.731
19602WAT     H259049   5.528   2.862   2.594
19603WAT      O59050   5.999   6.145   7.234
19603WAT     H159051   5.963   6.130   7.326
19603WAT     H259052   5.932   6.113   7.166
19604WAT      O59053   3.198   7.546   3.665
19604WAT     H159054   3.192   7.458   3.617
19604WAT     H259055   3.291   7.560   3.697
19605WAT      O59056   7.832   4.921   8.104
19605WAT     H159057   7.786   4.939   8.017
19605WAT     H259058   7.866   5.007   8.141
19606WAT      O59059   6.863   7.071   0.722
19606WAT     H159060   6.791   7.051   0.655
19606WAT     H259061   6.884   6.988   0.774
19607WAT      O59062   2.988   1.977   1.756
19607WAT     H159063   3.029   2.008   1.671
19607WAT     H259064   2.889   1.989   1.751
19608WAT      O59065   0.284   3.395   7.971
19608WAT     H159066   0.344   3.396   8.051
19608WAT     H259067   0.229   3.479   7.970
19609WAT      O59068   1.501   5.426   1.119
19609WAT     H159069   1.542   5.487   1.187
19609WAT     H259070   1.453   5.352   1.166
19610WAT      O59071   7.912   9.833   5.244
19610WAT     H159072   7.986   9.872   5.300
19610WAT     H259073   7.881   9.901   5.178
19611WAT      O59074   2.315   6.866   2.825
19611WAT     H159075   2.253   6.940   2.801
19611WAT     H259076   2.296   6.836   2.919
19612WAT      O59077   6.036   7.036   2.701
19612WAT     H159078   5.989   7.074   2.622
19612WAT     H259079   6.132   7.063   2.698
19613WAT      O59080   7.368   5.020   7.818
19613WAT     H159081   7.316   5.007   7.734
19613WAT     H259082   7.383   5.118   7.834
19614WAT      O59083   5.932   8.687   2.148
19614WAT     H159084   5.871   8.678   2.227
19614WAT     H259085   5.983   8.773   2.155
19615WAT      O59086   4.896   2.578   0.149
19615WAT     H159087   4.983   2.616   0.116
19615WAT     H259088   4.915   2.504   0.214
19616WAT      O59089   7.945   3.414   6.386
19616WAT     H159090   7.907   3.343   6.445
19616WAT     H259091   8.037   3.387   6.356
19617WAT      O59092   8.635   2.198   6.759
19617WAT     H159093   8.723   2.212   6.804
19617WAT     H259094   8.647   2.202   6.660
19618WAT      O59095   0.195   2.590   2.420
19618WAT     H159096   0.134   2.634   2.354
19618WAT     H259097   0.142   2.555   2.497
19619WAT      O59098   5.221   5.788   7.608
19619WAT     H159099   5.177   5.796   7.698
19619WAT     H259100   5.153   5.762   7.540
19620WAT      O59101   1.842   3.763   9.888
19620WAT     H159102   1.766   3.701   9.869
19620WAT     H259103   1.826   3.812   9.973
19621WAT      O59104   9.378   9.010   6.966
19621WAT     H159105   9.434   8.960   6.900
19621WAT     H259106   9.309   9.064   6.918
19622WAT      O59107   4.325   2.357   6.306
19622WAT     H159108   4.369   2.418   6.241
19622WAT     H259109   4.248   2.310   6.262
19623WAT      O59110   8.810   0.056   7.848
19623WAT     H159111   8.809   0.152   7.876
19623WAT     H259112   8.882   0.043   7.779
19624WAT      O59113   7.702   1.846   9.257
19624WAT     H159114   7.648   1.922   9.295
19624WAT     H259115   7.646   1.764   9.256
19625WAT      O59116   7.935   5.882   3.433
19625WAT     H159117   7.986   5.851   3.352
19625WAT     H259118   7.901   5.975   3.416
19626WAT      O59119   0.891   0.828   3.240
19626WAT     H159120   0.811   0.883   3.216
19626WAT     H259121   0.866   0.763   3.312
19627WAT      O59122   8.097   5.600   2.807
19627WAT     H159123   8.017   5.602   2.868
19627WAT     H259124   8.080   5.660   2.728
19628WAT      O59125   1.973   7.505   2.209
19628WAT     H159126   1.959   7.506   2.110
19628WAT     H259127   1.993   7.597   2.241
19629WAT      O59128   5.941   8.759   4.570
19629WAT     H159129   5.856   8.721   4.606
19629WAT     H259130   6.015   8.692   4.580
19630WAT      O59131   4.739   6.469   1.272
19630WAT     H159132   4.743   6.378   1.312
19630WAT     H259133   4.673   6.470   1.197
19631WAT      O59134   8.852   4.663   6.443
19631WAT     H159135   8.772   4.723   6.446
19631WAT     H259136   8.889   4.652   6.535
19632WAT      O59137   0.792   0.148   8.729
19632WAT     H159138   0.802   0.097   8.814
19632WAT     H259139   0.783   0.084   8.653
19633WAT      O59140   6.972   9.173   5.008
19633WAT     H159141   6.977   9.135   5.100
19633WAT     H259142   6.882   9.213   4.994
19634WAT      O59143   2.375   5.670   2.832
19634WAT     H159144   2.451   5.676   2.767
19634WAT     H259145   2.322   5.755   2.828
19635WAT      O59146   7.496   2.984   8.435
19635WAT     H159147   7.589   2.951   8.423
19635WAT     H259148   7.444   2.918   8.489
19636WAT      O59149   5.103   7.460   7.876
19636WAT     H159150   5.082   7.384   7.937
19636WAT     H259151   5.200   7.483   7.884
19637WAT      O59152   2.869   4.995   8.311
19637WAT     H159153   2.858   5.077   8.255
19637WAT     H259154   2.798   4.992   8.381
19638WAT      O59155   0.989   9.397   9.273
19638WAT     H159156   0.938   9.436   9.350
19638WAT     H259157   1.087   9.412   9.287
19639WAT      O59158   9.520   4.557   3.444
19639WAT     H159159   9.499   4.654   3.457
19639WAT     H259160   9.435   4.504   3.449
19640WAT      O59161   5.082   2.036   3.858
19640WAT     H159162   5.074   1.948   3.812
19640WAT     H259163   4.994   2.083   3.855
19641WAT      O59164   9.721   6.805   7.831
19641WAT     H159165   9.772   6.729   7.789
19641WAT     H259166   9.652   6.768   7.893
19642WAT      O59167   5.039   3.990   9.685
19642WAT     H159168   5.021   4.080   9.645
19642WAT     H259169   5.030   3.919   9.615
19643WAT      O59170   9.483   5.833   0.399
19643WAT     H159171   9.515   5.796   0.312
19643WAT     H259172   9.438   5.761   0.451
19644WAT      O59173   4.324   8.943   5.078
19644WAT     H159174   4.235   8.972   5.112
19644WAT     H259175   4.365   8.879   5.144
19645WAT      O59176   2.092   0.621   7.532
19645WAT     H159177   2.186   0.633   7.564
19645WAT     H259178   2.041   0.706   7.547
19646WAT      O59179   6.093   1.528   4.631
19646WAT     H159180   6.113   1.567   4.721
19646WAT     H259181   6.177   1.489   4.592
19647WAT      O59182   6.673   7.778   7.011
19647WAT     H159183   6.590   7.811   6.965
19647WAT     H259184   6.672   7.678   7.013
19648WAT      O59185   1.138   4.694   1.722
19648WAT     H159186   1.198   4.774   1.728
19648WAT     H259187   1.191   4.616   1.687
19649WAT      O59188   5.357   1.980   4.698
19649WAT     H159189   5.441   2.013   4.740
19649WAT     H259190   5.278   2.012   4.751
19650WAT      O59191   2.257   6.818   8.437
19650WAT     H159192   2.300   6.787   8.522
19650WAT     H259193   2.305   6.780   8.359
19651WAT      O59194   6.520   5.376   0.821
19651WAT     H159195   6.467   5.320   0.756
19651WAT     H259196   6.617   5.365   0.802
19652WAT      O59197   1.894   7.109   7.678
19652WAT     H159198   1.846   7.065   7.602
19652WAT     H259199   1.988   7.075   7.683
19653WAT      O59200   2.440   1.620   6.896
19653WAT     H159201   2.346   1.652   6.883
19653WAT     H259202   2.501   1.699   6.903
19654WAT      O59203   0.142   6.046   1.745
19654WAT     H159204   0.058   6.038   1.799
19654WAT     H259205   0.139   6.130   1.691
19655WAT      O59206   1.528   3.595   4.199
19655WAT     H159207   1.557   3.561   4.288
19655WAT     H259208   1.465   3.530   4.156
19656WAT      O59209   0.212   5.110   0.911
19656WAT     H159210   0.310   5.099   0.893
19656WAT     H259211   0.184   5.044   0.981
19657WAT      O59212   7.148   3.640   7.490
19657WAT     H159213   7.238   3.669   7.523
19657WAT     H259214   7.085   3.632   7.567
19658WAT      O59215   3.297   2.419   0.866
19658WAT     H159216   3.284   2.345   0.800
19658WAT     H259217   3.353   2.491   0.826
19659WAT      O59218   0.641   3.565   2.956
19659WAT     H159219   0.612   3.542   2.863
19659WAT     H259220   0.725   3.515   2.978
19660WAT      O59221   4.431   0.644   7.551
19660WAT     H159222   4.350   0.702   7.565
19660WAT     H259223   4.445   0.630   7.453
19661WAT      O59224   7.153   6.548   7.919
19661WAT     H159225   7.054   6.542   7.936
19661WAT     H259226   7.173   6.634   7.871
19662WAT      O59227   4.810   4.075   8.085
19662WAT     H159228   4.798   3.976   8.090
19662WAT     H259229   4.856   4.107   8.168
19663WAT      O59230   8.721   8.122   1.714
19663WAT     H159231   8.785   8.059   1.670
19663WAT     H259232   8.761   8.156   1.800
19664WAT      O59233   0.566   9.034   3.437
19664WAT     H159234   0.528   9.090   3.511
19664WAT     H259235   0.498   9.024   3.364
19665WAT      O59236   2.967   1.615   8.759
19665WAT     H159237   2.977   1.583   8.853
19665WAT     H259238   3.007   1.706   8.750
19666WAT      O59239   2.142   2.937   4.169
19666WAT     H159240   2.134   3.034   4.192
19666WAT     H259241   2.196   2.927   4.086
19667WAT      O59242   3.009   0.168   0.472
19667WAT     H159243   3.043   0.236   0.408
19667WAT     H259244   2.919   0.197   0.507
19668WAT      O59245   7.357   1.087   8.245
19668WAT     H159246   7.414   1.052   8.170
19668WAT     H259247   7.326   1.010   8.301
19669WAT      O59248   1.809   5.617   1.244
19669WAT     H159249   1.890   5.651   1.290
19669WAT     H259250   1.764   5.692   1.195
19670WAT      O59251   1.518   1.566   1.506
19670WAT     H159252   1.463   1.625   1.446
19670WAT     H259253   1.580   1.623   1.561
19671WAT      O59254   9.728   8.813   6.763
19671WAT     H159255   9.721   8.764   6.850
19671WAT     H259256   9.795   8.886   6.771
19672WAT      O59257   0.693   6.235   3.999
19672WAT     H159258   0.758   6.162   3.982
19672WAT     H259259   0.673   6.239   4.097
19673WAT      O59260   0.225   3.818   2.440
19673WAT     H159261   0.191   3.828   2.534
19673WAT     H259262   0.148   3.815   2.377
19674WAT      O59263   0.497   0.643   4.156
19674WAT     H159264   0.488   0.614   4.061
19674WAT     H259265   0.534   0.567   4.210
19675WAT      O59266   8.443   2.834   0.738
19675WAT     H159267   8.495   2.815   0.654
19675WAT     H259268   8.387   2.754   0.761
19676WAT      O59269   3.750   2.841   7.150
19676WAT     H159270   3.798   2.815   7.066
19676WAT     H259271   3.771   2.776   7.223
19677WAT      O59272   3.107   8.475   3.218
19677WAT     H159273   3.104   8.575   3.227
19677WAT     H259274   3.106   8.450   3.122
19678WAT      O59275   3.046   6.969   2.537
19678WAT     H159276   3.130   6.946   2.586
19678WAT     H259277   2.987   6.889   2.532
19679WAT      O59278   3.930   3.189   3.627
19679WAT     H159279   3.922   3.276   3.676
19679WAT     H259280   3.972   3.121   3.687
19680WAT      O59281   5.841   8.261   8.234
19680WAT     H159282   5.941   8.259   8.234
19680WAT     H259283   5.807   8.218   8.150
19681WAT      O59284   4.916   6.028   1.889
19681WAT     H159285   4.839   6.028   1.953
19681WAT     H259286   5.000   6.050   1.939
19682WAT      O59287   2.611   2.179   5.473
19682WAT     H159288   2.602   2.110   5.401
19682WAT     H259289   2.707   2.192   5.496
19683WAT      O59290   5.142   6.280   0.510
19683WAT     H159291   5.111   6.187   0.530
19683WAT     H259292   5.100   6.311   0.424
19684WAT      O59293   4.506   6.994   1.562
19684WAT     H159294   4.474   7.071   1.617
19684WAT     H259295   4.599   7.012   1.530
19685WAT      O59296   1.647   5.679   6.021
19685WAT     H159297   1.692   5.590   6.019
19685WAT     H259298   1.616   5.699   6.115
19686WAT      O59299   0.846   2.534   5.745
19686WAT     H159300   0.824   2.563   5.652
19686WAT     H259301   0.764   2.498   5.789
19687WAT      O59302   1.748   2.568   5.899
19687WAT     H159303   1.819   2.624   5.857
19687WAT     H259304   1.683   2.626   5.948
19688WAT      O59305   8.198   6.936   9.284
19688WAT     H159306   8.123   6.915   9.221
19688WAT     H259307   8.178   6.895   9.374
19689WAT      O59308   6.742   3.168   2.367
19689WAT     H159309   6.727   3.079   2.409
19689WAT     H259310   6.776   3.232   2.437
19690WAT      O59311   6.141   8.442   0.257
19690WAT     H159312   6.066   8.384   0.227
19690WAT     H259313   6.228   8.404   0.225
19691WAT      O59314   3.599   8.322   5.763
19691WAT     H159315   3.617   8.330   5.861
19691WAT     H259316   3.660   8.252   5.725
19692WAT      O59317   0.105   0.002   0.913
19692WAT     H159318   0.096   0.073   0.843
19692WAT     H259319   0.043   0.023   0.989
19693WAT      O59320   0.510   0.641   9.030
19693WAT     H159321   0.436   0.629   9.097
19693WAT     H259322   0.475   0.687   8.949
19694WAT      O59323   8.902   8.340   3.232
19694WAT     H159324   8.856   8.258   3.266
19694WAT     H259325   8.861   8.421   3.274
19695WAT      O59326   6.861   9.045   9.148
19695WAT     H159327   6.786   9.078   9.091
19695WAT     H259328   6.824   9.008   9.233
19696WAT      O59329   6.258   5.738   7.353
19696WAT     H159330   6.261   5.837   7.345
19696WAT     H259331   6.206   5.700   7.277
19697WAT      O59332   6.719   8.745   4.009
19697WAT     H159333   6.770   8.659   4.006
19697WAT     H259334   6.769   8.811   4.066
19698WAT      O59335   7.746   0.549   6.584
19698WAT     H159336   7.745   0.497   6.498
19698WAT     H259337   7.750   0.485   6.661
19699WAT      O59338   8.629   4.179   3.365
19699WAT     H159339   8.717   4.226   3.363
19699WAT     H259340   8.588   4.188   3.456
19700WAT      O59341   9.199   4.144   3.502
19700WAT     H159342   9.248   4.072   3.551
19700WAT     H259343   9.179   4.113   3.409
19701WAT      O59344   7.661   2.500   7.759
19701WAT     H159345   7.666   2.476   7.662
19701WAT     H259346   7.566   2.509   7.787
19702WAT      O59347   1.476   7.908   2.778
19702WAT     H159348   1.450   7.979   2.843
19702WAT     H259349   1.396   7.850   2.759
19703WAT      O59350   2.877   5.531   6.940
19703WAT     H159351   2.871   5.567   7.033
19703WAT     H259352   2.857   5.604   6.874
19704WAT      O59353   3.927   5.855   8.436
19704WAT     H159354   3.945   5.800   8.518
19704WAT     H259355   3.865   5.930   8.459
19705WAT      O59356   6.721   7.443   7.297
19705WAT     H159357   6.719   7.543   7.296
19705WAT     H259358   6.812   7.410   7.274
19706WAT      O59359   7.176   5.235   9.338
19706WAT     H159360   7.249   5.287   9.293
19706WAT     H259361   7.093   5.238   9.282
19707WAT      O59362   3.928   2.244   8.937
19707WAT     H159363   3.963   2.182   8.866
19707WAT     H259364   3.967   2.335   8.923
19708WAT      O59365   4.711   7.800   7.736
19708WAT     H159366   4.785   7.789   7.802
19708WAT     H259367   4.749   7.800   7.643
19709WAT      O59368   9.053   9.757   0.239
19709WAT     H159369   9.088   9.832   0.182
19709WAT     H259370   9.124   9.729   0.303
19710WAT      O59371   1.723   5.746   2.654
19710WAT     H159372   1.715   5.650   2.681
19710WAT     H259373   1.688   5.756   2.561
19711WAT      O59374   7.322   9.195   4.039
19711WAT     H159375   7.419   9.171   4.034
19711WAT     H259376   7.311   9.275   4.098
19712WAT      O59377   6.479   5.517   2.292
19712WAT     H159378   6.558   5.573   2.317
19712WAT     H259379   6.407   5.575   2.254
19713WAT      O59380   8.013   3.938   5.748
19713WAT     H159381   8.082   3.874   5.716
19713WAT     H259382   8.057   4.025   5.772
19714WAT      O59383   4.527   9.737   9.221
19714WAT     H159384   4.534   9.785   9.133
19714WAT     H259385   4.449   9.772   9.273
19715WAT      O59386   8.881   6.069   2.727
19715WAT     H159387   8.860   6.147   2.669
19715WAT     H259388   8.956   6.092   2.789
19716WAT      O59389   2.698   7.015   5.280
19716WAT     H159390   2.762   6.945   5.249
19716WAT     H259391   2.607   6.974   5.291
19717WAT      O59392   4.633   7.291   9.463
19717WAT     H159393   4.601   7.316   9.371
19717WAT     H259394   4.732   7.279   9.461
19718WAT      O59395   0.434   0.967   2.671
19718WAT     H159396   0.482   0.891   2.626
19718WAT     H259397   0.366   1.005   2.609
19719WAT      O59398   3.645   0.484   0.214
19719WAT     H159399   3.732   0.502   0.258
19719WAT     H259400   3.604   0.570   0.182
19720WAT      O59401   8.636   6.024   6.669
19720WAT     H159402   8.580   6.014   6.587
19720WAT     H259403   8.615   5.951   6.733
19721WAT      O59404   3.775   5.589   7.890
19721WAT     H159405   3.805   5.660   7.954
19721WAT     H259406   3.716   5.524   7.937
19722WAT      O59407   4.369   7.643   2.357
19722WAT     H159408   4.336   7.639   2.263
19722WAT     H259409   4.444   7.708   2.364
19723WAT      O59410   9.385   4.207   9.436
19723WAT     H159411   9.459   4.259   9.479
19723WAT     H259412   9.410   4.110   9.434
19724WAT      O59413   4.587   8.927   3.874
19724WAT     H159414   4.602   8.885   3.964
19724WAT     H259415   4.489   8.941   3.860
19725WAT      O59416   3.235   8.956   2.029
19725WAT     H159417   3.263   8.942   2.124
19725WAT     H259418   3.315   8.950   1.969
19726WAT      O59419   2.756   1.064   5.209
19726WAT     H159420   2.841   1.046   5.160
19726WAT     H259421   2.730   1.160   5.196
19727WAT      O59422   6.132   2.129   2.644
19727WAT     H159423   6.179   2.069   2.708
19727WAT     H259424   6.045   2.158   2.683
19728WAT      O59425   7.252   7.364   4.107
19728WAT     H159426   7.314   7.409   4.171
19728WAT     H259427   7.299   7.290   4.061
19729WAT      O59428   3.331   7.510   1.700
19729WAT     H159429   3.367   7.487   1.610
19729WAT     H259430   3.249   7.566   1.691
19730WAT      O59431   1.940   1.169   8.097
19730WAT     H159432   1.852   1.199   8.060
19730WAT     H259433   1.969   1.233   8.168
19731WAT      O59434   1.144   2.155   4.744
19731WAT     H159435   1.203   2.162   4.825
19731WAT     H259436   1.077   2.082   4.758
19732WAT      O59437   9.384   7.659   6.127
19732WAT     H159438   9.310   7.726   6.132
19732WAT     H259439   9.472   7.706   6.136
19733WAT      O59440   3.432   3.993   5.766
19733WAT     H159441   3.442   4.058   5.840
19733WAT     H259442   3.522   3.956   5.741
19734WAT      O59443   7.506   4.819   4.071
19734WAT     H159444   7.601   4.794   4.087
19734WAT     H259445   7.449   4.736   4.071
19735WAT      O59446   5.239   1.178   6.483
19735WAT     H159447   5.335   1.151   6.489
19735WAT     H259448   5.183   1.096   6.464
19736WAT      O59449   4.136   1.104   7.517
19736WAT     H159450   4.055   1.083   7.462
19736WAT     H259451   4.110   1.163   7.594
19737WAT      O59452   9.850   9.239   5.840
19737WAT     H159453   9.852   9.335   5.869
19737WAT     H259454   9.807   9.184   5.912
19738WAT      O59455   1.784   1.036   4.327
19738WAT     H159456   1.706   1.091   4.299
19738WAT     H259457   1.868   1.085   4.309
19739WAT      O59458   5.214   4.995   1.854
19739WAT     H159459   5.209   5.031   1.761
19739WAT     H259460   5.268   5.057   1.911
19740WAT      O59461   9.206   0.109   0.093
19740WAT     H159462   9.220   0.044   0.018
19740WAT     H259463   9.290   0.116   0.147
19741WAT      O59464   0.115   6.865   6.223
19741WAT     H159465   0.201   6.815   6.232
19741WAT     H259466   0.040   6.806   6.255
19742WAT      O59467   4.938   4.943   6.573
19742WAT     H159468   4.990   5.028   6.582
19742WAT     H259469   4.900   4.936   6.481
19743WAT      O59470   7.520   4.724   6.239
19743WAT     H159471   7.446   4.709   6.174
19743WAT     H259472   7.515   4.654   6.310
19744WAT      O59473   4.670   3.491   6.950
19744WAT     H159474   4.662   3.392   6.945
19744WAT     H259475   4.581   3.533   6.934
19745WAT      O59476   3.608   4.938   0.653
19745WAT     H159477   3.566   5.001   0.717
19745WAT     H259478   3.551   4.855   0.647
19746WAT      O59479   5.038   1.283   3.537
19746WAT     H159480   5.077   1.198   3.502
19746WAT     H259481   5.095   1.360   3.510
19747WAT      O59482   2.610   9.756   5.180
19747WAT     H159483   2.550   9.777   5.257
19747WAT     H259484   2.675   9.684   5.207
19748WAT      O59485   1.642   2.808   6.034
19748WAT     H159486   1.668   2.759   6.117
19748WAT     H259487   1.586   2.888   6.058
19749WAT      O59488   6.058   8.710   0.226
19749WAT     H159489   6.108   8.788   0.266
19749WAT     H259490   6.118   8.630   0.224
19750WAT      O59491   7.986   6.314   0.359
19750WAT     H159492   8.022   6.371   0.285
19750WAT     H259493   7.951   6.228   0.322
19751WAT      O59494   2.522   2.320   4.461
19751WAT     H159495   2.437   2.304   4.511
19751WAT     H259496   2.564   2.405   4.494
19752WAT      O59497   2.816   2.863   7.549
19752WAT     H159498   2.775   2.917   7.623
19752WAT     H259499   2.901   2.821   7.581
19753WAT      O59500   2.670   1.420   5.861
19753WAT     H159501   2.572   1.399   5.854
19753WAT     H259502   2.705   1.390   5.949
19754WAT      O59503   2.514   1.424   0.600
19754WAT     H159504   2.546   1.475   0.680
19754WAT     H259505   2.592   1.399   0.542
19755WAT      O59506   4.121   2.350   1.189
19755WAT     H159507   4.145   2.431   1.244
19755WAT     H259508   4.204   2.308   1.154
19756WAT      O59509   6.635   8.252   8.572
19756WAT     H159510   6.682   8.235   8.485
19756WAT     H259511   6.548   8.298   8.554
19757WAT      O59512   9.110   5.685   6.715
19757WAT     H159513   9.081   5.628   6.638
19757WAT     H259514   9.205   5.714   6.700
19758WAT      O59515   7.039   8.751   4.351
19758WAT     H159516   6.992   8.777   4.266
19758WAT     H259517   7.137   8.745   4.335
19759WAT      O59518   5.788   7.420   8.017
19759WAT     H159519   5.818   7.506   8.060
19759WAT     H259520   5.859   7.387   7.955
19760WAT      O59521   9.376   5.973   3.174
19760WAT     H159522   9.340   6.064   3.154
19760WAT     H259523   9.370   5.916   3.092
19761WAT      O59524   2.059   9.113   7.460
19761WAT     H159525   1.980   9.165   7.492
19761WAT     H259526   2.140   9.139   7.512
19762WAT      O59527   9.303   1.287   9.124
19762WAT     H159528   9.393   1.314   9.156
19762WAT     H259529   9.286   1.192   9.150
19763WAT      O59530   6.915   2.696   0.236
19763WAT     H159531   6.898   2.599   0.221
19763WAT     H259532   7.010   2.710   0.263
19764WAT      O59533   9.266   8.843   1.463
19764WAT     H159534   9.250   8.799   1.551
19764WAT     H259535   9.362   8.870   1.456
19765WAT      O59536   2.583   7.600   8.021
19765WAT     H159537   2.517   7.630   7.952
19765WAT     H259538   2.547   7.519   8.067
19766WAT      O59539   2.837   5.940   2.845
19766WAT     H159540   2.748   5.984   2.853
19766WAT     H259541   2.907   6.008   2.823
19767WAT      O59542   0.616   2.297   1.747
19767WAT     H159543   0.647   2.214   1.701
19767WAT     H259544   0.658   2.377   1.705
19768WAT      O59545   8.828   7.283   2.832
19768WAT     H159546   8.843   7.205   2.893
19768WAT     H259547   8.751   7.337   2.865
19769WAT      O59548   6.989   0.388   5.416
19769WAT     H159549   6.947   0.420   5.331
19769WAT     H259550   6.973   0.457   5.488
19770WAT      O59551   6.980   5.214   9.155
19770WAT     H159552   6.956   5.120   9.130
19770WAT     H259553   6.896   5.266   9.173
19771WAT      O59554   9.397   8.967   6.258
19771WAT     H159555   9.338   8.887   6.271
19771WAT     H259556   9.383   9.004   6.166
19772WAT      O59557   1.502   0.394   2.092
19772WAT     H159558   1.484   0.352   2.181
19772WAT     H259559   1.600   0.395   2.074
19773WAT      O59560   8.924   7.322   5.050
19773WAT     H159561   8.957   7.260   5.121
19773WAT     H259562   8.957   7.291   4.961
19774WAT      O59563   5.663   0.006   4.001
19774WAT     H159564   5.681   0.090   4.052
19774WAT     H259565   5.564  -0.010   3.998
19775WAT      O59566   9.009   4.681   3.342
19775WAT     H159567   9.091   4.738   3.352
19775WAT     H259568   8.998   4.623   3.422
19776WAT      O59569   9.062   9.296   1.484
19776WAT     H159570   9.159   9.272   1.474
19776WAT     H259571   9.015   9.227   1.539
19777WAT      O59572   2.900   9.210   5.237
19777WAT     H159573   2.829   9.277   5.216
19777WAT     H259574   2.862   9.139   5.298
19778WAT      O59575   5.807   8.023   0.124
19778WAT     H159576   5.779   8.053   0.215
19778WAT     H259577   5.877   8.085   0.088
19779WAT      O59578   4.194   2.773   5.367
19779WAT     H159579   4.175   2.765   5.269
19779WAT     H259580   4.148   2.699   5.416
19780WAT      O59581   3.565   3.025   1.765
19780WAT     H159582   3.517   2.938   1.758
19780WAT     H259583   3.512   3.096   1.719
19781WAT      O59584   6.508   8.335   9.485
19781WAT     H159585   6.439   8.311   9.416
19781WAT     H259586   6.599   8.322   9.447
19782WAT      O59587   1.393   6.920   8.412
19782WAT     H159588   1.332   6.966   8.476
19782WAT     H259589   1.367   6.823   8.405
19783WAT      O59590   8.711   8.098   2.645
19783WAT     H159591   8.669   8.016   2.685
19783WAT     H259592   8.709   8.172   2.712
19784WAT      O59593   0.142   1.285   9.482
19784WAT     H159594   0.118   1.289   9.579
19784WAT     H259595   0.164   1.191   9.457
19785WAT      O59596   2.871   4.525   7.800
19785WAT     H159597   2.901   4.612   7.840
19785WAT     H259598   2.867   4.455   7.871
19786WAT      O59599   0.023   0.720   5.600
19786WAT     H159600  -0.059   0.771   5.576
19786WAT     H259601   0.009   0.675   5.688
19787WAT      O59602   5.901   2.169   9.095
19787WAT     H159603   5.992   2.135   9.118
19787WAT     H259604   5.890   2.262   9.129
19788WAT      O59605   7.802   0.277   4.667
19788WAT     H159606   7.866   0.236   4.732
19788WAT     H259607   7.725   0.215   4.652
19789WAT      O59608   6.283   8.428   7.857
19789WAT     H159609   6.201   8.397   7.808
19789WAT     H259610   6.257   8.457   7.950
19790WAT      O59611   6.433   5.722   4.530
19790WAT     H159612   6.360   5.769   4.479
19790WAT     H259613   6.513   5.781   4.535
19791WAT      O59614   4.994   8.517   8.189
19791WAT     H159615   5.087   8.515   8.226
19791WAT     H259616   4.972   8.611   8.161
19792WAT      O59617   5.627   0.639   2.270
19792WAT     H159618   5.591   0.727   2.241
19792WAT     H259619   5.629   0.576   2.193
19793WAT      O59620   8.163   0.343   2.579
19793WAT     H159621   8.233   0.289   2.531
19793WAT     H259622   8.145   0.303   2.668
19794WAT      O59623   1.673   5.686   9.287
19794WAT     H159624   1.712   5.617   9.349
19794WAT     H259625   1.656   5.645   9.198
19795WAT      O59626   0.324   7.955   1.263
19795WAT     H159627   0.331   7.895   1.343
19795WAT     H259628   0.373   8.040   1.280
19796WAT      O59629   1.473   2.699   8.396
19796WAT     H159630   1.430   2.612   8.421
19796WAT     H259631   1.405   2.773   8.402
19797WAT      O59632   0.756   7.656   2.140
19797WAT     H159633   0.745   7.559   2.115
19797WAT     H259634   0.806   7.662   2.226
19798WAT      O59635   8.965   9.572   3.698
19798WAT     H159636   8.956   9.557   3.796
19798WAT     H259637   9.041   9.518   3.663
19799WAT      O59638   6.832   6.353   7.891
19799WAT     H159639   6.845   6.443   7.931
19799WAT     H259640   6.736   6.341   7.865
19800WAT      O59641   1.935   1.311   5.167
19800WAT     H159642   1.986   1.227   5.149
19800WAT     H259643   1.908   1.314   5.263
19801WAT      O59644   8.115   9.837   2.544
19801WAT     H159645   8.028   9.863   2.585
19801WAT     H259646   8.108   9.744   2.508
19802WAT      O59647   9.690   2.241   6.493
19802WAT     H159648   9.714   2.337   6.507
19802WAT     H259649   9.755   2.183   6.541
19803WAT      O59650   3.528   3.387   3.274
19803WAT     H159651   3.577   3.347   3.352
19803WAT     H259652   3.550   3.336   3.191
19804WAT      O59653   9.280   3.046   7.162
19804WAT     H159654   9.328   3.034   7.249
19804WAT     H259655   9.342   3.025   7.086
19805WAT      O59656   1.732   0.166   9.357
19805WAT     H159657   1.707   0.122   9.271
19805WAT     H259658   1.691   0.116   9.434
19806WAT      O59659   6.637   6.346   5.369
19806WAT     H159660   6.547   6.330   5.412
19806WAT     H259661   6.687   6.259   5.366
19807WAT      O59662   1.104   7.741   7.804
19807WAT     H159663   1.149   7.674   7.862
19807WAT     H259664   1.060   7.811   7.861
19808WAT      O59665   3.286   2.702   4.941
19808WAT     H159666   3.219   2.684   5.014
19808WAT     H259667   3.378   2.681   4.974
19809WAT      O59668   1.074   9.644   7.982
19809WAT     H159669   0.994   9.592   7.954
19809WAT     H259670   1.067   9.738   7.949
19810WAT      O59671   1.695   2.025   8.625
19810WAT     H159672   1.755   2.008   8.703
19810WAT     H259673   1.741   1.996   8.541
19811WAT      O59674   7.004   7.027   1.293
19811WAT     H159675   7.070   7.101   1.306
19811WAT     H259676   6.975   6.993   1.383
19812WAT      O59677   6.280   7.320   9.089
19812WAT     H159678   6.302   7.416   9.073
19812WAT     H259679   6.187   7.312   9.124
19813WAT      O59680   2.602   3.048   6.989
19813WAT     H159681   2.520   3.011   6.945
19813WAT     H259682   2.608   3.146   6.972
19814WAT      O59683   4.308   2.791   9.374
19814WAT     H159684   4.291   2.880   9.331
19814WAT     H259685   4.325   2.722   9.303
19815WAT      O59686   0.589   0.082   4.329
19815WAT     H159687   0.543   0.145   4.266
19815WAT     H259688   0.644   0.017   4.277
19816WAT      O59689   4.336   4.561   7.180
19816WAT     H159690   4.240   4.589   7.178
19816WAT     H259691   4.355   4.502   7.102
19817WAT      O59692   8.484   7.598   8.271
19817WAT     H159693   8.504   7.593   8.369
19817WAT     H259694   8.486   7.506   8.232
19818WAT      O59695   8.905   3.558   3.553
19818WAT     H159696   8.856   3.484   3.598
19818WAT     H259697   8.839   3.620   3.509
19819WAT      O59698   3.982   8.069   4.023
19819WAT     H159699   4.044   8.065   3.944
19819WAT     H259700   3.901   8.122   3.999
19820WAT      O59701   7.329   9.623   3.392
19820WAT     H159702   7.268   9.543   3.388
19820WAT     H259703   7.391   9.612   3.470
19821WAT      O59704   4.492   7.531   1.502
19821WAT     H159705   4.513   7.606   1.439
19821WAT     H259706   4.557   7.531   1.578
19822WAT      O59707   1.536   5.753   9.526
19822WAT     H159708   1.596   5.703   9.588
19822WAT     H259709   1.570   5.743   9.432
19823WAT      O59710   5.059   4.696   7.803
19823WAT     H159711   4.991   4.732   7.867
19823WAT     H259712   5.021   4.696   7.710
19824WAT      O59713   7.732   8.055   2.432
19824WAT     H159714   7.755   7.990   2.504
19824WAT     H259715   7.658   8.114   2.463
19825WAT      O59716   1.441   0.912   4.204
19825WAT     H159717   1.352   0.874   4.228
19825WAT     H259718   1.433   1.010   4.188
19826WAT      O59719   0.556   7.185   7.580
19826WAT     H159720   0.631   7.119   7.591
19826WAT     H259721   0.474   7.137   7.551
19827WAT      O59722   9.139   4.092   2.524
19827WAT     H159723   9.199   4.149   2.468
19827WAT     H259724   9.194   4.035   2.586
19828WAT      O59725   7.449   8.312   4.211
19828WAT     H159726   7.496   8.372   4.275
19828WAT     H259727   7.514   8.245   4.175
19829WAT      O59728   2.741   6.443   9.705
19829WAT     H159729   2.800   6.489   9.771
19829WAT     H259730   2.682   6.510   9.661
19830WAT      O59731   6.054   2.668   1.340
19830WAT     H159732   6.125   2.605   1.373
19830WAT     H259733   5.965   2.636   1.372
19831WAT      O59734   6.942   5.988   0.600
19831WAT     H159735   6.907   6.068   0.649
19831WAT     H259736   6.973   6.016   0.509
19832WAT      O59737   6.588   4.987   5.684
19832WAT     H159738   6.571   5.065   5.624
19832WAT     H259739   6.592   4.903   5.629
19833WAT      O59740   3.879   9.386   9.480
19833WAT     H159741   3.786   9.350   9.484
19833WAT     H259742   3.944   9.311   9.474
19834WAT      O59743   7.214   7.346   5.151
19834WAT     H159744   7.153   7.272   5.179
19834WAT     H259745   7.309   7.313   5.154
19835WAT      O59746   7.489   1.027   7.326
19835WAT     H159747   7.588   1.037   7.336
19835WAT     H259748   7.443   1.073   7.401
19836WAT      O59749   9.380   1.733   9.789
19836WAT     H159750   9.285   1.761   9.800
19836WAT     H259751   9.391   1.639   9.821
19837WAT      O59752   2.517   1.639   7.635
19837WAT     H159753   2.433   1.589   7.613
19837WAT     H259754   2.573   1.583   7.698
19838WAT      O59755   7.985   5.313   3.655
19838WAT     H159756   7.937   5.357   3.732
19838WAT     H259757   7.941   5.225   3.634
19839WAT      O59758   9.751   2.439   0.166
19839WAT     H159759   9.850   2.452   0.181
19839WAT     H259760   9.721   2.500   0.093
19840WAT      O59761   9.650   3.256   4.646
19840WAT     H159762   9.741   3.242   4.607
19840WAT     H259763   9.651   3.233   4.744
19841WAT      O59764   0.742   3.332   7.112
19841WAT     H159765   0.736   3.422   7.069
19841WAT     H259766   0.684   3.267   7.063
19842WAT      O59767   7.380   7.642   6.498
19842WAT     H159768   7.395   7.543   6.507
19842WAT     H259769   7.288   7.664   6.528
19843WAT      O59770   8.387   4.837   9.713
19843WAT     H159771   8.317   4.900   9.679
19843WAT     H259772   8.424   4.783   9.637
19844WAT      O59773   6.538   7.502   5.316
19844WAT     H159774   6.500   7.569   5.252
19844WAT     H259775   6.488   7.416   5.308
19845WAT      O59776   4.274   8.317   4.649
19845WAT     H159777   4.246   8.254   4.722
19845WAT     H259778   4.274   8.268   4.562
19846WAT      O59779   8.457   7.361   8.125
19846WAT     H159780   8.360   7.340   8.116
19846WAT     H259781   8.510   7.277   8.131
19847WAT      O59782   3.549   4.535   3.285
19847WAT     H159783   3.612   4.597   3.332
19847WAT     H259784   3.533   4.454   3.341
19848WAT      O59785   0.944   7.347   0.783
19848WAT     H159786   1.018   7.351   0.715
19848WAT     H259787   0.934   7.436   0.826
19849WAT      O59788   3.609   7.270   2.211
19849WAT     H159789   3.641   7.176   2.211
19849WAT     H259790   3.514   7.273   2.179
19850WAT      O59791   2.228   1.805   3.030
19850WAT     H159792   2.176   1.861   3.095
19850WAT     H259793   2.217   1.843   2.938
19851WAT      O59794   3.277   6.174   4.501
19851WAT     H159795   3.247   6.270   4.496
19851WAT     H259796   3.291   6.139   4.408
19852WAT      O59797   1.300   7.654   8.168
19852WAT     H159798   1.345   7.727   8.118
19852WAT     H259799   1.367   7.588   8.200
19853WAT      O59800   5.086   5.333   1.314
19853WAT     H159801   5.019   5.283   1.369
19853WAT     H259802   5.087   5.295   1.221
19854WAT      O59803   2.808   2.338   6.511
19854WAT     H159804   2.846   2.412   6.456
19854WAT     H259805   2.763   2.271   6.452
19855WAT      O59806   6.911   2.788   3.878
19855WAT     H159807   6.974   2.839   3.937
19855WAT     H259808   6.865   2.718   3.931
19856WAT      O59809   5.589   3.026   0.076
19856WAT     H159810   5.558   2.990  -0.012
19856WAT     H259811   5.510   3.048   0.133
19857WAT      O59812   2.517   2.576   7.360
19857WAT     H159813   2.464   2.611   7.438
19857WAT     H259814   2.614   2.590   7.377
19858WAT      O59815   5.219   8.887   4.296
19858WAT     H159816   5.209   8.798   4.341
19858WAT     H259817   5.315   8.904   4.276
19859WAT      O59818   7.960   8.087   1.886
19859WAT     H159819   8.029   8.018   1.864
19859WAT     H259820   7.874   8.063   1.842
19860WAT      O59821   2.063   5.821   8.640
19860WAT     H159822   2.070   5.886   8.564
19860WAT     H259823   2.118   5.741   8.621
19861WAT      O59824   1.305   9.254   7.761
19861WAT     H159825   1.293   9.353   7.758
19861WAT     H259826   1.216   9.210   7.772
19862WAT      O59827   9.844   2.771   6.909
19862WAT     H159828   9.773   2.838   6.929
19862WAT     H259829   9.881   2.788   6.818
19863WAT      O59830   5.544   7.499   3.274
19863WAT     H159831   5.528   7.486   3.372
19863WAT     H259832   5.582   7.590   3.259
19864WAT      O59833   8.890   2.668   9.450
19864WAT     H159834   8.933   2.716   9.374
19864WAT     H259835   8.791   2.679   9.445
19865WAT      O59836   5.739   3.746   8.428
19865WAT     H159837   5.743   3.680   8.503
19865WAT     H259838   5.699   3.832   8.460
19866WAT      O59839   4.645   9.846   8.668
19866WAT     H159840   4.568   9.787   8.691
19866WAT     H259841   4.713   9.794   8.616
19867WAT      O59842   7.273   2.862   2.403
19867WAT     H159843   7.271   2.812   2.490
19867WAT     H259844   7.363   2.902   2.389
19868WAT      O59845   7.603   0.060   4.167
19868WAT     H159846   7.595   0.086   4.070
19868WAT     H259847   7.673   0.116   4.210
19869WAT      O59848   1.422   7.375   4.192
19869WAT     H159849   1.516   7.409   4.193
19869WAT     H259850   1.418   7.291   4.138
19870WAT      O59851   6.427   4.283   8.509
19870WAT     H159852   6.461   4.258   8.419
19870WAT     H259853   6.382   4.205   8.551
19871WAT      O59854   9.151   0.876   7.772
19871WAT     H159855   9.173   0.956   7.716
19871WAT     H259856   9.232   0.818   7.782
19872WAT      O59857   6.453   0.954   9.878
19872WAT     H159858   6.551   0.956   9.862
19872WAT     H259859   6.431   0.879   9.941
19873WAT      O59860   7.193   0.637   0.641
19873WAT     H159861   7.183   0.538   0.646
19873WAT     H259862   7.126   0.681   0.700
19874WAT      O59863   8.872   3.559   4.155
19874WAT     H159864   8.813   3.487   4.119
19874WAT     H259865   8.911   3.610   4.079
19875WAT      O59866   0.280   4.362   7.988
19875WAT     H159867   0.208   4.431   7.979
19875WAT     H259868   0.363   4.406   8.023
19876WAT      O59869   5.945   0.673   0.536
19876WAT     H159870   6.035   0.696   0.500
19876WAT     H259871   5.954   0.623   0.622
19877WAT      O59872   8.180   2.436   3.187
19877WAT     H159873   8.170   2.380   3.104
19877WAT     H259874   8.188   2.532   3.161
19878WAT      O59875   6.785   1.885   2.958
19878WAT     H159876   6.805   1.901   3.054
19878WAT     H259877   6.747   1.794   2.946
19879WAT      O59878   5.233   7.039   3.487
19879WAT     H159879   5.171   7.049   3.565
19879WAT     H259880   5.218   7.114   3.423
19880WAT      O59881   7.335   5.128   8.428
19880WAT     H159882   7.375   5.159   8.514
19880WAT     H259883   7.312   5.208   8.372
19881WAT      O59884   9.285   3.532   1.248
19881WAT     H159885   9.278   3.593   1.169
19881WAT     H259886   9.317   3.442   1.219
19882WAT      O59887   9.549   2.267   9.629
19882WAT     H159888   9.611   2.226   9.697
19882WAT     H259889   9.499   2.194   9.582
19883WAT      O59890   2.324   4.157   8.687
19883WAT     H159891   2.341   4.233   8.625
19883WAT     H259892   2.320   4.192   8.781
19884WAT      O59893   7.837   3.589   0.606
19884WAT     H159894   7.801   3.563   0.696
19884WAT     H259895   7.899   3.666   0.617
19885WAT      O59896   7.192   5.408   2.411
19885WAT     H159897   7.181   5.331   2.348
19885WAT     H259898   7.246   5.480   2.366
19886WAT      O59899   9.567   8.311   1.024
19886WAT     H159900   9.586   8.399   0.982
19886WAT     H259901   9.649   8.254   1.023
19887WAT      O59902   2.351   6.218   9.199
19887WAT     H159903   2.261   6.184   9.226
19887WAT     H259904   2.344   6.315   9.174
19888WAT      O59905   2.412   0.364   2.132
19888WAT     H159906   2.416   0.427   2.055
19888WAT     H259907   2.427   0.414   2.217
19889WAT      O59908   4.575   0.854   7.038
19889WAT     H159909   4.614   0.946   7.049
19889WAT     H259910   4.617   0.792   7.105
19890WAT      O59911   2.804   1.918   3.095
19890WAT     H159912   2.721   1.867   3.119
19890WAT     H259913   2.847   1.877   3.015
19891WAT      O59914   9.677   4.844   6.705
19891WAT     H159915   9.582   4.854   6.676
19891WAT     H259916   9.696   4.748   6.727
19892WAT      O59917   6.847   9.775   5.231
19892WAT     H159918   6.780   9.787   5.157
19892WAT     H259919   6.840   9.852   5.295
19893WAT      O59920   8.935   9.133   3.125
19893WAT     H159921   8.859   9.188   3.091
19893WAT     H259922   8.951   9.056   3.064
19894WAT      O59923   3.079   7.759   1.562
19894WAT     H159924   3.060   7.849   1.522
19894WAT     H259925   3.078   7.766   1.662
19895WAT      O59926   8.379   3.913   3.338
19895WAT     H159927   8.429   3.864   3.267
19895WAT     H259928   8.407   3.878   3.428
19896WAT      O59929   7.460   1.636   5.716
19896WAT     H159930   7.494   1.660   5.807
19896WAT     H259931   7.532   1.590   5.664
19897WAT      O59932   8.979   6.847   4.352
19897WAT     H159933   9.073   6.865   4.322
19897WAT     H259934   8.979   6.825   4.449
19898WAT      O59935   3.020   0.203   6.942
19898WAT     H159936   3.021   0.289   6.891
19898WAT     H259937   3.113   0.165   6.945
19899WAT      O59938   8.139   7.588   7.146
19899WAT     H159939   8.112   7.626   7.058
19899WAT     H259940   8.071   7.521   7.176
19900WAT      O59941   1.328   5.208   1.193
19900WAT     H159942   1.316   5.130   1.254
19900WAT     H259943   1.364   5.177   1.105
19901WAT      O59944   8.172   5.140   3.725
19901WAT     H159945   8.121   5.214   3.681
19901WAT     H259946   8.168   5.152   3.824
19902WAT      O59947   2.500   5.129   3.631
19902WAT     H159948   2.487   5.140   3.533
19902WAT     H259949   2.413   5.143   3.678
19903WAT      O59950   8.009   6.454   4.121
19903WAT     H159951   8.035   6.464   4.217
19903WAT     H259952   8.028   6.539   4.072
19904WAT      O59953   4.961   0.467   7.766
19904WAT     H159954   4.956   0.560   7.728
19904WAT     H259955   5.056   0.447   7.792
19905WAT      O59956   6.286   3.027   1.599
19905WAT     H159957   6.218   3.065   1.536
19905WAT     H259958   6.376   3.064   1.577
19906WAT      O59959   6.765   6.528   5.188
19906WAT     H159960   6.728   6.463   5.254
19906WAT     H259961   6.764   6.486   5.097
19907WAT      O59962   4.226   1.307   3.109
19907WAT     H159963   4.189   1.256   3.186
19907WAT     H259964   4.311   1.352   3.136
19908WAT      O59965   2.299   9.488   5.394
19908WAT     H159966   2.228   9.453   5.455
19908WAT     H259967   2.281   9.457   5.300
19909WAT      O59968   9.209   3.592   9.633
19909WAT     H159969   9.123   3.563   9.589
19909WAT     H259970   9.194   3.678   9.682
19910WAT      O59971   6.192   3.514   6.866
19910WAT     H159972   6.236   3.594   6.826
19910WAT     H259973   6.249   3.434   6.852
19911WAT      O59974   3.957   6.124   0.316
19911WAT     H159975   3.918   6.070   0.241
19911WAT     H259976   3.953   6.222   0.292
19912WAT      O59977   1.714   1.242   1.229
19912WAT     H159978   1.650   1.179   1.274
19912WAT     H259979   1.807   1.208   1.240
19913WAT      O59980   8.046   7.854   5.777
19913WAT     H159981   7.983   7.870   5.701
19913WAT     H259982   8.023   7.768   5.822
19914WAT      O59983   1.397   1.747   4.449
19914WAT     H159984   1.476   1.687   4.464
19914WAT     H259985   1.356   1.771   4.537
19915WAT      O59986   3.570   0.935   3.910
19915WAT     H159987   3.562   1.021   3.959
19915WAT     H259988   3.553   0.950   3.813
19916WAT      O59989   5.158   3.753   8.843
19916WAT     H159990   5.139   3.659   8.813
19916WAT     H259991   5.254   3.775   8.826
19917WAT      O59992   2.699   7.399   1.447
19917WAT     H159993   2.659   7.486   1.418
19917WAT     H259994   2.727   7.406   1.543
19918WAT      O59995   3.250   0.914   5.358
19918WAT     H159996   3.170   0.916   5.418
19918WAT     H259997   3.272   0.819   5.334
19919WAT      O59998   8.280   3.093   3.547
19919WAT     H159999   8.343   3.077   3.470
19919WAT     H260000   8.209   3.023   3.547
19920WAT      O60001   5.177   5.391   7.074
19920WAT     H160002   5.167   5.338   7.159
19920WAT     H260003   5.088   5.399   7.029
19921WAT      O60004   9.403   8.589   7.590
19921WAT     H160005   9.455   8.513   7.629
19921WAT     H260006   9.460   8.639   7.524
19922WAT      O60007   5.874   3.321   7.340
19922WAT     H160008   5.968   3.310   7.306
19922WAT     H260009   5.816   3.354   7.266
19923WAT      O60010   0.001   4.645   6.538
19923WAT     H160011   0.087   4.689   6.563
19923WAT     H260012  -0.049   4.620   6.621
19924WAT      O60013   4.303   3.366   0.593
19924WAT     H160014   4.369   3.305   0.548
19924WAT     H260015   4.335   3.388   0.685
19925WAT      O60016   0.046   3.108   5.178
19925WAT     H160017   0.066   3.081   5.084
19925WAT     H260018  -0.002   3.196   5.178
19926WAT      O60019   5.304   1.287   3.799
19926WAT     H160020   5.284   1.221   3.726
19926WAT     H260021   5.382   1.343   3.771
19927WAT      O60022   8.921   8.362   2.950
19927WAT     H160023   8.899   8.383   3.045
19927WAT     H260024   8.841   8.322   2.905
19928WAT      O60025   9.637   5.179   4.966
19928WAT     H160026   9.582   5.099   4.940
19928WAT     H260027   9.701   5.153   5.038
19929WAT      O60028   3.978   3.867   2.554
19929WAT     H160029   4.067   3.867   2.600
19929WAT     H260030   3.933   3.955   2.570
19930WAT      O60031   8.153   7.370   1.567
19930WAT     H160032   8.168   7.431   1.645
19930WAT     H260033   8.157   7.423   1.482
19931WAT      O60034   7.209   9.779   6.473
19931WAT     H160035   7.258   9.692   6.470
19931WAT     H260036   7.272   9.852   6.498
19932WAT      O60037   3.254   5.169   4.290
19932WAT     H160038   3.334   5.224   4.267
19932WAT     H260039   3.189   5.170   4.214
19933WAT      O60040   8.579   9.460   4.611
19933WAT     H160041   8.650   9.390   4.603
19933WAT     H260042   8.505   9.438   4.547
19934WAT      O60043   0.975   8.601   5.609
19934WAT     H160044   0.990   8.697   5.635
19934WAT     H260045   0.987   8.543   5.690
19935WAT      O60046   1.190   7.763   9.571
19935WAT     H160047   1.134   7.800   9.645
19935WAT     H260048   1.276   7.728   9.609
19936WAT      O60049   5.705   8.330   1.901
19936WAT     H160050   5.637   8.335   1.974
19936WAT     H260051   5.779   8.395   1.920
19937WAT      O60052   2.384   1.179   4.240
19937WAT     H160053   2.343   1.092   4.214
19937WAT     H260054   2.367   1.246   4.168
19938WAT      O60055   4.163   0.394   6.207
19938WAT     H160056   4.169   0.320   6.140
19938WAT     H260057   4.082   0.450   6.188
19939WAT      O60058   1.694   2.504   1.540
19939WAT     H160059   1.632   2.570   1.498
19939WAT     H260060   1.788   2.523   1.510
19940WAT      O60061   7.910   4.233   2.747
19940WAT     H160062   7.954   4.322   2.753
19940WAT     H260063   7.955   4.169   2.810
19941WAT      O60064   7.129   8.848   8.345
19941WAT     H160065   7.104   8.774   8.283
19941WAT     H260066   7.198   8.816   8.409
19942WAT      O60067   1.734   4.417   6.207
19942WAT     H160068   1.676   4.341   6.180
19942WAT     H260069   1.786   4.450   6.128
19943WAT      O60070   3.027   4.651   6.364
19943WAT     H160071   2.965   4.726   6.385
19943WAT     H260072   3.048   4.651   6.266
19944WAT      O60073   8.427   7.196   1.279
19944WAT     H160074   8.368   7.137   1.335
19944WAT     H260075   8.391   7.199   1.186
19945WAT      O60076   6.878   2.566   8.581
19945WAT     H160077   6.941   2.617   8.522
19945WAT     H260078   6.804   2.527   8.526
19946WAT      O60079   2.964   8.071   7.925
19946WAT     H160080   3.008   8.160   7.911
19946WAT     H260081   2.990   8.034   8.014
19947WAT      O60082   4.644   7.132   9.793
19947WAT     H160083   4.574   7.190   9.753
19947WAT     H260084   4.602   7.072   9.862
19948WAT      O60085   4.879   9.716   4.401
19948WAT     H160086   4.974   9.734   4.427
19948WAT     H260087   4.823   9.706   4.483
19949WAT      O60088   9.487   0.256   5.213
19949WAT     H160089   9.543   0.288   5.137
19949WAT     H260090   9.538   0.265   5.298
19950WAT      O60091   8.323   9.542   3.918
19950WAT     H160092   8.266   9.482   3.974
19950WAT     H260093   8.281   9.555   3.828
19951WAT      O60094   7.844   6.139   6.211
19951WAT     H160095   7.829   6.109   6.117
19951WAT     H260096   7.756   6.159   6.254
19952WAT      O60097   4.728   0.172   5.136
19952WAT     H160098   4.745   0.226   5.218
19952WAT     H260099   4.754   0.076   5.153
19953WAT      O60100   0.446   7.910   3.146
19953WAT     H160101   0.467   7.846   3.220
19953WAT     H260102   0.527   7.926   3.090
19954WAT      O60103   0.754   1.292   5.334
19954WAT     H160104   0.794   1.247   5.414
19954WAT     H260105   0.744   1.226   5.260
19955WAT      O60106   4.862   0.351   8.539
19955WAT     H160107   4.843   0.383   8.446
19955WAT     H260108   4.918   0.419   8.586
19956WAT      O60109   8.379   1.984   7.284
19956WAT     H160110   8.471   1.953   7.262
19956WAT     H260111   8.323   1.906   7.312
19957WAT      O60112   9.564   4.448   6.532
19957WAT     H160113   9.619   4.366   6.548
19957WAT     H260114   9.551   4.496   6.618
19958WAT      O60115   5.678   4.706   8.363
19958WAT     H160116   5.756   4.708   8.425
19958WAT     H260117   5.690   4.633   8.296
19959WAT      O60118   5.107   4.296   1.638
19959WAT     H160119   5.156   4.238   1.572
19959WAT     H260120   5.027   4.336   1.593
19960WAT      O60121   5.428   6.035   3.535
19960WAT     H160122   5.506   6.012   3.476
19960WAT     H260123   5.462   6.079   3.619
19961WAT      O60124   1.860   1.072   2.060
19961WAT     H160125   1.769   1.108   2.080
19961WAT     H260126   1.855   0.973   2.049
19962WAT      O60127   2.196   0.976   7.472
19962WAT     H160128   2.171   1.063   7.428
19962WAT     H260129   2.292   0.980   7.501
19963WAT      O60130   0.004   7.100   8.484
19963WAT     H160131  -0.058   7.097   8.406
19963WAT     H260132  -0.007   7.187   8.532
19964WAT      O60133   8.836   5.706   8.799
19964WAT     H160134   8.756   5.649   8.818
19964WAT     H260135   8.810   5.779   8.736
19965WAT      O60136   5.500   4.372   0.381
19965WAT     H160137   5.489   4.367   0.282
19965WAT     H260138   5.460   4.457   0.415
19966WAT      O60139   1.026   4.765   4.585
19966WAT     H160140   1.092   4.747   4.511
19966WAT     H260141   1.014   4.864   4.595
19967WAT      O60142   7.074   6.241   4.311
19967WAT     H160143   7.031   6.236   4.221
19967WAT     H260144   7.051   6.328   4.355
19968WAT      O60145   5.488   1.117   5.561
19968WAT     H160146   5.456   1.026   5.536
19968WAT     H260147   5.433   1.151   5.638
19969WAT      O60148   3.823   9.480   2.853
19969WAT     H160149   3.903   9.533   2.824
19969WAT     H260150   3.765   9.536   2.911
19970WAT      O60151   9.099   2.605   4.613
19970WAT     H160152   9.156   2.529   4.642
19970WAT     H260153   9.089   2.671   4.687
19971WAT      O60154   9.331   7.545   8.183
19971WAT     H160155   9.348   7.447   8.192
19971WAT     H260156   9.241   7.560   8.142
19972WAT      O60157   1.932   1.840   0.213
19972WAT     H160158   2.016   1.791   0.188
19972WAT     H260159   1.943   1.937   0.192
19973WAT      O60160   5.915   6.544   5.982
19973WAT     H160161   6.002   6.547   5.934
19973WAT     H260162   5.931   6.552   6.080
19974WAT      O60163   3.154   5.171   9.097
19974WAT     H160164   3.176   5.262   9.061
19974WAT     H260165   3.178   5.166   9.194
19975WAT      O60166   3.732   5.584   6.658
19975WAT     H160167   3.757   5.492   6.689
19975WAT     H260168   3.727   5.645   6.736
19976WAT      O60169   5.926   7.730   2.182
19976WAT     H160170   5.837   7.755   2.218
19976WAT     H260171   5.997   7.781   2.231
19977WAT      O60172   1.573   0.626   7.552
19977WAT     H160173   1.658   0.575   7.566
19977WAT     H260174   1.511   0.611   7.629
19978WAT      O60175   4.963   3.270   0.519
19978WAT     H160176   4.972   3.314   0.609
19978WAT     H260177   4.946   3.340   0.450
19979WAT      O60178   5.225   6.684   8.128
19979WAT     H160179   5.175   6.686   8.042
19979WAT     H260180   5.222   6.592   8.167
19980WAT      O60181   8.672   8.886   1.524
19980WAT     H160182   8.660   8.899   1.426
19980WAT     H260183   8.590   8.846   1.564
19981WAT      O60184   0.589   5.633   5.705
19981WAT     H160185   0.520   5.613   5.635
19981WAT     H260186   0.653   5.701   5.670
19982WAT      O60187   8.690   9.564   5.404
19982WAT     H160188   8.737   9.650   5.420
19982WAT     H260189   8.750   9.501   5.354
19983WAT      O60190   7.486   0.057   4.406
19983WAT     H160191   7.555   0.046   4.335
19983WAT     H260192   7.418  -0.017   4.399
19984WAT      O60193   7.245   8.779   9.623
19984WAT     H160194   7.147   8.759   9.626
19984WAT     H260195   7.296   8.696   9.640
19985WAT      O60196   2.506   5.139   0.485
19985WAT     H160197   2.530   5.048   0.451
19985WAT     H260198   2.588   5.195   0.491
19986WAT      O60199   5.346   9.409   7.229
19986WAT     H160200   5.428   9.463   7.212
19986WAT     H260201   5.362   9.348   7.307
19987WAT      O60202   5.416   0.623   2.662
19987WAT     H160203   5.348   0.561   2.624
19987WAT     H260204   5.385   0.718   2.649
19988WAT      O60205   6.104   0.401   0.419
19988WAT     H160206   6.085   0.396   0.517
19988WAT     H260207   6.203   0.399   0.404
19989WAT      O60208   9.756   6.895   5.307
19989WAT     H160209   9.757   6.986   5.265
19989WAT     H260210   9.787   6.901   5.402
19990WAT      O60211   3.896   3.672   9.738
19990WAT     H160212   3.809   3.664   9.787
19990WAT     H260213   3.952   3.591   9.756
19991WAT      O60214   3.368   1.309   0.350
19991WAT     H160215   3.350   1.210   0.351
19991WAT     H260216   3.281   1.359   0.357
19992WAT      O60217   0.328   4.506   0.235
19992WAT     H160218   0.369   4.493   0.325
19992WAT     H260219   0.371   4.583   0.189
19993WAT      O60220   3.914   7.238   6.538
19993WAT     H160221   3.910   7.192   6.449
19993WAT     H260222   3.956   7.177   6.605
19994WAT      O60223   0.215   8.012   8.865
19994WAT     H160224   0.278   7.944   8.827
19994WAT     H260225   0.268   8.088   8.903
19995WAT      O60226   8.554   8.983   3.502
19995WAT     H160227   8.521   8.893   3.472
19995WAT     H260228   8.642   9.002   3.458
19996WAT      O60229   9.665   7.632   6.444
19996WAT     H160230   9.642   7.629   6.542
19996WAT     H260231   9.620   7.556   6.397
19997WAT      O60232   1.181   5.489   8.915
19997WAT     H160233   1.115   5.496   8.841
19997WAT     H260234   1.247   5.564   8.909
19998WAT      O60235   4.187   1.739   6.956
19998WAT     H160236   4.131   1.670   7.003
19998WAT     H260237   4.167   1.829   6.994
19999WAT      O60238   5.912   1.795   6.360
19999WAT     H160239   5.870   1.806   6.450
19999WAT     H260240   5.848   1.747   6.299
20000WAT      O60241   8.400   4.309   8.600
20000WAT     H160242   8.406   4.316   8.700
20000WAT     H260243   8.347   4.387   8.565
20001WAT      O60244   5.281   2.376   6.294
20001WAT     H160245   5.356   2.315   6.267
20001WAT     H260246   5.317   2.451   6.349
20002WAT      O60247   5.983   2.739   4.372
20002WAT     H160248   6.000   2.835   4.395
20002WAT     H260249   6.057   2.705   4.314
20003WAT      O60250   4.863   2.140   9.340
20003WAT     H160251   4.904   2.194   9.415
20003WAT     H260252   4.931   2.076   9.305
20004WAT      O60253   9.175   7.810   6.233
20004WAT     H160254   9.236   7.829   6.310
20004WAT     H260255   9.082   7.837   6.257
20005WAT      O60256   9.364   0.558   2.605
20005WAT     H160257   9.371   0.654   2.631
20005WAT     H260258   9.269   0.528   2.612
20006WAT      O60259   1.663   5.262   6.625
20006WAT     H160260   1.753   5.275   6.668
20006WAT     H260261   1.676   5.243   6.528
20007WAT      O60262   4.000   5.716   2.511
20007WAT     H160263   3.948   5.735   2.594
20007WAT     H260264   4.077   5.780   2.504
20008WAT      O60265   1.767   8.560   1.594
20008WAT     H160266   1.862   8.588   1.607
20008WAT     H260267   1.762   8.461   1.584
20009WAT      O60268   1.320   7.509   3.390
20009WAT     H160269   1.420   7.508   3.395
20009WAT     H260270   1.284   7.553   3.472
20010WAT      O60271   6.593   1.761   7.128
20010WAT     H160272   6.645   1.777   7.211
20010WAT     H260273   6.656   1.745   7.051
20011WAT      O60274   5.560   1.830   2.710
20011WAT     H160275   5.626   1.784   2.651
20011WAT     H260276   5.581   1.809   2.806
20012WAT      O60277   1.015   6.059   4.196
20012WAT     H160278   1.025   5.989   4.126
20012WAT     H260279   0.943   6.032   4.260
20013WAT      O60280   6.159   3.648   9.259
20013WAT     H160281   6.083   3.621   9.199
20013WAT     H260282   6.222   3.571   9.269
20014WAT      O60283   9.635   7.258   8.785
20014WAT     H160284   9.665   7.184   8.724
20014WAT     H260285   9.547   7.293   8.754
20015WAT      O60286   0.092   6.120   2.142
20015WAT     H160287   0.035   6.060   2.086
20015WAT     H260288   0.128   6.194   2.085
20016WAT      O60289   9.761   0.357   4.623
20016WAT     H160290   9.824   0.298   4.674
20016WAT     H260291   9.796   0.451   4.624
20017WAT      O60292   8.681   5.359   8.737
20017WAT     H160293   8.766   5.305   8.744
20017WAT     H260294   8.652   5.362   8.641
20018WAT      O60295   3.543   7.405   2.884
20018WAT     H160296   3.538   7.471   2.960
20018WAT     H260297   3.453   7.363   2.871
20019WAT      O60298   6.930   2.457   1.478
20019WAT     H160299   6.956   2.450   1.574
20019WAT     H260300   7.009   2.484   1.423
20020WAT      O60301   4.701   1.069   3.010
20020WAT     H160302   4.721   1.120   3.093
20020WAT     H260303   4.673   0.976   3.033
20021WAT      O60304   6.724   8.083   7.233
20021WAT     H160305   6.707   8.140   7.313
20021WAT     H260306   6.821   8.058   7.231
20022WAT      O60307   8.192   7.513   6.164
20022WAT     H160308   8.240   7.425   6.166
20022WAT     H260309   8.143   7.526   6.251
20023WAT      O60310   5.283   1.117   1.584
20023WAT     H160311   5.231   1.055   1.525
20023WAT     H260312   5.356   1.066   1.631
20024WAT      O60313   1.850   2.844   6.488
20024WAT     H160314   1.751   2.858   6.487
20024WAT     H260315   1.886   2.854   6.396
20025WAT      O60316   2.668   6.900   2.441
20025WAT     H160317   2.610   6.819   2.442
20025WAT     H260318   2.676   6.934   2.347
20026WAT      O60319   1.147   3.766   6.085
20026WAT     H160320   1.106   3.746   5.997
20026WAT     H260321   1.224   3.704   6.102
20027WAT      O60322   9.654   3.121   8.631
20027WAT     H160323   9.637   3.092   8.725
20027WAT     H260324   9.736   3.179   8.628
20028WAT      O60325   5.726   4.518   8.170
20028WAT     H160326   5.721   4.544   8.074
20028WAT     H260327   5.728   4.418   8.177
20029WAT      O60328   9.598   9.842   6.439
20029WAT     H160329   9.684   9.863   6.485
20029WAT     H260330   9.617   9.808   6.347
20030WAT      O60331   7.793   2.106   3.398
20030WAT     H160332   7.710   2.155   3.425
20030WAT     H260333   7.777   2.061   3.310
20031WAT      O60334   5.977   9.003   7.970
20031WAT     H160335   5.965   9.099   7.946
20031WAT     H260336   5.927   8.983   8.054
20032WAT      O60337   2.039   3.988   2.345
20032WAT     H160338   2.116   3.930   2.372
20032WAT     H260339   2.064   4.085   2.357
20033WAT      O60340   8.455   7.717   0.621
20033WAT     H160341   8.461   7.729   0.522
20033WAT     H260342   8.396   7.788   0.659
20034WAT      O60343   5.503   8.877   3.736
20034WAT     H160344   5.596   8.901   3.764
20034WAT     H260345   5.444   8.873   3.817
20035WAT      O60346   8.106   6.453   5.140
20035WAT     H160347   8.124   6.373   5.198
20035WAT     H260348   8.164   6.529   5.170
20036WAT      O60349   1.820   0.867   2.525
20036WAT     H160350   1.789   0.802   2.594
20036WAT     H260351   1.746   0.887   2.462
20037WAT      O60352   9.628   9.753   6.204
20037WAT     H160353   9.536   9.728   6.174
20037WAT     H260354   9.690   9.757   6.125
20038WAT      O60355   2.452   2.192   1.874
20038WAT     H160356   2.504   2.269   1.910
20038WAT     H260357   2.465   2.113   1.933
20039WAT      O60358   6.527   1.108   8.437
20039WAT     H160359   6.430   1.128   8.422
20039WAT     H260360   6.551   1.129   8.532
20040WAT      O60361   7.968   2.606   5.111
20040WAT     H160362   8.008   2.582   5.200
20040WAT     H260363   7.874   2.637   5.124
20041WAT      O60364   6.314   1.876   7.276
20041WAT     H160365   6.404   1.869   7.231
20041WAT     H260366   6.296   1.791   7.325
20042WAT      O60367   2.003   2.022   4.985
20042WAT     H160368   2.086   1.973   4.957
20042WAT     H260369   1.998   2.025   5.085
20043WAT      O60370   9.115   0.439   2.652
20043WAT     H160371   9.131   0.368   2.721
20043WAT     H260372   9.062   0.514   2.692
20044WAT      O60373   2.335   7.172   4.902
20044WAT     H160374   2.411   7.232   4.926
20044WAT     H260375   2.362   7.115   4.824
20045WAT      O60376   9.289   5.501   3.277
20045WAT     H160377   9.363   5.438   3.253
20045WAT     H260378   9.210   5.485   3.217
20046WAT      O60379   8.747   3.650   5.400
20046WAT     H160380   8.663   3.667   5.347
20046WAT     H260381   8.737   3.688   5.492
20047WAT      O60382   5.129   8.866   3.579
20047WAT     H160383   5.196   8.927   3.538
20047WAT     H260384   5.095   8.905   3.664
20048WAT      O60385   2.207   3.509   6.757
20048WAT     H160386   2.227   3.598   6.798
20048WAT     H260387   2.109   3.491   6.763
20049WAT      O60388   9.043   1.723   3.611
20049WAT     H160389   9.047   1.813   3.654
20049WAT     H260390   8.988   1.662   3.669
20050WAT      O60391   0.333   5.442   5.951
20050WAT     H160392   0.429   5.470   5.955
20050WAT     H260393   0.328   5.343   5.941
20051WAT      O60394   9.230   5.758   2.010
20051WAT     H160395   9.318   5.759   2.056
20051WAT     H260396   9.218   5.843   1.959
20052WAT      O60397   6.097   1.584   8.934
20052WAT     H160398   6.057   1.649   9.000
20052WAT     H260399   6.190   1.561   8.963
20053WAT      O60400   1.818   4.854   8.120
20053WAT     H160401   1.791   4.893   8.208
20053WAT     H260402   1.899   4.797   8.132
20054WAT      O60403   6.314   7.620   0.340
20054WAT     H160404   6.252   7.660   0.407
20054WAT     H260405   6.317   7.679   0.259
20055WAT      O60406   7.463   2.430   8.424
20055WAT     H160407   7.548   2.393   8.386
20055WAT     H260408   7.481   2.473   8.512
20056WAT      O60409   1.684   4.151   9.496
20056WAT     H160410   1.661   4.055   9.512
20056WAT     H260411   1.753   4.179   9.563
20057WAT      O60412   0.437   9.286   6.065
20057WAT     H160413   0.396   9.331   5.985
20057WAT     H260414   0.393   9.319   6.148
20058WAT      O60415   8.494   4.295   8.860
20058WAT     H160416   8.573   4.290   8.920
20058WAT     H260417   8.421   4.237   8.896
20059WAT      O60418   0.199   2.898   8.316
20059WAT     H160419   0.122   2.902   8.252
20059WAT     H260420   0.173   2.848   8.398
20060WAT      O60421   0.856   9.265   3.698
20060WAT     H160422   0.817   9.266   3.790
20060WAT     H260423   0.883   9.357   3.672
20061WAT      O60424   2.879   7.956   6.963
20061WAT     H160425   2.805   7.889   6.955
20061WAT     H260426   2.870   8.005   7.050
20062WAT      O60427   3.379   3.636   3.987
20062WAT     H160428   3.404   3.544   4.017
20062WAT     H260429   3.286   3.636   3.951
20063WAT      O60430   2.181   6.092   2.384
20063WAT     H160431   2.267   6.068   2.340
20063WAT     H260432   2.139   6.010   2.423
20064WAT      O60433   0.527   5.465   2.421
20064WAT     H160434   0.600   5.485   2.355
20064WAT     H260435   0.524   5.538   2.489
20065WAT      O60436   9.821   8.033   5.455
20065WAT     H160437   9.834   8.119   5.504
20065WAT     H260438   9.723   8.010   5.454
20066WAT      O60439   6.189   1.796   8.196
20066WAT     H160440   6.181   1.836   8.105
20066WAT     H260441   6.198   1.868   8.264
20067WAT      O60442   2.724   2.122   1.942
20067WAT     H160443   2.716   2.164   2.032
20067WAT     H260444   2.666   2.172   1.877
20068WAT      O60445   2.223   1.558   1.840
20068WAT     H160446   2.317   1.531   1.822
20068WAT     H260447   2.178   1.582   1.754
20069WAT      O60448   9.625   7.220   0.201
20069WAT     H160449   9.538   7.212   0.249
20069WAT     H260450   9.611   7.269   0.115
20070WAT      O60451   8.855   8.756   3.509
20070WAT     H160452   8.795   8.730   3.585
20070WAT     H260453   8.847   8.689   3.435
20071WAT      O60454   6.287   7.106   6.059
20071WAT     H160455   6.308   7.023   6.110
20071WAT     H260456   6.314   7.095   5.964
20072WAT      O60457   5.735   2.625   9.214
20072WAT     H160458   5.764   2.716   9.244
20072WAT     H260459   5.720   2.626   9.116
20073WAT      O60460   1.451   8.975   0.066
20073WAT     H160461   1.420   8.889   0.108
20073WAT     H260462   1.545   8.965   0.035
20074WAT      O60463   1.706   1.230   7.973
20074WAT     H160464   1.623   1.217   7.920
20074WAT     H260465   1.688   1.212   8.070
20075WAT      O60466   7.571   5.231   8.603
20075WAT     H160467   7.585   5.329   8.586
20075WAT     H260468   7.518   5.218   8.687
20076WAT      O60469   4.620   3.901   3.543
20076WAT     H160470   4.538   3.851   3.571
20076WAT     H260471   4.627   3.985   3.596
20077WAT      O60472   7.718   7.134   4.485
20077WAT     H160473   7.645   7.156   4.420
20077WAT     H260474   7.760   7.219   4.517
20078WAT      O60475   0.566   9.821   3.035
20078WAT     H160476   0.643   9.884   3.029
20078WAT     H260477   0.494   9.850   2.972
20079WAT      O60478   4.313   2.838   6.210
20079WAT     H160479   4.243   2.907   6.190
20079WAT     H260480   4.393   2.883   6.251
20080WAT      O60481   3.881   5.043   8.051
20080WAT     H160482   3.789   5.006   8.042
20080WAT     H260483   3.876   5.139   8.077
20081WAT      O60484   5.576   1.839   7.138
20081WAT     H160485   5.572   1.939   7.131
20081WAT     H260486   5.520   1.799   7.067
20082WAT      O60487   5.860   1.736   0.657
20082WAT     H160488   5.881   1.650   0.612
20082WAT     H260489   5.819   1.799   0.590
20083WAT      O60490   8.626   8.685   8.932
20083WAT     H160491   8.724   8.682   8.911
20083WAT     H260492   8.614   8.721   9.025
20084WAT      O60493   9.250   4.593   9.527
20084WAT     H160494   9.194   4.531   9.471
20084WAT     H260495   9.240   4.569   9.623
20085WAT      O60496   4.341   0.095   9.116
20085WAT     H160497   4.339   0.010   9.064
20085WAT     H260498   4.338   0.172   9.053
20086WAT      O60499   5.721   5.534   3.633
20086WAT     H160500   5.751   5.503   3.543
20086WAT     H260501   5.621   5.532   3.638
20087WAT      O60502   6.517   2.336   1.222
20087WAT     H160503   6.589   2.319   1.289
20087WAT     H260504   6.516   2.433   1.198
20088WAT      O60505   7.180   8.143   8.707
20088WAT     H160506   7.133   8.177   8.788
20088WAT     H260507   7.114   8.124   8.635
20089WAT      O60508   0.610   5.571   5.970
20089WAT     H160509   0.632   5.647   6.031
20089WAT     H260510   0.590   5.607   5.878
20090WAT      O60511   7.197   6.907   0.670
20090WAT     H160512   7.276   6.966   0.651
20090WAT     H260513   7.199   6.879   0.766
20091WAT      O60514   9.455   3.363   9.313
20091WAT     H160515   9.489   3.422   9.386
20091WAT     H260516   9.466   3.410   9.225
20092WAT      O60517   1.956   7.480   5.119
20092WAT     H160518   1.974   7.559   5.059
20092WAT     H260519   1.881   7.426   5.081
20093WAT      O60520   4.552   3.708   7.923
20093WAT     H160521   4.567   3.612   7.899
20093WAT     H260522   4.458   3.719   7.957
20094WAT      O60523   7.953   0.555   2.880
20094WAT     H160524   7.925   0.546   2.784
20094WAT     H260525   7.877   0.592   2.933
20095WAT      O60526   6.677   8.860   0.881
20095WAT     H160527   6.699   8.904   0.794
20095WAT     H260528   6.746   8.885   0.949
20096WAT      O60529   6.075   2.981   7.593
20096WAT     H160530   6.073   2.917   7.517
20096WAT     H260531   5.982   2.991   7.631
20097WAT      O60532   0.396   2.718   9.657
20097WAT     H160533   0.445   2.631   9.654
20097WAT     H260534   0.420   2.771   9.575
20098WAT      O60535   4.782   8.118   4.035
20098WAT     H160536   4.800   8.179   3.957
20098WAT     H260537   4.726   8.167   4.102
20099WAT      O60538   3.549   1.648   4.676
20099WAT     H160539   3.484   1.660   4.601
20099WAT     H260540   3.519   1.702   4.755
20100WAT      O60541   1.146   6.548   9.341
20100WAT     H160542   1.163   6.467   9.285
20100WAT     H260543   1.150   6.522   9.438
20101WAT      O60544   8.035   9.319   2.991
20101WAT     H160545   7.957   9.298   3.049
20101WAT     H260546   8.004   9.343   2.899
20102WAT      O60547   5.183   5.017   1.200
20102WAT     H160548   5.261   5.051   1.148
20102WAT     H260549   5.214   4.984   1.289
20103WAT      O60550   8.262   6.967   5.313
20103WAT     H160551   8.291   6.883   5.357
20103WAT     H260552   8.318   6.985   5.233
20104WAT      O60553   2.424   1.236   5.172
20104WAT     H160554   2.515   1.262   5.206
20104WAT     H260555   2.400   1.294   5.094
20105WAT      O60556   2.583   4.926   3.072
20105WAT     H160557   2.620   4.951   3.161
20105WAT     H260558   2.542   5.006   3.029
20106WAT      O60559   8.006   2.054   9.680
20106WAT     H160560   8.073   2.128   9.693
20106WAT     H260561   8.045   1.984   9.621
20107WAT      O60562   6.599   9.795   5.809
20107WAT     H160563   6.668   9.858   5.773
20107WAT     H260564   6.634   9.701   5.805
20108WAT      O60565   8.949   8.899   1.083
20108WAT     H160566   8.972   8.935   1.173
20108WAT     H260567   8.879   8.828   1.092
20109WAT      O60568   7.558   6.612   1.788
20109WAT     H160569   7.630   6.658   1.737
20109WAT     H260570   7.471   6.658   1.771
20110WAT      O60571   7.786   4.786   6.420
20110WAT     H160572   7.748   4.719   6.356
20110WAT     H260573   7.878   4.758   6.446
20111WAT      O60574   0.496   2.541   3.769
20111WAT     H160575   0.537   2.514   3.681
20111WAT     H260576   0.507   2.639   3.782
20112WAT      O60577   1.973   6.989   0.494
20112WAT     H160578   2.056   6.993   0.439
20112WAT     H260579   1.989   6.931   0.574
20113WAT      O60580   0.394   4.431   6.177
20113WAT     H160581   0.359   4.486   6.252
20113WAT     H260582   0.406   4.336   6.208
20114WAT      O60583   9.714   9.426   6.982
20114WAT     H160584   9.637   9.362   6.984
20114WAT     H260585   9.784   9.396   7.047
20115WAT      O60586   5.051   7.358   1.041
20115WAT     H160587   5.111   7.429   1.003
20115WAT     H260588   4.974   7.342   0.978
20116WAT      O60589   0.487   1.786   9.867
20116WAT     H160590   0.458   1.873   9.906
20116WAT     H260591   0.407   1.733   9.838
20117WAT      O60592   4.479   6.938   8.777
20117WAT     H160593   4.440   7.002   8.710
20117WAT     H260594   4.492   6.986   8.864
20118WAT      O60595   0.881   2.088   6.076
20118WAT     H160596   0.980   2.094   6.086
20118WAT     H260597   0.842   2.045   6.157
20119WAT      O60598   6.142   0.310   1.976
20119WAT     H160599   6.151   0.409   1.966
20119WAT     H260600   6.114   0.288   2.070
20120WAT      O60601   7.776   0.270   4.235
20120WAT     H160602   7.863   0.226   4.215
20120WAT     H260603   7.763   0.348   4.175
20121WAT      O60604   7.020   1.032   4.422
20121WAT     H160605   6.989   1.124   4.449
20121WAT     H260606   7.029   1.028   4.323
20122WAT      O60607   6.472   6.073   4.504
20122WAT     H160608   6.409   6.033   4.437
20122WAT     H260609   6.549   6.010   4.518
20123WAT      O60610   8.377   4.530   1.504
20123WAT     H160611   8.453   4.537   1.439
20123WAT     H260612   8.299   4.486   1.459
20124WAT      O60613   5.675   3.034   4.605
20124WAT     H160614   5.601   2.973   4.576
20124WAT     H260615   5.719   2.996   4.686
20125WAT      O60616   6.646   5.780   0.544
20125WAT     H160617   6.607   5.782   0.636
20125WAT     H260618   6.603   5.707   0.491
20126WAT      O60619   5.068   0.631   6.099
20126WAT     H160620   5.115   0.715   6.126
20126WAT     H260621   5.110   0.554   6.146
20127WAT      O60622   6.259   3.045   5.316
20127WAT     H160623   6.251   3.035   5.416
20127WAT     H260624   6.198   3.118   5.285
20128WAT      O60625   2.406   7.119   6.013
20128WAT     H160626   2.308   7.124   6.033
20128WAT     H260627   2.431   7.194   5.952
20129WAT      O60628   3.145   3.207   0.335
20129WAT     H160629   3.137   3.276   0.263
20129WAT     H260630   3.234   3.163   0.329
20130WAT      O60631   3.346   0.244   6.155
20130WAT     H160632   3.297   0.314   6.207
20130WAT     H260633   3.433   0.225   6.200
20131WAT      O60634   4.107   4.976   1.083
20131WAT     H160635   4.137   5.066   1.117
20131WAT     H260636   4.177   4.908   1.103
20132WAT      O60637   2.384   6.647   4.442
20132WAT     H160638   2.339   6.558   4.434
20132WAT     H260639   2.423   6.673   4.354
20133WAT      O60640   1.206   5.281   4.238
20133WAT     H160641   1.134   5.212   4.249
20133WAT     H260642   1.166   5.363   4.198
20134WAT      O60643   3.594   9.009   6.230
20134WAT     H160644   3.596   8.912   6.207
20134WAT     H260645   3.505   9.048   6.204
20135WAT      O60646   6.373   5.763   9.625
20135WAT     H160647   6.297   5.724   9.677
20135WAT     H260648   6.459   5.721   9.656
20136WAT      O60649   0.109   5.035   7.328
20136WAT     H160650   0.158   4.987   7.255
20136WAT     H260651   0.089   5.129   7.299
20137WAT      O60652   9.863   8.317   4.264
20137WAT     H160653   9.798   8.304   4.340
20137WAT     H260654   9.950   8.350   4.301
20138WAT      O60655   1.726   8.694   0.376
20138WAT     H160656   1.787   8.680   0.298
20138WAT     H260657   1.772   8.752   0.444
20139WAT      O60658   0.536   8.439   6.394
20139WAT     H160659   0.617   8.383   6.378
20139WAT     H260660   0.484   8.447   6.309
20140WAT      O60661   0.512   5.497   6.625
20140WAT     H160662   0.600   5.509   6.671
20140WAT     H260663   0.438   5.503   6.692
20141WAT      O60664   9.522   2.107   4.851
20141WAT     H160665   9.463   2.185   4.872
20141WAT     H260666   9.618   2.136   4.851
20142WAT      O60667   2.734   0.691   2.589
20142WAT     H160668   2.662   0.715   2.524
20142WAT     H260669   2.701   0.704   2.682
20143WAT      O60670   5.588   5.760   7.971
20143WAT     H160671   5.534   5.687   7.930
20143WAT     H260672   5.537   5.846   7.967
20144WAT      O60673   9.871   0.061   9.636
20144WAT     H160674   9.869  -0.038   9.655
20144WAT     H260675   9.824   0.079   9.549
20145WAT      O60676   0.812   1.741   4.236
20145WAT     H160677   0.730   1.710   4.284
20145WAT     H260678   0.810   1.710   4.142
20146WAT      O60679   7.585   9.673   2.495
20146WAT     H160680   7.613   9.761   2.532
20146WAT     H260681   7.508   9.686   2.432
20147WAT      O60682   1.861   7.430   3.437
20147WAT     H160683   1.783   7.446   3.496
20147WAT     H260684   1.859   7.495   3.361
20148WAT      O60685   7.053   8.761   1.142
20148WAT     H160686   6.988   8.800   1.077
20148WAT     H260687   7.127   8.827   1.158
20149WAT      O60688   6.516   3.275   9.003
20149WAT     H160689   6.448   3.347   8.994
20149WAT     H260690   6.500   3.205   8.934
20150WAT      O60691   9.820   0.030   4.604
20150WAT     H160692   9.905   0.009   4.555
20150WAT     H260693   9.755   0.073   4.542
20151WAT      O60694   2.815   9.548   8.861
20151WAT     H160695   2.799   9.639   8.823
20151WAT     H260696   2.799   9.549   8.960
20152WAT      O60697   5.517   3.016   3.997
20152WAT     H160698   5.548   2.970   4.081
20152WAT     H260699   5.597   3.043   3.944
20153WAT      O60700   5.206   0.789   9.432
20153WAT     H160701   5.287   0.778   9.374
20153WAT     H260702   5.158   0.874   9.407
20154WAT      O60703   9.104   0.677   4.125
20154WAT     H160704   9.158   0.753   4.089
20154WAT     H260705   9.154   0.591   4.113
20155WAT      O60706   5.818   7.106   1.407
20155WAT     H160707   5.813   7.026   1.466
20155WAT     H260708   5.913   7.121   1.380
20156WAT      O60709   2.697   4.011   8.779
20156WAT     H160710   2.633   3.979   8.709
20156WAT     H260711   2.790   3.990   8.750
20157WAT      O60712   8.759   3.740   5.818
20157WAT     H160713   8.848   3.695   5.825
20157WAT     H260714   8.690   3.674   5.790
20158WAT      O60715   7.118   6.621   2.553
20158WAT     H160716   7.084   6.594   2.463
20158WAT     H260717   7.217   6.606   2.558
20159WAT      O60718   7.697   3.243   5.521
20159WAT     H160719   7.680   3.168   5.586
20159WAT     H260720   7.657   3.327   5.556
20160WAT      O60721   7.528   1.098   4.908
20160WAT     H160722   7.477   1.164   4.852
20160WAT     H260723   7.467   1.022   4.932
20161WAT      O60724   9.539   6.162   0.842
20161WAT     H160725   9.447   6.168   0.802
20161WAT     H260726   9.580   6.254   0.842
20162WAT      O60727   4.036   2.684   1.250
20162WAT     H160728   4.126   2.671   1.208
20162WAT     H260729   4.005   2.778   1.234
20163WAT      O60730   8.645   2.927   8.435
20163WAT     H160731   8.716   2.872   8.392
20163WAT     H260732   8.646   3.019   8.396
20164WAT      O60733   3.036   6.020   1.416
20164WAT     H160734   3.102   5.950   1.389
20164WAT     H260735   3.073   6.072   1.493
20165WAT      O60736   1.070   0.022   5.333
20165WAT     H160737   1.104   0.083   5.261
20165WAT     H260738   1.024   0.077   5.404
20166WAT      O60739   2.242   7.963   8.915
20166WAT     H160740   2.171   7.905   8.956
20166WAT     H260741   2.320   7.968   8.977
20167WAT      O60742   3.218   6.538   5.781
20167WAT     H160743   3.313   6.511   5.799
20167WAT     H260744   3.216   6.622   5.727
20168WAT      O60745   8.930   9.127   8.698
20168WAT     H160746   8.898   9.117   8.792
20168WAT     H260747   8.971   9.218   8.686
20169WAT      O60748   5.107   2.952   5.094
20169WAT     H160749   5.024   3.003   5.075
20169WAT     H260750   5.085   2.872   5.150
20170WAT      O60751   2.675   6.274   2.702
20170WAT     H160752   2.769   6.293   2.731
20170WAT     H260753   2.612   6.329   2.757
20171WAT      O60754   6.146   7.001   3.063
20171WAT     H160755   6.131   7.091   3.023
20171WAT     H260756   6.111   7.000   3.157
20172WAT      O60757   2.767   0.761   7.428
20172WAT     H160758   2.688   0.755   7.489
20172WAT     H260759   2.752   0.833   7.361
20173WAT      O60760   4.745   6.317   3.440
20173WAT     H160761   4.649   6.342   3.456
20173WAT     H260762   4.797   6.399   3.419
20174WAT      O60763   4.287   2.923   5.050
20174WAT     H160764   4.238   2.866   4.984
20174WAT     H260765   4.358   2.868   5.094
20175WAT      O60766   8.412   5.685   6.482
20175WAT     H160767   8.428   5.647   6.391
20175WAT     H260768   8.426   5.614   6.550
20176WAT      O60769   3.854   2.747   5.675
20176WAT     H160770   3.837   2.786   5.584
20176WAT     H260771   3.920   2.804   5.723
20177WAT      O60772   7.135   4.884   6.942
20177WAT     H160773   7.079   4.903   7.023
20177WAT     H260774   7.188   4.801   6.956
20178WAT      O60775   1.042   1.514   6.729
20178WAT     H160776   0.996   1.594   6.688
20178WAT     H260777   0.984   1.475   6.800
20179WAT      O60778   7.312   6.363   6.575
20179WAT     H160779   7.308   6.295   6.502
20179WAT     H260780   7.273   6.449   6.542
20180WAT      O60781   4.781   1.733   2.195
20180WAT     H160782   4.792   1.638   2.166
20180WAT     H260783   4.867   1.782   2.181
20181WAT      O60784   3.952   2.738   4.033
20181WAT     H160785   3.979   2.826   3.994
20181WAT     H260786   3.930   2.674   3.960
20182WAT      O60787   5.051   0.949   5.126
20182WAT     H160788   5.017   1.033   5.084
20182WAT     H260789   5.150   0.943   5.113
20183WAT      O60790   8.371   1.277   7.362
20183WAT     H160791   8.457   1.326   7.350
20183WAT     H260792   8.377   1.218   7.442
20184WAT      O60793   0.529   0.242   7.137
20184WAT     H160794   0.442   0.225   7.091
20184WAT     H260795   0.544   0.341   7.142
20185WAT      O60796   4.263   3.494   8.322
20185WAT     H160797   4.263   3.592   8.300
20185WAT     H260798   4.305   3.481   8.412
20186WAT      O60799   8.316   2.084   3.041
20186WAT     H160800   8.348   2.126   3.125
20186WAT     H260801   8.321   1.984   3.049
20187WAT      O60802   6.766   1.183   1.390
20187WAT     H160803   6.677   1.227   1.406
20187WAT     H260804   6.790   1.128   1.470
20188WAT      O60805   3.678   2.984   6.362
20188WAT     H160806   3.615   3.040   6.308
20188WAT     H260807   3.641   2.971   6.454
20189WAT      O60808   2.728   1.397   3.177
20189WAT     H160809   2.665   1.396   3.100
20189WAT     H260810   2.676   1.407   3.262
20190WAT      O60811   9.822   3.428   2.117
20190WAT     H160812   9.857   3.516   2.086
20190WAT     H260813   9.728   3.439   2.148
20191WAT      O60814   4.165   4.478   3.627
20191WAT     H160815   4.081   4.512   3.584
20191WAT     H260816   4.223   4.556   3.653
20192WAT      O60817   8.708   6.607   7.011
20192WAT     H160818   8.656   6.640   6.932
20192WAT     H260819   8.743   6.516   6.992
20193WAT      O60820   4.646   8.160   0.881
20193WAT     H160821   4.687   8.243   0.918
20193WAT     H260822   4.693   8.080   0.918
20194WAT      O60823   0.240   8.194   8.645
20194WAT     H160824   0.305   8.121   8.664
20194WAT     H260825   0.155   8.154   8.611
20195WAT      O60826   8.019   1.337   9.642
20195WAT     H160827   7.957   1.411   9.670
20195WAT     H260828   7.968   1.251   9.636
20196WAT      O60829   7.925   9.555   4.695
20196WAT     H160830   7.910   9.619   4.771
20196WAT     H260831   8.023   9.535   4.687
20197WAT      O60832   9.373   8.864   2.279
20197WAT     H160833   9.406   8.921   2.205
20197WAT     H260834   9.451   8.828   2.331
20198WAT      O60835   1.482   5.766   5.294
20198WAT     H160836   1.561   5.817   5.328
20198WAT     H260837   1.406   5.775   5.360
20199WAT      O60838   8.143   1.348   5.290
20199WAT     H160839   8.074   1.356   5.218
20199WAT     H260840   8.151   1.252   5.318
20200WAT      O60841   2.341   2.943   0.180
20200WAT     H160842   2.286   3.004   0.236
20200WAT     H260843   2.423   2.991   0.148
20201WAT      O60844   7.921   2.739   3.333
20201WAT     H160845   7.960   2.688   3.410
20201WAT     H260846   7.891   2.675   3.263
20202WAT      O60847   6.421   7.863   9.769
20202WAT     H160848   6.412   7.905   9.678
20202WAT     H260849   6.472   7.777   9.761
20203WAT      O60850   8.027   7.156   6.723
20203WAT     H160851   8.085   7.134   6.802
20203WAT     H260852   7.932   7.137   6.746
20204WAT      O60853   9.254   3.320   4.994
20204WAT     H160854   9.250   3.346   5.090
20204WAT     H260855   9.233   3.400   4.937
20205WAT      O60856   6.817   1.323   0.951
20205WAT     H160857   6.889   1.380   0.911
20205WAT     H260858   6.749   1.303   0.881
20206WAT      O60859   8.614   4.653   0.245
20206WAT     H160860   8.666   4.571   0.220
20206WAT     H260861   8.611   4.715   0.167
20207WAT      O60862   6.478   2.593   2.313
20207WAT     H160863   6.522   2.682   2.300
20207WAT     H260864   6.455   2.581   2.410
20208WAT      O60865   2.092   8.237   4.411
20208WAT     H160866   2.122   8.236   4.506
20208WAT     H260867   2.059   8.147   4.385
20209WAT      O60868   9.585   3.706   0.057
20209WAT     H160869   9.565   3.612   0.084
20209WAT     H260870   9.606   3.760   0.138
20210WAT      O60871   3.000   9.380   2.533
20210WAT     H160872   3.088   9.365   2.578
20210WAT     H260873   2.959   9.465   2.566
20211WAT      O60874   2.949   6.284   1.633
20211WAT     H160875   3.026   6.228   1.602
20211WAT     H260876   2.913   6.338   1.557
20212WAT      O60877   8.994   2.620   7.356
20212WAT     H160878   9.025   2.647   7.265
20212WAT     H260879   8.961   2.526   7.354
20213WAT      O60880   4.616   7.543   6.571
20213WAT     H160881   4.679   7.468   6.552
20213WAT     H260882   4.540   7.510   6.625
20214WAT      O60883   3.252   4.819   6.882
20214WAT     H160884   3.204   4.731   6.882
20214WAT     H260885   3.227   4.871   6.800
20215WAT      O60886   8.067   4.867   4.224
20215WAT     H160887   8.068   4.790   4.288
20215WAT     H260888   8.042   4.834   4.133
20216WAT      O60889   9.258   4.289   2.873
20216WAT     H160890   9.278   4.192   2.861
20216WAT     H260891   9.171   4.300   2.921
20217WAT      O60892   1.476   2.089   0.496
20217WAT     H160893   1.560   2.130   0.533
20217WAT     H260894   1.474   2.102   0.397
20218WAT      O60895   8.387   7.990   3.320
20218WAT     H160896   8.356   7.959   3.230
20218WAT     H260897   8.345   7.934   3.392
20219WAT      O60898   2.436   4.826   9.174
20219WAT     H160899   2.518   4.783   9.212
20219WAT     H260900   2.378   4.859   9.248
20220WAT      O60901   7.057   1.220   1.802
20220WAT     H160902   7.101   1.276   1.732
20220WAT     H260903   6.997   1.278   1.858
20221WAT      O60904   4.263   2.406   7.994
20221WAT     H160905   4.226   2.494   7.964
20221WAT     H260906   4.362   2.404   7.980
20222WAT      O60907   6.179   1.689   4.864
20222WAT     H160908   6.208   1.650   4.951
20222WAT     H260909   6.260   1.715   4.811
20223WAT      O60910   2.030   9.370   6.831
20223WAT     H160911   2.113   9.367   6.887
20223WAT     H260912   2.025   9.286   6.776
20224WAT      O60913   6.829   8.688   1.269
20224WAT     H160914   6.850   8.598   1.307
20224WAT     H260915   6.901   8.714   1.204
20225WAT      O60916   5.650   6.362   8.506
20225WAT     H160917   5.692   6.377   8.596
20225WAT     H260918   5.665   6.268   8.478
20226WAT      O60919   7.271   4.369   7.775
20226WAT     H160920   7.317   4.293   7.821
20226WAT     H260921   7.274   4.355   7.676
20227WAT      O60922   6.506   3.168   5.190
20227WAT     H160923   6.478   3.171   5.094
20227WAT     H260924   6.429   3.140   5.247
20228WAT      O60925   8.619   2.936   9.567
20228WAT     H160926   8.538   2.970   9.616
20228WAT     H260927   8.602   2.843   9.535
20229WAT      O60928   0.570   7.897   8.903
20229WAT     H160929   0.614   7.808   8.891
20229WAT     H260930   0.584   7.930   8.996
20230WAT      O60931   2.950   0.750   8.811
20230WAT     H160932   3.028   0.707   8.767
20230WAT     H260933   2.934   0.840   8.771
20231WAT      O60934   2.342   7.132   1.014
20231WAT     H160935   2.243   7.130   1.009
20231WAT     H260936   2.374   7.054   1.068
20232WAT      O60937   8.880   6.463   6.802
20232WAT     H160938   8.890   6.455   6.703
20232WAT     H260939   8.832   6.382   6.838
20233WAT      O60940   2.877   5.486   8.556
20233WAT     H160941   2.898   5.578   8.525
20233WAT     H260942   2.786   5.485   8.599
20234WAT      O60943   5.357   0.614   9.244
20234WAT     H160944   5.408   0.570   9.318
20234WAT     H260945   5.418   0.674   9.192
20235WAT      O60946   2.771   1.701   5.988
20235WAT     H160947   2.757   1.613   5.941
20235WAT     H260948   2.686   1.752   5.989
20236WAT      O60949   6.684   3.386   4.815
20236WAT     H160950   6.608   3.433   4.861
20236WAT     H260951   6.650   3.303   4.771
20237WAT      O60952   3.608   4.084   2.654
20237WAT     H160953   3.580   3.995   2.618
20237WAT     H260954   3.527   4.135   2.684
20238WAT      O60955   0.677   8.235   0.432
20238WAT     H160956   0.734   8.249   0.350
20238WAT     H260957   0.581   8.237   0.406
20239WAT      O60958   4.860   0.801   9.048
20239WAT     H160959   4.852   0.874   8.981
20239WAT     H260960   4.855   0.839   9.140
20240WAT      O60961   6.342   4.043   9.834
20240WAT     H160962   6.253   4.087   9.822
20240WAT     H260963   6.411   4.113   9.854
20241WAT      O60964   6.152   3.281   7.991
20241WAT     H160965   6.161   3.183   8.011
20241WAT     H260966   6.075   3.296   7.929
20242WAT      O60967   0.909   0.950   2.166
20242WAT     H160968   0.932   1.044   2.140
20242WAT     H260969   0.828   0.920   2.114
20243WAT      O60970   2.508   6.275   6.301
20243WAT     H160971   2.459   6.196   6.337
20243WAT     H260972   2.525   6.262   6.203
20244WAT      O60973   2.545   7.252   8.379
20244WAT     H160974   2.466   7.199   8.410
20244WAT     H260975   2.629   7.205   8.405
20245WAT      O60976   1.448   3.624   9.266
20245WAT     H160977   1.547   3.621   9.251
20245WAT     H260978   1.407   3.537   9.239
20246WAT      O60979   1.320   1.399   1.210
20246WAT     H160980   1.357   1.392   1.303
20246WAT     H260981   1.241   1.339   1.200
20247WAT      O60982   1.595   8.291   9.661
20247WAT     H160983   1.684   8.325   9.632
20247WAT     H260984   1.559   8.227   9.593
20248WAT      O60985   9.572   4.315   0.081
20248WAT     H160986   9.548   4.235   0.025
20248WAT     H260987   9.665   4.305   0.115
20249WAT      O60988   4.322   2.616   1.940
20249WAT     H160989   4.348   2.569   1.855
20249WAT     H260990   4.355   2.564   2.018
20250WAT      O60991   3.686   8.297   1.383
20250WAT     H160992   3.668   8.205   1.419
20250WAT     H260993   3.599   8.345   1.372
20251WAT      O60994   8.167   0.024   5.367
20251WAT     H160995   8.266   0.024   5.355
20251WAT     H260996   8.141  -0.053   5.426
20252WAT      O60997   4.144   8.613   1.092
20252WAT     H160998   4.152   8.683   1.022
20252WAT     H260999   4.176   8.525   1.056
20253WAT      O61000   2.869   2.440   0.851
20253WAT     H161001   2.846   2.533   0.879
20253WAT     H261002   2.916   2.393   0.925
20254WAT      O61003   1.506   9.583   5.167
20254WAT     H161004   1.565   9.656   5.200
20254WAT     H261005   1.411   9.613   5.169
20255WAT      O61006   0.531   9.014   6.682
20255WAT     H161007   0.511   8.918   6.703
20255WAT     H261008   0.504   9.071   6.759
20256WAT      O61009   4.394   8.590   8.979
20256WAT     H161010   4.302   8.630   8.975
20256WAT     H261011   4.461   8.659   8.952
20257WAT      O61012   3.627   3.527   9.579
20257WAT     H161013   3.664   3.532   9.672
20257WAT     H261014   3.632   3.433   9.546
20258WAT      O61015   4.607   0.858   8.465
20258WAT     H161016   4.549   0.837   8.544
20258WAT     H261017   4.687   0.798   8.466
20259WAT      O61018   1.055   1.563   0.853
20259WAT     H161019   1.055   1.597   0.759
20259WAT     H261020   0.987   1.490   0.862
20260WAT      O61021   1.169   2.887   5.172
20260WAT     H161022   1.251   2.945   5.180
20260WAT     H261023   1.125   2.904   5.084
20261WAT      O61024   2.421   2.430   1.295
20261WAT     H161025   2.494   2.365   1.273
20261WAT     H261026   2.338   2.405   1.244
20262WAT      O61027   3.194   2.516   6.775
20262WAT     H161028   3.197   2.572   6.692
20262WAT     H261029   3.260   2.441   6.767
20263WAT      O61030   6.165   0.963   4.933
20263WAT     H161031   6.075   0.973   4.889
20263WAT     H261032   6.234   1.013   4.881
20264WAT      O61033   8.051   7.701   8.760
20264WAT     H161034   8.045   7.639   8.682
20264WAT     H261035   8.147   7.709   8.788
20265WAT      O61036   7.993   3.045   0.982
20265WAT     H161037   7.959   3.106   1.052
20265WAT     H261038   7.975   3.083   0.891
20266WAT      O61039   7.846   0.776   0.190
20266WAT     H161040   7.763   0.811   0.147
20266WAT     H261041   7.891   0.850   0.241
20267WAT      O61042   0.962   6.926   1.943
20267WAT     H161043   0.956   6.830   1.967
20267WAT     H261044   1.049   6.943   1.895
20268WAT      O61045   5.561   0.427   2.090
20268WAT     H161046   5.569   0.334   2.126
20268WAT     H261047   5.472   0.438   2.045
20269WAT      O61048   0.404   6.318   8.752
20269WAT     H161049   0.387   6.386   8.823
20269WAT     H261050   0.485   6.264   8.777
20270WAT      O61051   5.878   6.738   4.819
20270WAT     H161052   5.890   6.837   4.826
20270WAT     H261053   5.966   6.695   4.797
20271WAT      O61054   7.895   2.559   1.823
20271WAT     H161055   7.900   2.508   1.909
20271WAT     H261056   7.825   2.630   1.830
20272WAT      O61057   3.354   7.689   4.284
20272WAT     H161058   3.277   7.629   4.265
20272WAT     H261059   3.355   7.712   4.382
20273WAT      O61060   7.664   3.540   3.235
20273WAT     H161061   7.683   3.549   3.137
20273WAT     H261062   7.709   3.458   3.270
20274WAT      O61063   2.914   4.582   4.705
20274WAT     H161064   2.968   4.498   4.719
20274WAT     H261065   2.830   4.578   4.759
20275WAT      O61066   9.611   7.580   5.221
20275WAT     H161067   9.537   7.572   5.154
20275WAT     H261068   9.695   7.610   5.174
20276WAT      O61069   4.919   4.837   2.650
20276WAT     H161070   4.924   4.919   2.707
20276WAT     H261071   4.929   4.862   2.554
20277WAT      O61072   2.980   2.484   0.603
20277WAT     H161073   3.063   2.429   0.595
20277WAT     H261074   2.926   2.453   0.681
20278WAT      O61075   6.406   9.068   5.525
20278WAT     H161076   6.312   9.037   5.511
20278WAT     H261077   6.434   9.048   5.619
20279WAT      O61078   7.267   7.893   8.231
20279WAT     H161079   7.292   7.975   8.179
20279WAT     H261080   7.310   7.896   8.321
20280WAT      O61081   7.642   8.391   1.884
20280WAT     H161082   7.732   8.417   1.918
20280WAT     H261083   7.635   8.417   1.788
20281WAT      O61084   4.323   5.274   2.994
20281WAT     H161085   4.308   5.176   2.982
20281WAT     H261086   4.313   5.320   2.905
20282WAT      O61087   5.950   8.243   3.699
20282WAT     H161088   5.896   8.276   3.622
20282WAT     H261089   5.980   8.149   3.682
20283WAT      O61090   7.350   5.163   0.668
20283WAT     H161091   7.285   5.131   0.737
20283WAT     H261092   7.302   5.180   0.582
20284WAT      O61093   4.984   0.488   6.574
20284WAT     H161094   4.996   0.587   6.567
20284WAT     H261095   5.043   0.452   6.646
20285WAT      O61096   2.492   0.797   6.942
20285WAT     H161097   2.460   0.866   7.007
20285WAT     H261098   2.421   0.781   6.873
20286WAT      O61099   1.694   7.856   3.246
20286WAT     H161100   1.692   7.951   3.212
20286WAT     H261101   1.620   7.804   3.203
20287WAT      O61102   8.211   6.073   1.682
20287WAT     H161103   8.303   6.043   1.705
20287WAT     H261104   8.161   5.998   1.638
20288WAT      O61105   7.693   6.538   4.235
20288WAT     H161106   7.675   6.490   4.320
20288WAT     H261107   7.787   6.572   4.235
20289WAT      O61108   1.940   9.333   2.342
20289WAT     H161109   2.027   9.285   2.337
20289WAT     H261110   1.889   9.318   2.257
20290WAT      O61111   3.454   9.425   7.267
20290WAT     H161112   3.416   9.405   7.357
20290WAT     H261113   3.524   9.496   7.275
20291WAT      O61114   2.876   6.233   6.815
20291WAT     H161115   2.827   6.315   6.785
20291WAT     H261116   2.898   6.242   6.913
20292WAT      O61117   1.319   5.974   7.555
20292WAT     H161118   1.413   6.008   7.559
20292WAT     H261119   1.260   6.033   7.609
20293WAT      O61120   0.680   2.163   9.748
20293WAT     H161121   0.739   2.091   9.713
20293WAT     H261122   0.639   2.134   9.835
20294WAT      O61123   8.346   8.748   6.855
20294WAT     H161124   8.250   8.759   6.881
20294WAT     H261125   8.384   8.837   6.830
20295WAT      O61126   4.384   9.580   3.098
20295WAT     H161127   4.420   9.604   3.188
20295WAT     H261128   4.405   9.484   3.078
20296WAT      O61129   9.679   2.191   4.221
20296WAT     H161130   9.714   2.249   4.295
20296WAT     H261131   9.592   2.150   4.249
20297WAT      O61132   3.533   1.973   6.660
20297WAT     H161133   3.506   1.933   6.748
20297WAT     H261134   3.611   2.033   6.674
20298WAT      O61135   6.274   2.824   6.642
20298WAT     H161136   6.299   2.764   6.718
20298WAT     H261137   6.273   2.772   6.557
20299WAT      O61138   7.004   8.878   4.080
20299WAT     H161139   7.086   8.890   4.024
20299WAT     H261140   6.923   8.881   4.021
20300WAT      O61141   0.623   1.642   1.121
20300WAT     H161142   0.708   1.687   1.093
20300WAT     H261143   0.630   1.616   1.217
20301WAT      O61144   5.327   5.151   2.061
20301WAT     H161145   5.379   5.226   2.103
20301WAT     H261146   5.357   5.064   2.100
20302WAT      O61147   9.723   6.048   8.019
20302WAT     H161148   9.642   6.026   8.074
20302WAT     H261149   9.802   6.062   8.080
20303WAT      O61150   6.837   7.980   5.663
20303WAT     H161151   6.879   7.892   5.645
20303WAT     H261152   6.747   7.984   5.620
20304WAT      O61153   9.590   6.746   5.159
20304WAT     H161154   9.630   6.790   5.240
20304WAT     H261155   9.612   6.800   5.078
20305WAT      O61156   5.103   7.578   0.483
20305WAT     H161157   5.170   7.505   0.470
20305WAT     H261158   5.070   7.610   0.395
20306WAT      O61159   7.838   1.264   2.232
20306WAT     H161160   7.799   1.330   2.296
20306WAT     H261161   7.787   1.267   2.146
20307WAT      O61162   2.089   3.478   1.306
20307WAT     H161163   2.144   3.517   1.380
20307WAT     H261164   2.033   3.403   1.342
20308WAT      O61165   7.950   8.608   0.788
20308WAT     H161166   7.913   8.525   0.744
20308WAT     H261167   7.874   8.663   0.824
20309WAT      O61168   1.044   2.159   1.208
20309WAT     H161169   1.099   2.111   1.139
20309WAT     H261170   1.014   2.247   1.171
20310WAT      O61171   9.076   3.049   8.973
20310WAT     H161172   9.043   2.960   9.004
20310WAT     H261173   9.037   3.070   8.884
20311WAT      O61174   7.022   5.179   1.338
20311WAT     H161175   6.972   5.203   1.421
20311WAT     H261176   6.958   5.173   1.261
20312WAT      O61177   7.429   8.350   0.294
20312WAT     H161178   7.512   8.405   0.308
20312WAT     H261179   7.437   8.300   0.208
20313WAT      O61180   8.420   7.136   2.437
20313WAT     H161181   8.493   7.154   2.372
20313WAT     H261182   8.450   7.066   2.502
20314WAT      O61183   5.444   1.843   4.022
20314WAT     H161184   5.492   1.785   4.088
20314WAT     H261185   5.347   1.816   4.020
20315WAT      O61186   9.642   2.274   5.327
20315WAT     H161187   9.657   2.282   5.426
20315WAT     H261188   9.548   2.243   5.311
20316WAT      O61189   9.554   1.280   8.015
20316WAT     H161190   9.595   1.237   8.095
20316WAT     H261191   9.468   1.233   7.992
20317WAT      O61192   6.681   4.405   3.111
20317WAT     H161193   6.770   4.449   3.106
20317WAT     H261194   6.647   4.407   3.205
20318WAT      O61195   9.206   7.391   0.414
20318WAT     H161196   9.217   7.292   0.421
20318WAT     H261197   9.109   7.413   0.407
20319WAT      O61198   1.429   8.432   2.417
20319WAT     H161199   1.502   8.497   2.440
20319WAT     H261200   1.423   8.362   2.488
20320WAT      O61201   0.584   5.095   4.847
20320WAT     H161202   0.517   5.094   4.773
20320WAT     H261203   0.537   5.108   4.934
20321WAT      O61204   3.854   7.252   9.101
20321WAT     H161205   3.829   7.186   9.030
20321WAT     H261206   3.930   7.308   9.070
20322WAT      O61207   7.739   7.925   0.645
20322WAT     H161208   7.659   7.984   0.655
20322WAT     H261209   7.713   7.840   0.599
20323WAT      O61210   0.012   4.086   9.834
20323WAT     H161211   0.104   4.087   9.873
20323WAT     H261212  -0.005   4.170   9.784
20324WAT      O61213   7.244   8.314   2.926
20324WAT     H161214   7.154   8.272   2.939
20324WAT     H261215   7.290   8.321   3.015
20325WAT      O61216   4.852   3.087   0.260
20325WAT     H161217   4.796   3.042   0.330
20325WAT     H261218   4.871   3.181   0.288
20326WAT      O61219   4.197   4.907   6.466
20326WAT     H161220   4.295   4.891   6.480
20326WAT     H261221   4.174   4.888   6.371
20327WAT      O61222   3.507   3.108   9.305
20327WAT     H161223   3.537   3.167   9.230
20327WAT     H261224   3.428   3.054   9.276
20328WAT      O61225   2.007   6.480   0.492
20328WAT     H161226   1.914   6.468   0.525
20328WAT     H261227   2.061   6.399   0.512
20329WAT      O61228   4.808   2.036   4.972
20329WAT     H161229   4.784   2.051   4.877
20329WAT     H261230   4.861   2.114   5.006
20330WAT      O61231   4.281   5.201   9.623
20330WAT     H161232   4.262   5.138   9.698
20330WAT     H261233   4.233   5.288   9.639
20331WAT      O61234   0.383   8.393   7.545
20331WAT     H161235   0.479   8.408   7.522
20331WAT     H261236   0.354   8.462   7.612
20332WAT      O61237   4.364   5.211   0.332
20332WAT     H161238   4.445   5.153   0.326
20332WAT     H261239   4.325   5.203   0.424
20333WAT      O61240   9.659   9.747   1.873
20333WAT     H161241   9.602   9.749   1.955
20333WAT     H261242   9.651   9.657   1.830
20334WAT      O61243   5.539   8.762   2.929
20334WAT     H161244   5.460   8.759   2.990
20334WAT     H261245   5.563   8.857   2.910
20335WAT      O61246   2.838   5.291   9.793
20335WAT     H161247   2.793   5.274   9.706
20335WAT     H261248   2.930   5.252   9.792
20336WAT      O61249   5.827   3.088   9.596
20336WAT     H161250   5.793   3.130   9.680
20336WAT     H261251   5.926   3.105   9.588
20337WAT      O61252   3.884   0.752   9.312
20337WAT     H161253   3.846   0.845   9.316
20337WAT     H261254   3.945   0.738   9.389
20338WAT      O61255   2.986   0.500   3.453
20338WAT     H161256   2.924   0.430   3.485
20338WAT     H261257   3.076   0.488   3.497
20339WAT      O61258   4.231   5.729   9.399
20339WAT     H161259   4.284   5.758   9.479
20339WAT     H261260   4.134   5.729   9.422
20340WAT      O61261   5.090   3.298   1.902
20340WAT     H161262   5.184   3.265   1.901
20340WAT     H261263   5.028   3.224   1.876
20341WAT      O61264   3.960   7.023   0.862
20341WAT     H161265   4.057   7.047   0.856
20341WAT     H261266   3.905   7.100   0.827
20342WAT      O61267   3.755   5.437   1.207
20342WAT     H161268   3.794   5.525   1.180
20342WAT     H261269   3.800   5.364   1.157
20343WAT      O61270   1.819   3.369   3.321
20343WAT     H161271   1.756   3.292   3.325
20343WAT     H261272   1.897   3.345   3.263
20344WAT      O61273   9.157   6.122   2.550
20344WAT     H161274   9.249   6.125   2.511
20344WAT     H261275   9.119   6.031   2.536
20345WAT      O61276   7.774   8.129   8.160
20345WAT     H161277   7.836   8.208   8.155
20345WAT     H261278   7.717   8.126   8.078
20346WAT      O61279   6.207   7.847   1.570
20346WAT     H161280   6.110   7.824   1.568
20346WAT     H261281   6.250   7.804   1.649
20347WAT      O61282   2.446   6.823   6.305
20347WAT     H161283   2.506   6.891   6.347
20347WAT     H261284   2.482   6.732   6.319
20348WAT      O61285   6.439   4.671   4.749
20348WAT     H161286   6.494   4.591   4.770
20348WAT     H261287   6.475   4.751   4.797
20349WAT      O61288   1.522   8.254   8.946
20349WAT     H161289   1.577   8.296   9.019
20349WAT     H261290   1.474   8.174   8.983
20350WAT      O61291   6.883   5.695   2.889
20350WAT     H161292   6.821   5.768   2.919
20350WAT     H261293   6.947   5.732   2.821
20351WAT      O61294   2.850   0.258   1.573
20351WAT     H161295   2.832   0.223   1.482
20351WAT     H261296   2.901   0.190   1.626
20352WAT      O61297   2.172   6.050   2.015
20352WAT     H161298   2.248   5.993   1.985
20352WAT     H261299   2.144   6.022   2.107
20353WAT      O61300   6.543   2.874   6.063
20353WAT     H161301   6.619   2.848   6.003
20353WAT     H261302   6.572   2.947   6.124
20354WAT      O61303   0.998   0.253   6.388
20354WAT     H161304   1.077   0.224   6.442
20354WAT     H261305   1.022   0.333   6.333
20355WAT      O61306   0.300   4.496   2.668
20355WAT     H161307   0.372   4.449   2.720
20355WAT     H261308   0.320   4.594   2.665
20356WAT      O61309   4.557   0.505   1.186
20356WAT     H161310   4.637   0.465   1.230
20356WAT     H261311   4.497   0.432   1.154
20357WAT      O61312   2.963   8.824   5.133
20357WAT     H161313   3.021   8.904   5.142
20357WAT     H261314   2.969   8.789   5.040
20358WAT      O61315   0.755   5.366   8.031
20358WAT     H161316   0.708   5.346   8.117
20358WAT     H261317   0.742   5.463   8.008
20359WAT      O61318   5.761   6.676   8.522
20359WAT     H161319   5.773   6.728   8.606
20359WAT     H261320   5.674   6.626   8.525
20360WAT      O61321   7.816   4.179   4.972
20360WAT     H161322   7.808   4.087   4.934
20360WAT     H261323   7.726   4.222   4.975
20361WAT      O61324   5.577   0.928   7.279
20361WAT     H161325   5.607   1.017   7.245
20361WAT     H261326   5.520   0.942   7.361
20362WAT      O61327   8.133   9.387   0.474
20362WAT     H161328   8.185   9.437   0.543
20362WAT     H261329   8.087   9.452   0.413
20363WAT      O61330   6.740   6.029   5.656
20363WAT     H161331   6.778   5.937   5.663
20363WAT     H261332   6.658   6.027   5.598
20364WAT      O61333   8.074   4.071   8.664
20364WAT     H161334   8.173   4.070   8.678
20364WAT     H261335   8.040   4.164   8.672
20365WAT      O61336   2.836   3.331   0.198
20365WAT     H161337   2.841   3.325   0.098
20365WAT     H261338   2.858   3.243   0.238
20366WAT      O61339   7.582   9.283   8.469
20366WAT     H161340   7.531   9.200   8.444
20366WAT     H261341   7.520   9.361   8.472
20367WAT      O61342   6.182   6.254   6.782
20367WAT     H161343   6.240   6.309   6.722
20367WAT     H261344   6.178   6.160   6.750
20368WAT      O61345   1.444   6.344   0.235
20368WAT     H161346   1.514   6.381   0.174
20368WAT     H261347   1.481   6.335   0.328
20369WAT      O61348   7.935   6.638   9.169
20369WAT     H161349   7.979   6.578   9.236
20369WAT     H261350   7.840   6.653   9.196
20370WAT      O61351   9.004   2.296   0.870
20370WAT     H161352   9.065   2.343   0.806
20370WAT     H261353   9.057   2.263   0.949
20371WAT      O61354   9.325   2.517   7.885
20371WAT     H161355   9.351   2.613   7.868
20371WAT     H261356   9.226   2.509   7.881
20372WAT      O61357   6.747   3.076   8.124
20372WAT     H161358   6.663   3.069   8.070
20372WAT     H261359   6.749   3.003   8.192
20373WAT      O61360   8.557   2.687   8.236
20373WAT     H161361   8.509   2.640   8.311
20373WAT     H261362   8.637   2.733   8.273
20374WAT      O61363   7.330   2.180   0.032
20374WAT     H161364   7.327   2.261  -0.026
20374WAT     H261365   7.402   2.191   0.101
20375WAT      O61366   7.612   0.803   4.073
20375WAT     H161367   7.525   0.800   4.025
20375WAT     H261368   7.603   0.860   4.155
20376WAT      O61369   6.128   0.707   4.486
20376WAT     H161370   6.068   0.696   4.566
20376WAT     H261371   6.072   0.707   4.403
20377WAT      O61372   6.158   4.123   0.845
20377WAT     H161373   6.247   4.128   0.889
20377WAT     H261374   6.089   4.096   0.912
20378WAT      O61375   1.706   4.746   9.229
20378WAT     H161376   1.712   4.665   9.171
20378WAT     H261377   1.637   4.732   9.300
20379WAT      O61378   9.084   6.364   0.024
20379WAT     H161379   9.126   6.413   0.100
20379WAT     H261380   9.088   6.265   0.042
20380WAT      O61381   1.673   7.625   7.288
20380WAT     H161382   1.599   7.564   7.316
20380WAT     H261383   1.647   7.673   7.204
20381WAT      O61384   5.304   7.471   5.821
20381WAT     H161385   5.227   7.531   5.843
20381WAT     H261386   5.339   7.429   5.905
20382WAT      O61387   2.391   9.756   2.986
20382WAT     H161388   2.419   9.847   3.016
20382WAT     H261389   2.443   9.687   3.038
20383WAT      O61390   0.742   5.051   6.351
20383WAT     H161391   0.837   5.025   6.368
20383WAT     H261392   0.682   4.996   6.409
20384WAT      O61393   3.165   6.924   6.693
20384WAT     H161394   3.179   6.865   6.614
20384WAT     H261395   3.202   7.015   6.674
20385WAT      O61396   0.898   5.742   8.695
20385WAT     H161397   0.918   5.647   8.719
20385WAT     H261398   0.984   5.794   8.692
20386WAT      O61399   9.240   5.931   6.027
20386WAT     H161400   9.148   5.968   6.042
20386WAT     H261401   9.308   6.000   6.051
20387WAT      O61402   3.641   8.728   6.225
20387WAT     H161403   3.590   8.688   6.150
20387WAT     H261404   3.647   8.663   6.301
20388WAT      O61405   1.557   8.813   4.807
20388WAT     H161406   1.600   8.789   4.720
20388WAT     H261407   1.615   8.878   4.856
20389WAT      O61408   9.886   1.015   8.112
20389WAT     H161409   9.910   0.931   8.160
20389WAT     H261410   9.799   1.050   8.146
20390WAT      O61411   9.528   8.210   3.284
20390WAT     H161412   9.611   8.221   3.230
20390WAT     H261413   9.477   8.130   3.251
20391WAT      O61414   6.270   2.649   0.942
20391WAT     H161415   6.352   2.705   0.953
20391WAT     H261416   6.296   2.557   0.914
20392WAT      O61417   1.957   0.066   4.516
20392WAT     H161418   1.940  -0.031   4.533
20392WAT     H261419   1.875   0.119   4.539
20393WAT      O61420   3.907   3.828   6.741
20393WAT     H161421   3.998   3.865   6.759
20393WAT     H261422   3.914   3.730   6.722
20394WAT      O61423   9.472   3.340   6.998
20394WAT     H161424   9.405   3.311   6.930
20394WAT     H261425   9.424   3.368   7.082
20395WAT      O61426   2.781   9.492   6.919
20395WAT     H161427   2.717   9.470   6.845
20395WAT     H261428   2.856   9.547   6.882
20396WAT      O61429   8.020   9.148   5.785
20396WAT     H161430   8.072   9.064   5.795
20396WAT     H261431   7.930   9.137   5.827
20397WAT      O61432   9.609   8.028   9.403
20397WAT     H161433   9.673   7.975   9.348
20397WAT     H261434   9.524   8.041   9.352
20398WAT      O61435   2.068   2.807   3.343
20398WAT     H161436   2.077   2.721   3.394
20398WAT     H261437   1.972   2.820   3.316
20399WAT      O61438   0.984   2.769   7.706
20399WAT     H161439   1.006   2.704   7.779
20399WAT     H261440   0.927   2.723   7.637
20400WAT      O61441   1.806   8.223   2.530
20400WAT     H161442   1.710   8.233   2.504
20400WAT     H261443   1.850   8.155   2.471
20401WAT      O61444   7.463   8.909   2.712
20401WAT     H161445   7.504   8.964   2.784
20401WAT     H261446   7.532   8.849   2.672
20402WAT      O61447   0.754   8.382   5.566
20402WAT     H161448   0.758   8.462   5.625
20402WAT     H261449   0.784   8.407   5.474
20403WAT      O61450   1.745   1.259   2.589
20403WAT     H161451   1.686   1.291   2.663
20403WAT     H261452   1.748   1.160   2.589
20404WAT      O61453   4.615   8.215   1.940
20404WAT     H161454   4.536   8.192   1.883
20404WAT     H261455   4.596   8.188   2.035
20405WAT      O61456   9.555   8.240   2.802
20405WAT     H161457   9.564   8.271   2.896
20405WAT     H261458   9.463   8.261   2.769
20406WAT      O61459   9.857   9.725   8.962
20406WAT     H161460   9.869   9.626   8.952
20406WAT     H261461   9.943   9.767   8.991
20407WAT      O61462   6.113   6.641   4.729
20407WAT     H161463   6.207   6.674   4.740
20407WAT     H261464   6.099   6.614   4.634
20408WAT      O61465   9.685   6.150   9.219
20408WAT     H161466   9.745   6.193   9.286
20408WAT     H261467   9.662   6.217   9.148
20409WAT      O61468   5.278   2.393   5.075
20409WAT     H161469   5.291   2.490   5.053
20409WAT     H261470   5.239   2.346   4.995
20410WAT      O61471   1.045   9.773   4.545
20410WAT     H161472   0.949   9.748   4.532
20410WAT     H261473   1.065   9.857   4.493
20411WAT      O61474   2.205   0.873   4.012
20411WAT     H161475   2.289   0.872   4.067
20411WAT     H261476   2.228   0.891   3.917
20412WAT      O61477   7.078   2.577   4.347
20412WAT     H161478   7.087   2.668   4.306
20412WAT     H261479   7.094   2.584   4.446
20413WAT      O61480   7.562   7.927   7.068
20413WAT     H161481   7.636   7.978   7.023
20413WAT     H261482   7.571   7.830   7.045
20414WAT      O61483   3.887   7.209   1.255
20414WAT     H161484   3.904   7.271   1.178
20414WAT     H261485   3.973   7.187   1.300
20415WAT      O61486   6.004   8.170   5.360
20415WAT     H161487   5.964   8.216   5.281
20415WAT     H261488   5.950   8.193   5.442
20416WAT      O61489   4.214   1.706   0.412
20416WAT     H161490   4.235   1.793   0.367
20416WAT     H261491   4.234   1.712   0.509
20417WAT      O61492   9.493   6.065   0.504
20417WAT     H161493   9.499   5.973   0.467
20417WAT     H261494   9.525   6.131   0.436
20418WAT      O61495   2.249   2.687   3.057
20418WAT     H161496   2.200   2.766   3.093
20418WAT     H261497   2.346   2.710   3.048
20419WAT      O61498   8.507   6.660   4.378
20419WAT     H161499   8.463   6.624   4.296
20419WAT     H261500   8.588   6.714   4.352
20420WAT      O61501   9.022   2.954   0.728
20420WAT     H161502   9.071   2.867   0.727
20420WAT     H261503   8.925   2.937   0.745
20421WAT      O61504   5.640   7.841   7.932
20421WAT     H161505   5.546   7.810   7.947
20421WAT     H261506   5.685   7.855   8.020
20422WAT      O61507   8.304   0.091   4.116
20422WAT     H161508   8.387   0.129   4.158
20422WAT     H261509   8.249   0.047   4.187
20423WAT      O61510   0.917   1.271   8.847
20423WAT     H161511   0.906   1.175   8.824
20423WAT     H261512   0.901   1.327   8.766
20424WAT      O61513   3.980   1.097   9.179
20424WAT     H161514   3.909   1.030   9.199
20424WAT     H261515   4.047   1.058   9.116
20425WAT      O61516   2.544   0.617   0.147
20425WAT     H161517   2.497   0.705   0.142
20425WAT     H261518   2.492   0.555   0.206
20426WAT      O61519   1.125   9.631   3.855
20426WAT     H161520   1.103   9.663   3.763
20426WAT     H261521   1.209   9.675   3.887
20427WAT      O61522   1.442   1.824   4.899
20427WAT     H161523   1.511   1.895   4.885
20427WAT     H261524   1.480   1.752   4.958
20428WAT      O61525   7.921   7.962   0.284
20428WAT     H161526   7.901   7.922   0.195
20428WAT     H261527   7.837   7.999   0.324
20429WAT      O61528   2.250   6.524   0.786
20429WAT     H161529   2.310   6.448   0.762
20429WAT     H261530   2.296   6.610   0.767
20430WAT      O61531   6.155   4.159   2.826
20430WAT     H161532   6.073   4.217   2.829
20430WAT     H261533   6.226   4.199   2.883
20431WAT      O61534   5.663   7.220   2.586
20431WAT     H161535   5.732   7.238   2.657
20431WAT     H261536   5.617   7.134   2.606
20432WAT      O61537   0.567   3.989   3.497
20432WAT     H161538   0.490   4.027   3.549
20432WAT     H261539   0.538   3.904   3.453
20433WAT      O61540   7.812   0.251   2.639
20433WAT     H161541   7.854   0.253   2.730
20433WAT     H261542   7.779   0.343   2.615
20434WAT      O61543   1.986   1.521   5.022
20434WAT     H161544   1.971   1.433   5.067
20434WAT     H261545   1.899   1.571   5.020
20435WAT      O61546   3.275   9.240   3.302
20435WAT     H161547   3.234   9.309   3.243
20435WAT     H261548   3.359   9.205   3.261
20436WAT      O61549   9.691   5.165   6.366
20436WAT     H161550   9.745   5.186   6.285
20436WAT     H261551   9.752   5.131   6.439
20437WAT      O61552   5.491   6.492   5.197
20437WAT     H161553   5.430   6.466   5.272
20437WAT     H261554   5.572   6.434   5.198
20438WAT      O61555   8.036   2.162   4.790
20438WAT     H161556   8.132   2.139   4.809
20438WAT     H261557   7.980   2.134   4.868
20439WAT      O61558   5.537   3.415   8.917
20439WAT     H161559   5.618   3.440   8.971
20439WAT     H261560   5.566   3.381   8.828
20440WAT      O61561   5.201   2.202   3.330
20440WAT     H161562   5.231   2.117   3.374
20440WAT     H261563   5.109   2.189   3.292
20441WAT      O61564   8.062   8.903   8.426
20441WAT     H161565   7.978   8.950   8.454
20441WAT     H261566   8.046   8.854   8.341
20442WAT      O61567   3.490   8.191   7.528
20442WAT     H161568   3.448   8.182   7.437
20442WAT     H261569   3.420   8.178   7.598
20443WAT      O61570   1.878   8.650   4.080
20443WAT     H161571   1.901   8.586   4.154
20443WAT     H261572   1.858   8.740   4.120
20444WAT      O61573   9.200   5.559   9.610
20444WAT     H161574   9.285   5.598   9.575
20444WAT     H261575   9.165   5.491   9.546
20445WAT      O61576   7.572   2.691   7.522
20445WAT     H161577   7.622   2.770   7.557
20445WAT     H261578   7.477   2.716   7.504
20446WAT      O61579   3.110   4.512   9.735
20446WAT     H161580   3.185   4.469   9.785
20446WAT     H261581   3.100   4.607   9.765
20447WAT      O61582   8.906   1.799   7.345
20447WAT     H161583   8.956   1.876   7.304
20447WAT     H261584   8.871   1.826   7.434
20448WAT      O61585   9.492   8.188   3.550
20448WAT     H161586   9.579   8.165   3.594
20448WAT     H261587   9.509   8.211   3.454
20449WAT      O61588   8.197   3.730   5.473
20449WAT     H161589   8.123   3.679   5.428
20449WAT     H261590   8.191   3.716   5.572
20450WAT      O61591   0.056   3.379   6.990
20450WAT     H161592  -0.034   3.404   7.026
20450WAT     H261593   0.087   3.450   6.926
20451WAT      O61594   3.634   8.068   3.303
20451WAT     H161595   3.666   8.121   3.382
20451WAT     H261596   3.679   7.979   3.302
20452WAT      O61597   0.001   4.511   5.425
20452WAT     H161598   0.099   4.520   5.439
20452WAT     H261599  -0.020   4.519   5.328
20453WAT      O61600   3.208   6.515   2.152
20453WAT     H161601   3.139   6.561   2.096
20453WAT     H261602   3.193   6.538   2.249
20454WAT      O61603   4.426   4.739   9.220
20454WAT     H161604   4.344   4.796   9.207
20454WAT     H261605   4.486   4.783   9.287
20455WAT      O61606   1.993   4.292   6.555
20455WAT     H161607   1.942   4.244   6.484
20455WAT     H261608   1.931   4.348   6.609
20456WAT      O61609   7.855   5.100   4.709
20456WAT     H161610   7.840   5.191   4.746
20456WAT     H261611   7.780   5.076   4.647
20457WAT      O61612   6.937   3.121   3.697
20457WAT     H161613   6.935   3.025   3.667
20457WAT     H261614   6.950   3.180   3.617
20458WAT      O61615   1.045   6.871   5.046
20458WAT     H161616   1.108   6.944   5.021
20458WAT     H261617   1.046   6.857   5.145
20459WAT      O61618   7.117   2.266   4.450
20459WAT     H161619   7.056   2.255   4.371
20459WAT     H261620   7.212   2.272   4.418
20460WAT      O61621   7.521   9.378   2.248
20460WAT     H161622   7.482   9.375   2.341
20460WAT     H261623   7.497   9.465   2.205
20461WAT      O61624   7.237   2.930   0.985
20461WAT     H161625   7.289   3.009   1.016
20461WAT     H261626   7.148   2.960   0.951
20462WAT      O61627   8.297   6.361   1.955
20462WAT     H161628   8.368   6.350   1.885
20462WAT     H261629   8.265   6.456   1.955
20463WAT      O61630   9.051   8.956   1.326
20463WAT     H161631   9.128   8.910   1.370
20463WAT     H261632   9.017   9.029   1.386
20464WAT      O61633   5.353   4.468   4.285
20464WAT     H161634   5.399   4.541   4.335
20464WAT     H261635   5.419   4.396   4.261
20465WAT      O61636   2.440   3.262   0.887
20465WAT     H161637   2.381   3.280   0.966
20465WAT     H261638   2.518   3.206   0.917
20466WAT      O61639   0.608   6.752   8.246
20466WAT     H161640   0.590   6.668   8.196
20466WAT     H261641   0.521   6.794   8.273
20467WAT      O61642   0.296   3.499   9.403
20467WAT     H161643   0.280   3.507   9.304
20467WAT     H261644   0.378   3.552   9.427
20468WAT      O61645   9.019   6.301   8.281
20468WAT     H161646   8.949   6.230   8.283
20468WAT     H261647   8.982   6.385   8.321
20469WAT      O61648   7.290   3.736   2.635
20469WAT     H161649   7.299   3.836   2.628
20469WAT     H261650   7.381   3.694   2.625
20470WAT      O61651   6.157   2.913   3.612
20470WAT     H161652   6.253   2.936   3.624
20470WAT     H261653   6.107   2.992   3.577
20471WAT      O61654   3.440   2.327   2.110
20471WAT     H161655   3.436   2.421   2.075
20471WAT     H261656   3.524   2.315   2.163
20472WAT      O61657   2.976   9.638   1.858
20472WAT     H161658   2.977   9.551   1.809
20472WAT     H261659   2.892   9.687   1.836
20473WAT      O61660   1.849   6.175   3.805
20473WAT     H161661   1.836   6.167   3.904
20473WAT     H261662   1.774   6.228   3.766
20474WAT      O61663   7.756   0.392   1.434
20474WAT     H161664   7.816   0.359   1.507
20474WAT     H261665   7.680   0.443   1.473
20475WAT      O61666   3.859   2.539   3.845
20475WAT     H161667   3.771   2.535   3.892
20475WAT     H261668   3.890   2.446   3.826
20476WAT      O61669   9.666   6.374   4.358
20476WAT     H161670   9.660   6.438   4.281
20476WAT     H261671   9.620   6.414   4.437
20477WAT      O61672   9.452   8.416   4.524
20477WAT     H161673   9.418   8.353   4.454
20477WAT     H261674   9.377   8.439   4.587
20478WAT      O61675   9.414   8.437   6.719
20478WAT     H161676   9.484   8.470   6.783
20478WAT     H261677   9.348   8.510   6.703
20479WAT      O61678   7.345   1.209   1.431
20479WAT     H161679   7.289   1.140   1.385
20479WAT     H261680   7.353   1.290   1.372
20480WAT      O61681   6.216   2.025   8.784
20480WAT     H161682   6.211   1.935   8.741
20480WAT     H261683   6.297   2.074   8.752
20481WAT      O61684   7.740   5.089   2.670
20481WAT     H161685   7.825   5.036   2.672
20481WAT     H261686   7.665   5.033   2.704
20482WAT      O61687   1.244   5.596   3.000
20482WAT     H161688   1.291   5.678   3.030
20482WAT     H261689   1.204   5.612   2.909
20483WAT      O61690   9.691   9.308   1.673
20483WAT     H161691   9.616   9.351   1.723
20483WAT     H261692   9.763   9.376   1.655
20484WAT      O61693   3.742   8.536   7.299
20484WAT     H161694   3.694   8.502   7.380
20484WAT     H261695   3.713   8.485   7.219
20485WAT      O61696   5.917   6.501   7.785
20485WAT     H161697   5.823   6.472   7.803
20485WAT     H261698   5.940   6.485   7.689
20486WAT      O61699   7.698   2.078   7.754
20486WAT     H161700   7.763   2.126   7.694
20486WAT     H261701   7.700   1.980   7.732
20487WAT      O61702   6.738   2.711   7.253
20487WAT     H161703   6.743   2.760   7.340
20487WAT     H261704   6.828   2.712   7.209
20488WAT      O61705   2.439   8.238   5.860
20488WAT     H161706   2.451   8.259   5.763
20488WAT     H261707   2.342   8.241   5.883
20489WAT      O61708   8.872   7.749   1.150
20489WAT     H161709   8.893   7.696   1.068
20489WAT     H261710   8.849   7.686   1.224
20490WAT      O61711   5.989   5.122   8.918
20490WAT     H161712   6.027   5.091   8.831
20490WAT     H261713   5.946   5.045   8.965
20491WAT      O61714   2.374   1.145   5.888
20491WAT     H161715   2.310   1.104   5.823
20491WAT     H261716   2.372   1.244   5.878
20492WAT      O61717   9.299   2.787   5.840
20492WAT     H161718   9.207   2.753   5.859
20492WAT     H261719   9.325   2.760   5.747
20493WAT      O61720   3.644   1.540   9.183
20493WAT     H161721   3.653   1.588   9.270
20493WAT     H261722   3.681   1.597   9.110
20494WAT      O61723   5.849   5.084   6.514
20494WAT     H161724   5.886   5.097   6.606
20494WAT     H261725   5.924   5.072   6.449
20495WAT      O61726   9.804   0.621   2.182
20495WAT     H161727   9.841   0.686   2.249
20495WAT     H261728   9.817   0.656   2.090
20496WAT      O61729   3.696   0.400   8.415
20496WAT     H161730   3.604   0.432   8.439
20496WAT     H261731   3.688   0.325   8.349
20497WAT      O61732   3.928   8.426   2.866
20497WAT     H161733   3.951   8.387   2.777
20497WAT     H261734   3.959   8.521   2.869
20498WAT      O61735   2.066   2.813   0.277
20498WAT     H161736   2.160   2.810   0.241
20498WAT     H261737   2.041   2.722   0.311
20499WAT      O61738   5.911   5.295   8.323
20499WAT     H161739   5.820   5.258   8.302
20499WAT     H261740   5.905   5.350   8.407
20500WAT      O61741   7.692   3.660   3.478
20500WAT     H161742   7.690   3.592   3.551
20500WAT     H261743   7.676   3.615   3.390
20501WAT      O61744   6.382   2.111   5.091
20501WAT     H161745   6.365   2.205   5.061
20501WAT     H261746   6.295   2.065   5.111
20502WAT      O61747   5.770   2.843   2.067
20502WAT     H161748   5.850   2.784   2.068
20502WAT     H261749   5.763   2.890   1.979
20503WAT      O61750   4.101   1.225   4.560
20503WAT     H161751   4.051   1.163   4.621
20503WAT     H261752   4.151   1.292   4.615
20504WAT      O61753   5.215   0.430   7.816
20504WAT     H161754   5.282   0.359   7.836
20504WAT     H261755   5.260   0.506   7.771
20505WAT      O61756   6.294   3.576   5.939
20505WAT     H161757   6.242   3.596   5.855
20505WAT     H261758   6.361   3.649   5.954
20506WAT      O61759   0.030   1.312   6.647
20506WAT     H161760   0.063   1.403   6.675
20506WAT     H261761  -0.042   1.323   6.579
20507WAT      O61762   5.565   5.700   6.880
20507WAT     H161763   5.605   5.669   6.965
20507WAT     H261764   5.465   5.688   6.883
20508WAT      O61765   5.147   8.842   7.714
20508WAT     H161766   5.107   8.924   7.755
20508WAT     H261767   5.194   8.867   7.629
20509WAT      O61768   4.998   0.856   3.978
20509WAT     H161769   4.981   0.774   4.032
20509WAT     H261770   4.936   0.929   4.008
20510WAT      O61771   8.815   8.494   6.763
20510WAT     H161772   8.732   8.544   6.789
20510WAT     H261773   8.866   8.548   6.696
20511WAT      O61774   7.823   4.745   0.053
20511WAT     H161775   7.764   4.700  -0.014
20511WAT     H261776   7.808   4.706   0.143
20512WAT      O61777   9.676   2.598   3.599
20512WAT     H161778   9.745   2.667   3.578
20512WAT     H261779   9.709   2.538   3.672
20513WAT      O61780   6.642   3.636   8.796
20513WAT     H161781   6.692   3.717   8.825
20513WAT     H261782   6.687   3.595   8.717
20514WAT      O61783   7.409   4.486   3.533
20514WAT     H161784   7.496   4.457   3.572
20514WAT     H261785   7.424   4.560   3.468
20515WAT      O61786   4.363   1.579   3.868
20515WAT     H161787   4.308   1.562   3.786
20515WAT     H261788   4.457   1.548   3.851
20516WAT      O61789   8.844   0.176   9.231
20516WAT     H161790   8.856   0.199   9.134
20516WAT     H261791   8.933   0.180   9.277
20517WAT      O61792   3.971   4.375   0.729
20517WAT     H161793   3.927   4.446   0.674
20517WAT     H261794   4.013   4.416   0.810
20518WAT      O61795   3.539   8.458   7.860
20518WAT     H161796   3.535   8.427   7.955
20518WAT     H261797   3.488   8.544   7.851
20519WAT      O61798   8.196   9.686   3.455
20519WAT     H161799   8.153   9.680   3.364
20519WAT     H261800   8.295   9.675   3.446
20520WAT      O61801   0.341   1.934   9.458
20520WAT     H161802   0.245   1.924   9.483
20520WAT     H261803   0.373   2.026   9.484
20521WAT      O61804   9.161   1.526   9.221
20521WAT     H161805   9.158   1.527   9.321
20521WAT     H261806   9.195   1.438   9.190
20522WAT      O61807   8.623   2.012   8.850
20522WAT     H161808   8.583   1.979   8.765
20522WAT     H261809   8.713   1.972   8.863
20523WAT      O61810   1.125   4.862   9.486
20523WAT     H161811   1.145   4.934   9.419
20523WAT     H261812   1.059   4.896   9.553
20524WAT      O61813   8.879   1.560   6.698
20524WAT     H161814   8.908   1.493   6.766
20524WAT     H261815   8.807   1.522   6.641
20525WAT      O61816   0.926   9.841   3.292
20525WAT     H161817   0.903   9.847   3.389
20525WAT     H261818   1.023   9.863   3.279
20526WAT      O61819   3.441   9.664   0.577
20526WAT     H161820   3.350   9.632   0.600
20526WAT     H261821   3.452   9.664   0.477
20527WAT      O61822   5.087   1.019   7.593
20527WAT     H161823   5.097   1.005   7.691
20527WAT     H261824   5.068   1.116   7.575
20528WAT      O61825   5.340   6.787   3.546
20528WAT     H161826   5.292   6.734   3.616
20528WAT     H261827   5.290   6.871   3.528
20529WAT      O61828   1.037   7.263   1.355
20529WAT     H161829   0.970   7.317   1.304
20529WAT     H261830   1.021   7.166   1.340
20530WAT      O61831   1.973   1.909   9.833
20530WAT     H161832   1.902   1.893   9.765
20530WAT     H261833   2.059   1.930   9.786
20531WAT      O61834   8.962   0.143   3.385
20531WAT     H161835   8.919   0.141   3.295
20531WAT     H261836   8.926   0.220   3.437
20532WAT      O61837   6.514   7.484   4.386
20532WAT     H161838   6.573   7.554   4.346
20532WAT     H261839   6.567   7.400   4.401
20533WAT      O61840   3.961   0.551   7.686
20533WAT     H161841   3.963   0.515   7.592
20533WAT     H261842   3.914   0.487   7.745
20534WAT      O61843   5.382   5.187   0.123
20534WAT     H161844   5.364   5.214   0.218
20534WAT     H261845   5.432   5.260   0.077
20535WAT      O61846   6.758   9.455   8.231
20535WAT     H161847   6.805   9.488   8.149
20535WAT     H261848   6.736   9.358   8.219
20536WAT      O61849   3.130   7.135   8.123
20536WAT     H161850   3.171   7.047   8.145
20536WAT     H261851   3.201   7.205   8.118
20537WAT      O61852   2.909   5.574   6.235
20537WAT     H161853   2.996   5.608   6.270
20537WAT     H261854   2.844   5.567   6.311
20538WAT      O61855   8.071   5.119   9.000
20538WAT     H161856   8.080   5.087   8.906
20538WAT     H261857   8.160   5.146   9.035
20539WAT      O61858   3.058   7.708   2.423
20539WAT     H161859   3.015   7.747   2.505
20539WAT     H261860   3.152   7.740   2.416
20540WAT      O61861   2.820   5.896   0.580
20540WAT     H161862   2.881   5.878   0.657
20540WAT     H261863   2.837   5.988   0.545
20541WAT      O61864   1.701   8.704   2.201
20541WAT     H161865   1.699   8.789   2.148
20541WAT     H261866   1.641   8.637   2.158
20542WAT      O61867   0.929   4.289   1.442
20542WAT     H161868   0.850   4.228   1.449
20542WAT     H261869   1.010   4.241   1.474
20543WAT      O61870   3.443   5.905   9.612
20543WAT     H161871   3.368   5.845   9.586
20543WAT     H261872   3.409   5.975   9.675
20544WAT      O61873   3.826   5.841   1.850
20544WAT     H161874   3.834   5.807   1.944
20544WAT     H261875   3.735   5.819   1.815
20545WAT      O61876   1.182   4.031   6.052
20545WAT     H161877   1.177   3.936   6.084
20545WAT     H261878   1.242   4.083   6.113
20546WAT      O61879   4.117   2.698   2.098
20546WAT     H161880   4.027   2.710   2.057
20546WAT     H261881   4.184   2.680   2.026
20547WAT      O61882   9.728   1.176   7.807
20547WAT     H161883   9.660   1.103   7.815
20547WAT     H261884   9.702   1.252   7.866
20548WAT      O61885   1.315   8.204   8.367
20548WAT     H161886   1.378   8.160   8.431
20548WAT     H261887   1.232   8.232   8.415
20549WAT      O61888   3.578   3.828   6.138
20549WAT     H161889   3.569   3.742   6.188
20549WAT     H261890   3.512   3.894   6.173
20550WAT      O61891   6.625   3.924   5.155
20550WAT     H161892   6.672   3.995   5.103
20550WAT     H261893   6.682   3.896   5.233
20551WAT      O61894   9.856   2.096   8.455
20551WAT     H161895   9.942   2.056   8.422
20551WAT     H261896   9.874   2.186   8.495
20552WAT      O61897   2.482   9.586   4.894
20552WAT     H161898   2.538   9.659   4.934
20552WAT     H261899   2.405   9.627   4.845
20553WAT      O61900   2.133   0.421   1.268
20553WAT     H161901   2.197   0.464   1.332
20553WAT     H261902   2.180   0.395   1.185
20554WAT      O61903   5.025   1.813   3.693
20554WAT     H161904   5.097   1.745   3.683
20554WAT     H261905   5.039   1.888   3.628
20555WAT      O61906   0.674   3.525   8.738
20555WAT     H161907   0.732   3.598   8.703
20555WAT     H261908   0.656   3.458   8.666
20556WAT      O61909   0.295   6.620   3.145
20556WAT     H161910   0.370   6.567   3.185
20556WAT     H261911   0.307   6.624   3.045
20557WAT      O61912   3.888   4.360   2.907
20557WAT     H161913   3.790   4.373   2.889
20557WAT     H261914   3.936   4.446   2.893
20558WAT      O61915   8.154   2.156   1.275
20558WAT     H161916   8.146   2.057   1.266
20558WAT     H261917   8.244   2.186   1.243
20559WAT      O61918   7.239   4.320   6.846
20559WAT     H161919   7.180   4.397   6.871
20559WAT     H261920   7.319   4.319   6.906
20560WAT      O61921   2.534   1.501   7.121
20560WAT     H161922   2.478   1.432   7.166
20560WAT     H261923   2.504   1.512   7.027
20561WAT      O61924   3.837   2.547   1.099
20561WAT     H161925   3.904   2.594   1.156
20561WAT     H261926   3.776   2.493   1.157
20562WAT      O61927   8.437   7.825   0.035
20562WAT     H161928   8.433   7.923   0.054
20562WAT     H261929   8.358   7.780   0.076
20563WAT      O61930   6.596   8.709   7.323
20563WAT     H161931   6.594   8.631   7.260
20563WAT     H261932   6.682   8.709   7.374
20564WAT      O61933   4.762   7.078   3.092
20564WAT     H161934   4.720   6.988   3.100
20564WAT     H261935   4.861   7.068   3.086
20565WAT      O61936   8.272   8.291   3.009
20565WAT     H161937   8.218   8.214   2.973
20565WAT     H261938   8.253   8.302   3.106
20566WAT      O61939   6.249   7.416   4.337
20566WAT     H161940   6.254   7.317   4.330
20566WAT     H261941   6.338   7.453   4.365
20567WAT      O61942   1.364   8.100   2.979
20567WAT     H161943   1.333   8.185   2.936
20567WAT     H261944   1.432   8.121   3.049
20568WAT      O61945   0.979   5.946   5.594
20568WAT     H161946   1.020   5.981   5.509
20568WAT     H261947   0.981   6.018   5.664
20569WAT      O61948   5.903   7.660   8.441
20569WAT     H161949   5.909   7.590   8.512
20569WAT     H261950   5.926   7.749   8.480
20570WAT      O61951   4.006   3.418   9.375
20570WAT     H161952   3.948   3.500   9.378
20570WAT     H261953   4.083   3.433   9.313
20571WAT      O61954   0.581   1.382   6.840
20571WAT     H161955   0.519   1.457   6.863
20571WAT     H261956   0.528   1.302   6.812
20572WAT      O61957   2.187   7.648   9.357
20572WAT     H161958   2.243   7.579   9.312
20572WAT     H261959   2.090   7.633   9.334
20573WAT      O61960   9.365   6.880   7.677
20573WAT     H161961   9.284   6.865   7.619
20573WAT     H261962   9.354   6.829   7.762
20574WAT      O61963   2.060   8.382   5.676
20574WAT     H161964   2.039   8.284   5.669
20574WAT     H261965   2.060   8.423   5.584
20575WAT      O61966   4.024   6.801   7.825
20575WAT     H161967   3.943   6.743   7.822
20575WAT     H261968   4.049   6.819   7.920
20576WAT      O61969   1.502   3.107   7.768
20576WAT     H161970   1.411   3.148   7.774
20576WAT     H261971   1.502   3.018   7.813
20577WAT      O61972   7.386   3.593   5.388
20577WAT     H161973   7.360   3.524   5.321
20577WAT     H261974   7.338   3.679   5.368
20578WAT      O61975   6.468   1.646   1.808
20578WAT     H161976   6.387   1.704   1.812
20578WAT     H261977   6.442   1.553   1.782
20579WAT      O61978   0.916   0.323   1.875
20579WAT     H161979   0.832   0.272   1.858
20579WAT     H261980   0.908   0.415   1.839
20580WAT      O61981   2.765   1.314   9.597
20580WAT     H161982   2.726   1.368   9.671
20580WAT     H261983   2.699   1.247   9.564
20581WAT      O61984   3.129   1.155   3.915
20581WAT     H161985   3.181   1.086   3.864
20581WAT     H261986   3.034   1.154   3.885
20582WAT      O61987   2.874   6.471   1.841
20582WAT     H161988   2.899   6.563   1.811
20582WAT     H261989   2.905   6.404   1.774
20583WAT      O61990   3.669   8.326   2.825
20583WAT     H161991   3.734   8.402   2.825
20583WAT     H261992   3.689   8.266   2.902
20584WAT      O61993   2.082   1.400   1.205
20584WAT     H161994   2.122   1.445   1.126
20584WAT     H261995   2.140   1.413   1.286
20585WAT      O61996   6.995   8.982   5.991
20585WAT     H161997   6.998   9.080   5.976
20585WAT     H261998   6.908   8.945   5.957
20586WAT      O61999   0.892   6.926   1.009
20586WAT     H162000   0.890   6.932   0.909
20586WAT     H262001   0.802   6.945   1.046
20587WAT      O62002   1.703   4.413   4.575
20587WAT     H162003   1.674   4.437   4.667
20587WAT     H262004   1.766   4.336   4.578
20588WAT      O62005   7.422   2.984   9.624
20588WAT     H162006   7.448   3.066   9.675
20588WAT     H262007   7.386   3.010   9.534
20589WAT      O62008   8.154   8.710   6.263
20589WAT     H162009   8.240   8.661   6.280
20589WAT     H262010   8.077   8.650   6.281
20590WAT      O62011   4.700   1.085   7.021
20590WAT     H162012   4.791   1.122   7.042
20590WAT     H262013   4.631   1.155   7.039
20591WAT      O62014   5.303   9.495   1.335
20591WAT     H162015   5.352   9.414   1.303
20591WAT     H262016   5.245   9.531   1.262
20592WAT      O62017   7.792   2.253   6.830
20592WAT     H162018   7.722   2.313   6.868
20592WAT     H262019   7.750   2.192   6.762
20593WAT      O62020   1.977   6.967   8.208
20593WAT     H162021   1.910   6.893   8.206
20593WAT     H262022   2.015   6.980   8.116
20594WAT      O62023   2.483   1.978   0.005
20594WAT     H162024   2.562   2.000   0.062
20594WAT     H262025   2.401   1.975   0.062
20595WAT      O62026   8.616   6.308   2.453
20595WAT     H162027   8.605   6.235   2.521
20595WAT     H262028   8.632   6.268   2.363
20596WAT      O62029   1.831   8.943   4.140
20596WAT     H162030   1.791   8.995   4.216
20596WAT     H262031   1.929   8.963   4.134
20597WAT      O62032   0.323   4.405   8.303
20597WAT     H162033   0.313   4.306   8.295
20597WAT     H262034   0.385   4.438   8.231
20598WAT      O62035   6.191   4.808   2.574
20598WAT     H162036   6.191   4.709   2.559
20598WAT     H262037   6.246   4.830   2.655
20599WAT      O62038   6.025   2.426   8.843
20599WAT     H162039   5.966   2.346   8.827
20599WAT     H262040   6.058   2.424   8.937
20600WAT      O62041   7.156   1.789   4.385
20600WAT     H162042   7.162   1.840   4.299
20600WAT     H262043   7.193   1.845   4.459
20601WAT      O62044   2.745   6.556   5.082
20601WAT     H162045   2.844   6.559   5.068
20601WAT     H262046   2.714   6.644   5.118
20602WAT      O62047   1.432   7.374   9.082
20602WAT     H162048   1.394   7.329   9.162
20602WAT     H262049   1.517   7.420   9.107
20603WAT      O62050   2.015   3.427   7.223
20603WAT     H162051   2.094   3.387   7.175
20603WAT     H262052   2.035   3.433   7.321
20604WAT      O62053   8.779   6.494   0.084
20604WAT     H162054   8.802   6.468  -0.009
20604WAT     H262055   8.821   6.582   0.106
20605WAT      O62056   3.302   2.923   3.064
20605WAT     H162057   3.316   2.839   3.117
20605WAT     H262058   3.352   2.918   2.978
20606WAT      O62059   8.238   3.306   1.032
20606WAT     H162060   8.271   3.241   0.964
20606WAT     H262061   8.157   3.353   0.996
20607WAT      O62062   4.653   3.200   5.102
20607WAT     H162063   4.596   3.209   5.020
20607WAT     H262064   4.598   3.159   5.175
20608WAT      O62065   0.974   8.961   2.394
20608WAT     H162066   0.902   8.905   2.435
20608WAT     H262067   1.019   9.015   2.465
20609WAT      O62068   9.818   5.759   6.577
20609WAT     H162069   9.809   5.780   6.674
20609WAT     H262070   9.729   5.769   6.532
20610WAT      O62071   0.552   1.163   9.163
20610WAT     H162072   0.595   1.226   9.099
20610WAT     H262073   0.579   1.187   9.257
20611WAT      O62074   9.118   1.644   0.643
20611WAT     H162075   9.213   1.635   0.673
20611WAT     H262076   9.066   1.695   0.712
20612WAT      O62077   8.421   7.486   4.046
20612WAT     H162078   8.475   7.505   4.128
20612WAT     H262079   8.353   7.415   4.067
20613WAT      O62080   0.508   2.697   8.573
20613WAT     H162081   0.503   2.638   8.492
20613WAT     H262082   0.482   2.790   8.547
20614WAT      O62083   4.331   7.208   7.205
20614WAT     H162084   4.337   7.108   7.209
20614WAT     H262085   4.417   7.245   7.170
20615WAT      O62086   2.851   1.385   4.879
20615WAT     H162087   2.944   1.388   4.915
20615WAT     H262088   2.810   1.476   4.883
20616WAT      O62089   6.367   1.399   1.728
20616WAT     H162090   6.356   1.330   1.657
20616WAT     H262091   6.294   1.389   1.796
20617WAT      O62092   6.333   9.298   7.316
20617WAT     H162093   6.313   9.386   7.360
20617WAT     H262094   6.323   9.307   7.217
20618WAT      O62095   3.537   3.991   2.194
20618WAT     H162096   3.591   3.908   2.183
20618WAT     H262097   3.477   3.982   2.274
20619WAT      O62098   8.488   0.364   6.811
20619WAT     H162099   8.574   0.342   6.766
20619WAT     H262100   8.429   0.283   6.813
20620WAT      O62101   2.318   7.341   4.192
20620WAT     H162102   2.416   7.344   4.216
20620WAT     H262103   2.306   7.292   4.106
20621WAT      O62104   3.897   6.764   5.653
20621WAT     H162105   3.919   6.668   5.668
20621WAT     H262106   3.971   6.808   5.602
20622WAT      O62107   8.452   5.607   8.507
20622WAT     H162108   8.387   5.585   8.434
20622WAT     H262109   8.410   5.672   8.571
20623WAT      O62110   5.021   1.003   0.246
20623WAT     H162111   5.055   0.999   0.152
20623WAT     H262112   4.986   1.095   0.265
20624WAT      O62113   7.682   5.420   8.065
20624WAT     H162114   7.775   5.445   8.093
20624WAT     H262115   7.619   5.492   8.093
20625WAT      O62116   6.749   8.336   3.129
20625WAT     H162117   6.757   8.294   3.038
20625WAT     H262118   6.779   8.270   3.198
20626WAT      O62119   2.421   0.843   3.802
20626WAT     H162120   2.394   0.765   3.745
20626WAT     H262121   2.515   0.870   3.779
20627WAT      O62122   9.694   0.428   9.357
20627WAT     H162123   9.645   0.427   9.270
20627WAT     H262124   9.633   0.396   9.430
20628WAT      O62125   7.268   6.479   9.358
20628WAT     H162126   7.334   6.427   9.305
20628WAT     H262127   7.200   6.417   9.397
20629WAT      O62128   3.204   3.462   4.972
20629WAT     H162129   3.174   3.542   4.920
20629WAT     H262130   3.294   3.479   5.010
20630WAT      O62131   1.207   4.826   4.959
20630WAT     H162132   1.162   4.776   4.885
20630WAT     H262133   1.298   4.856   4.928
20631WAT      O62134   5.199   6.946   7.582
20631WAT     H162135   5.148   7.016   7.533
20631WAT     H262136   5.136   6.882   7.625
20632WAT      O62137   1.799   5.473   4.701
20632WAT     H162138   1.705   5.490   4.672
20632WAT     H262139   1.830   5.385   4.664
20633WAT      O62140   1.956   5.169   5.750
20633WAT     H162141   1.981   5.186   5.654
20633WAT     H262142   1.883   5.231   5.777
20634WAT      O62143   1.042   4.383   2.054
20634WAT     H162144   0.966   4.432   2.012
20634WAT     H262145   1.121   4.445   2.063
20635WAT      O62146   5.918   1.479   6.042
20635WAT     H162147   5.927   1.389   6.083
20635WAT     H262148   5.996   1.497   5.981
20636WAT      O62149   3.873   3.145   6.496
20636WAT     H162150   3.795   3.094   6.460
20636WAT     H262151   3.955   3.089   6.490
20637WAT      O62152   0.288   4.695   3.192
20637WAT     H162153   0.388   4.694   3.187
20637WAT     H262154   0.259   4.690   3.287
20638WAT      O62155   3.656   3.373   1.188
20638WAT     H162156   3.749   3.383   1.155
20638WAT     H262157   3.607   3.306   1.131
20639WAT      O62158   8.870   2.062   7.932
20639WAT     H162159   8.793   2.066   7.868
20639WAT     H262160   8.880   1.968   7.965
20640WAT      O62161   4.880   3.868   7.106
20640WAT     H162162   4.852   3.851   7.011
20640WAT     H262163   4.980   3.869   7.110
20641WAT      O62164   6.975   6.659   9.119
20641WAT     H162165   6.979   6.728   9.192
20641WAT     H262166   6.907   6.590   9.142
20642WAT      O62167   1.045   7.980   8.533
20642WAT     H162168   0.983   7.934   8.597
20642WAT     H262169   1.081   8.063   8.575
20643WAT      O62170   8.897   2.894   6.830
20643WAT     H162171   8.936   2.974   6.784
20643WAT     H262172   8.804   2.878   6.797
20644WAT      O62173   2.999   0.169   7.803
20644WAT     H162174   2.931   0.101   7.775
20644WAT     H262175   3.056   0.193   7.725
20645WAT      O62176   8.694   2.454   3.156
20645WAT     H162177   8.595   2.444   3.166
20645WAT     H262178   8.732   2.488   3.242
20646WAT      O62179   6.671   7.225   4.258
20646WAT     H162180   6.707   7.270   4.176
20646WAT     H262181   6.715   7.263   4.339
20647WAT      O62182   0.872   7.162   7.258
20647WAT     H162183   0.886   7.244   7.203
20647WAT     H262184   0.848   7.189   7.352
20648WAT      O62185   1.354   0.923   1.143
20648WAT     H162186   1.383   0.846   1.086
20648WAT     H262187   1.289   0.980   1.092
20649WAT      O62188   5.859   3.481   5.654
20649WAT     H162189   5.804   3.398   5.639
20649WAT     H262190   5.951   3.467   5.618
20650WAT      O62191   3.724   7.137   2.565
20650WAT     H162192   3.793   7.146   2.494
20650WAT     H262193   3.643   7.092   2.528
20651WAT      O62194   5.630   5.479   7.532
20651WAT     H162195   5.703   5.500   7.596
20651WAT     H262196   5.599   5.385   7.547
20652WAT      O62197   3.125   4.809   8.491
20652WAT     H162198   3.088   4.885   8.437
20652WAT     H262199   3.203   4.841   8.544
20653WAT      O62200   6.611   9.813   0.269
20653WAT     H162201   6.639   9.853   0.356
20653WAT     H262202   6.650   9.865   0.194
20654WAT      O62203   2.219   3.216   1.767
20654WAT     H162204   2.311   3.242   1.737
20654WAT     H262205   2.174   3.295   1.808
20655WAT      O62206   9.015   0.922   3.438
20655WAT     H162207   8.969   0.877   3.361
20655WAT     H262208   8.969   1.009   3.457
20656WAT      O62209   0.561   5.448   0.697
20656WAT     H162210   0.601   5.427   0.786
20656WAT     H262211   0.631   5.442   0.626
20657WAT      O62212   6.548   1.439   7.988
20657WAT     H162213   6.594   1.482   8.066
20657WAT     H262214   6.452   1.424   8.010
20658WAT      O62215   0.951   4.744   9.131
20658WAT     H162216   1.033   4.699   9.167
20658WAT     H262217   0.885   4.757   9.204
20659WAT      O62218   1.534   1.173   5.645
20659WAT     H162219   1.519   1.220   5.559
20659WAT     H262220   1.614   1.212   5.691
20660WAT      O62221   5.593   6.233   1.575
20660WAT     H162222   5.543   6.215   1.490
20660WAT     H262223   5.610   6.331   1.582
20661WAT      O62224   2.867   0.604   5.943
20661WAT     H162225   2.911   0.676   5.996
20661WAT     H262226   2.858   0.522   5.998
20662WAT      O62227   0.414   7.008   1.672
20662WAT     H162228   0.337   7.047   1.723
20662WAT     H262229   0.380   6.966   1.587
20663WAT      O62230   2.400   1.587   3.080
20663WAT     H162231   2.348   1.672   3.077
20663WAT     H262232   2.384   1.535   2.996
20664WAT      O62233   7.714   3.391   6.249
20664WAT     H162234   7.703   3.293   6.229
20664WAT     H262235   7.790   3.403   6.313
20665WAT      O62236   5.530   8.613   4.848
20665WAT     H162237   5.506   8.617   4.945
20665WAT     H262238   5.470   8.549   4.801
20666WAT      O62239   3.775   3.725   5.858
20666WAT     H162240   3.779   3.785   5.938
20666WAT     H262241   3.862   3.728   5.809
20667WAT      O62242   5.793   2.825   0.363
20667WAT     H162243   5.701   2.785   0.362
20667WAT     H262244   5.860   2.756   0.335
20668WAT      O62245   0.741   4.467   8.147
20668WAT     H162246   0.707   4.560   8.160
20668WAT     H262247   0.823   4.470   8.089
20669WAT      O62248   5.894   3.546   1.047
20669WAT     H162249   5.861   3.632   1.008
20669WAT     H262250   5.816   3.485   1.065
20670WAT      O62251   3.559   6.810   4.948
20670WAT     H162252   3.490   6.769   5.007
20670WAT     H262253   3.516   6.882   4.892
20671WAT      O62254   8.842   8.602   4.895
20671WAT     H162255   8.819   8.572   4.803
20671WAT     H262256   8.888   8.690   4.892
20672WAT      O62257   5.437   2.988   8.697
20672WAT     H162258   5.366   2.926   8.662
20672WAT     H262259   5.395   3.054   8.759
20673WAT      O62260   1.209   4.263   4.832
20673WAT     H162261   1.180   4.248   4.737
20673WAT     H262262   1.304   4.232   4.842
20674WAT      O62263   7.289   8.803   7.651
20674WAT     H162264   7.333   8.864   7.717
20674WAT     H262265   7.191   8.803   7.667
20675WAT      O62266   8.197   5.305   4.278
20675WAT     H162267   8.112   5.310   4.225
20675WAT     H262268   8.188   5.361   4.360
20676WAT      O62269   0.493   3.484   2.725
20676WAT     H162270   0.469   3.580   2.709
20676WAT     H262271   0.410   3.431   2.743
20677WAT      O62272   6.869   0.086   4.648
20677WAT     H162273   6.886   0.175   4.692
20677WAT     H262274   6.933   0.074   4.572
20678WAT      O62275   5.902   2.934   5.902
20678WAT     H162276   5.841   2.871   5.853
20678WAT     H262277   5.912   2.904   5.997
20679WAT      O62278   9.584   6.223   0.306
20679WAT     H162279   9.660   6.234   0.241
20679WAT     H262280   9.584   6.299   0.371
20680WAT      O62281   5.416   0.916   7.490
20680WAT     H162282   5.437   0.919   7.588
20680WAT     H262283   5.396   0.822   7.463
20681WAT      O62284   1.844   6.519   6.830
20681WAT     H162285   1.750   6.555   6.830
20681WAT     H262286   1.891   6.550   6.913
20682WAT      O62287   7.720   9.059   5.248
20682WAT     H162288   7.664   9.105   5.178
20682WAT     H262289   7.661   9.023   5.320
20683WAT      O62290   8.777   4.350   2.473
20683WAT     H162291   8.831   4.302   2.403
20683WAT     H262292   8.762   4.445   2.443
20684WAT      O62293   3.274   8.823   1.555
20684WAT     H162294   3.291   8.726   1.575
20684WAT     H262295   3.175   8.840   1.557
20685WAT      O62296   5.390   1.349   0.755
20685WAT     H162297   5.293   1.344   0.730
20685WAT     H262298   5.446   1.313   0.681
20686WAT      O62299   5.250   5.896   3.123
20686WAT     H162300   5.303   5.872   3.041
20686WAT     H262301   5.157   5.862   3.113
20687WAT      O62302   1.265   8.144   5.884
20687WAT     H162303   1.174   8.127   5.848
20687WAT     H262304   1.309   8.217   5.832
20688WAT      O62305   6.331   9.550   3.236
20688WAT     H162306   6.291   9.460   3.253
20688WAT     H262307   6.378   9.550   3.147
20689WAT      O62308   3.844   1.109   5.154
20689WAT     H162309   3.873   1.015   5.172
20689WAT     H262310   3.754   1.108   5.109
20690WAT      O62311   5.532   8.166   0.656
20690WAT     H162312   5.509   8.172   0.753
20690WAT     H262313   5.465   8.216   0.602
20691WAT      O62314   6.813   4.631   4.894
20691WAT     H162315   6.796   4.643   4.797
20691WAT     H262316   6.828   4.534   4.914
20692WAT      O62317   6.070   5.481   1.346
20692WAT     H162318   6.151   5.423   1.346
20692WAT     H262319   5.991   5.429   1.314
20693WAT      O62320   8.445   5.693   2.613
20693WAT     H162321   8.433   5.672   2.516
20693WAT     H262322   8.452   5.608   2.665
20694WAT      O62323   9.207   0.832   8.443
20694WAT     H162324   9.248   0.923   8.435
20694WAT     H262325   9.117   0.839   8.486
20695WAT      O62326   4.612   1.284   9.850
20695WAT     H162327   4.520   1.316   9.825
20695WAT     H262328   4.604   1.202   9.907
20696WAT      O62329   9.250   9.505   1.217
20696WAT     H162330   9.267   9.600   1.244
20696WAT     H262331   9.151   9.489   1.213
20697WAT      O62332   9.645   3.902   5.317
20697WAT     H162333   9.613   3.905   5.222
20697WAT     H262334   9.566   3.906   5.379
20698WAT      O62335   5.830   2.981   8.050
20698WAT     H162336   5.788   2.943   8.133
20698WAT     H262337   5.786   3.067   8.026
20699WAT      O62338   6.567   7.947   8.294
20699WAT     H162339   6.532   7.889   8.367
20699WAT     H262340   6.556   7.902   8.206
20700WAT      O62341   3.065   6.418   8.756
20700WAT     H162342   3.131   6.491   8.736
20700WAT     H262343   3.019   6.438   8.843
20701WAT      O62344   4.635   5.666   6.847
20701WAT     H162345   4.711   5.722   6.815
20701WAT     H262346   4.590   5.711   6.924
20702WAT      O62347   4.032   8.164   6.216
20702WAT     H162348   4.101   8.115   6.270
20702WAT     H262349   3.942   8.127   6.238
20703WAT      O62350   4.144   2.325   5.926
20703WAT     H162351   4.125   2.304   6.022
20703WAT     H262352   4.167   2.422   5.918
20704WAT      O62353   0.650   5.072   7.546
20704WAT     H162354   0.552   5.054   7.538
20704WAT     H262355   0.683   5.034   7.633
20705WAT      O62356   0.916   3.751   8.114
20705WAT     H162357   0.824   3.714   8.131
20705WAT     H262358   0.979   3.719   8.184
20706WAT      O62359   9.563   1.987   8.122
20706WAT     H162360   9.575   2.039   8.207
20706WAT     H262361   9.648   1.990   8.069
20707WAT      O62362   5.438   0.120   7.488
20707WAT     H162363   5.528   0.077   7.497
20707WAT     H262364   5.371   0.069   7.542
20708WAT      O62365   3.026   9.835   5.191
20708WAT     H162366   3.001   9.750   5.145
20708WAT     H262367   3.086   9.814   5.269
20709WAT      O62368   7.613   1.316   0.622
20709WAT     H162369   7.652   1.386   0.562
20709WAT     H262370   7.580   1.359   0.706
20710WAT      O62371   1.846   4.294   2.530
20710WAT     H162372   1.895   4.337   2.606
20710WAT     H262373   1.798   4.214   2.564
20711WAT      O62374   0.206   5.054   4.627
20711WAT     H162375   0.265   4.974   4.634
20711WAT     H262376   0.128   5.043   4.688
20712WAT      O62377   0.085   0.778   4.154
20712WAT     H162378   0.066   0.876   4.166
20712WAT     H262379   0.078   0.732   4.242
20713WAT      O62380   0.435   4.202   0.535
20713WAT     H162381   0.450   4.103   0.532
20713WAT     H262382   0.337   4.220   0.550
20714WAT      O62383   1.383   4.430   3.590
20714WAT     H162384   1.414   4.336   3.607
20714WAT     H262385   1.455   4.480   3.542
20715WAT      O62386   7.627   4.222   2.457
20715WAT     H162387   7.556   4.234   2.388
20715WAT     H262388   7.712   4.265   2.426
20716WAT      O62389   5.608   6.640   3.025
20716WAT     H162390   5.615   6.663   3.122
20716WAT     H262391   5.557   6.711   2.977
20717WAT      O62392   3.095   2.656   5.128
20717WAT     H162393   3.035   2.728   5.164
20717WAT     H262394   3.130   2.602   5.204
20718WAT      O62395   3.225   3.034   8.904
20718WAT     H162396   3.141   3.001   8.861
20718WAT     H262397   3.211   3.043   9.003
20719WAT      O62398   5.481   8.997   8.074
20719WAT     H162399   5.403   8.939   8.051
20719WAT     H262400   5.556   8.978   8.011
20720WAT      O62401   1.342   2.586   8.750
20720WAT     H162402   1.327   2.682   8.727
20720WAT     H262403   1.399   2.580   8.832
20721WAT      O62404   9.656   0.893   2.479
20721WAT     H162405   9.670   0.915   2.382
20721WAT     H262406   9.678   0.972   2.535
20722WAT      O62407   9.377   8.236   7.148
20722WAT     H162408   9.318   8.194   7.217
20722WAT     H262409   9.385   8.334   7.167
20723WAT      O62410   3.901   3.551   2.340
20723WAT     H162411   3.945   3.462   2.323
20723WAT     H262412   3.925   3.614   2.267
20724WAT      O62413   7.905   2.115   8.877
20724WAT     H162414   7.973   2.163   8.933
20724WAT     H262415   7.925   2.129   8.781
20725WAT      O62416   2.672   8.361   1.698
20725WAT     H162417   2.657   8.269   1.735
20725WAT     H262418   2.763   8.366   1.658
20726WAT      O62419   4.793   1.851   4.304
20726WAT     H162420   4.887   1.881   4.319
20726WAT     H262421   4.764   1.877   4.212
20727WAT      O62422   6.789   3.546   7.553
20727WAT     H162423   6.691   3.531   7.544
20727WAT     H262424   6.832   3.543   7.463
20728WAT      O62425   2.474   7.605   4.253
20728WAT     H162426   2.425   7.581   4.170
20728WAT     H262427   2.408   7.612   4.329
20729WAT      O62428   7.777   4.836   6.836
20729WAT     H162429   7.820   4.752   6.805
20729WAT     H262430   7.835   4.880   6.905
20730WAT      O62431   4.408   2.901   1.210
20730WAT     H162432   4.494   2.851   1.210
20730WAT     H262433   4.397   2.946   1.299
20731WAT      O62434   6.954   4.935   4.608
20731WAT     H162435   6.936   4.986   4.524
20731WAT     H262436   6.933   4.993   4.687
20732WAT      O62437   2.147   5.653   5.686
20732WAT     H162438   2.237   5.617   5.709
20732WAT     H262439   2.078   5.581   5.697
20733WAT      O62440   8.862   5.568   7.389
20733WAT     H162441   8.860   5.649   7.448
20733WAT     H262442   8.897   5.593   7.299
20734WAT      O62443   4.776   2.619   6.663
20734WAT     H162444   4.760   2.524   6.689
20734WAT     H262445   4.787   2.674   6.745
20735WAT      O62446   0.185   8.534   3.152
20735WAT     H162447   0.147   8.622   3.179
20735WAT     H262448   0.164   8.516   3.056
20736WAT      O62449   7.771   0.912   9.033
20736WAT     H162450   7.785   0.818   9.064
20736WAT     H262451   7.858   0.960   9.034
20737WAT      O62452   6.873   7.106   4.047
20737WAT     H162453   6.968   7.093   4.075
20737WAT     H262454   6.821   7.022   4.066
20738WAT      O62455   5.497   5.694   0.682
20738WAT     H162456   5.479   5.781   0.637
20738WAT     H262457   5.547   5.710   0.767
20739WAT      O62458   5.577   4.855   9.014
20739WAT     H162459   5.538   4.775   9.059
20739WAT     H262460   5.539   4.863   8.921
20740WAT      O62461   7.896   1.898   1.829
20740WAT     H162462   7.938   1.808   1.811
20740WAT     H262463   7.950   1.946   1.898
20741WAT      O62464   6.816   0.133   7.407
20741WAT     H162465   6.906   0.109   7.443
20741WAT     H262466   6.759   0.169   7.481
20742WAT      O62467   1.648   8.580   6.661
20742WAT     H162468   1.707   8.612   6.735
20742WAT     H262469   1.560   8.553   6.699
20743WAT      O62470   0.536   9.264   0.161
20743WAT     H162471   0.520   9.251   0.063
20743WAT     H262472   0.632   9.247   0.182
20744WAT      O62473   5.854   6.504   2.578
20744WAT     H162474   5.948   6.509   2.612
20744WAT     H262475   5.800   6.577   2.619
20745WAT      O62476   4.268   8.545   7.214
20745WAT     H162477   4.206   8.582   7.146
20745WAT     H262478   4.243   8.579   7.305
20746WAT      O62479   9.659   9.156   7.744
20746WAT     H162480   9.632   9.064   7.773
20746WAT     H262481   9.667   9.215   7.824
20747WAT      O62482   6.144   2.050   3.053
20747WAT     H162483   6.208   2.024   2.981
20747WAT     H262484   6.139   1.978   3.122
20748WAT      O62485   6.625   6.185   1.622
20748WAT     H162486   6.583   6.120   1.687
20748WAT     H262487   6.554   6.224   1.564
20749WAT      O62488   0.004   6.068   5.986
20749WAT     H162489  -0.016   6.143   5.922
20749WAT     H262490   0.001   5.981   5.937
20750WAT      O62491   2.114   9.107   4.431
20750WAT     H162492   2.113   9.199   4.472
20750WAT     H262493   2.162   9.044   4.492
20751WAT      O62494   6.006   9.306   6.647
20751WAT     H162495   6.105   9.302   6.635
20751WAT     H262496   5.970   9.388   6.602
20752WAT      O62497   6.900   4.891   7.795
20752WAT     H162498   6.921   4.802   7.753
20752WAT     H262499   6.835   4.940   7.737
20753WAT      O62500   4.163   6.723   9.521
20753WAT     H162501   4.165   6.769   9.610
20753WAT     H262502   4.084   6.755   9.469
20754WAT      O62503   5.068   3.526   1.683
20754WAT     H162504   5.119   3.596   1.733
20754WAT     H262505   5.076   3.438   1.731
20755WAT      O62506   7.069   5.051   0.032
20755WAT     H162507   7.073   4.958  -0.003
20755WAT     H262508   6.987   5.097  -0.003
20756WAT      O62509   9.072   2.165   8.069
20756WAT     H162510   8.999   2.144   8.004
20756WAT     H262511   9.160   2.161   8.022
20757WAT      O62512   5.892   1.738   1.443
20757WAT     H162513   5.834   1.657   1.429
20757WAT     H262514   5.836   1.814   1.475
20758WAT      O62515   9.812   2.012   3.648
20758WAT     H162516   9.738   1.955   3.685
20758WAT     H262517   9.774   2.101   3.622
20759WAT      O62518   1.382   4.662   8.177
20759WAT     H162519   1.458   4.672   8.113
20759WAT     H262520   1.395   4.578   8.230
20760WAT      O62521   9.865   7.560   0.097
20760WAT     H162522   9.822   7.531   0.011
20760WAT     H262523   9.926   7.637   0.079
20761WAT      O62524   5.612   6.903   3.197
20761WAT     H162525   5.699   6.953   3.196
20761WAT     H262526   5.538   6.965   3.171
20762WAT      O62527   4.518   4.743   7.577
20762WAT     H162528   4.564   4.825   7.613
20762WAT     H262529   4.471   4.766   7.492
20763WAT      O62530   4.509   1.563   8.989
20763WAT     H162531   4.526   1.541   8.893
20763WAT     H262532   4.590   1.540   9.043
20764WAT      O62533   5.053   1.178   7.970
20764WAT     H162534   5.054   1.172   8.070
20764WAT     H262535   5.093   1.096   7.931
20765WAT      O62536   3.712   5.735   3.142
20765WAT     H162537   3.666   5.717   3.055
20765WAT     H262538   3.644   5.756   3.213
20766WAT      O62539   8.762   9.197   8.491
20766WAT     H162540   8.694   9.125   8.476
20766WAT     H262541   8.809   9.181   8.578
20767WAT      O62542   2.112   8.127   1.990
20767WAT     H162543   2.037   8.180   1.949
20767WAT     H262544   2.160   8.076   1.919
20768WAT      O62545   8.342   7.093   5.804
20768WAT     H162546   8.414   7.049   5.750
20768WAT     H262547   8.361   7.081   5.901
20769WAT      O62548   3.253   3.278   0.696
20769WAT     H162549   3.188   3.333   0.644
20769WAT     H262550   3.249   3.306   0.793
20770WAT      O62551   4.230   1.655   8.652
20770WAT     H162552   4.232   1.701   8.741
20770WAT     H262553   4.143   1.674   8.607
20771WAT      O62554   6.888   8.347   6.509
20771WAT     H162555   6.844   8.418   6.563
20771WAT     H262556   6.968   8.312   6.559
20772WAT      O62557   6.604   4.663   2.468
20772WAT     H162558   6.507   4.639   2.469
20772WAT     H262559   6.613   4.762   2.457
20773WAT      O62560   8.216   3.193   6.978
20773WAT     H162561   8.298   3.247   6.960
20773WAT     H262562   8.240   3.112   7.033
20774WAT      O62563   1.923   9.520   1.401
20774WAT     H162564   1.901   9.605   1.450
20774WAT     H262565   1.845   9.458   1.406
20775WAT      O62566   2.267   8.466   6.155
20775WAT     H162567   2.264   8.394   6.085
20775WAT     H262568   2.243   8.427   6.244
20776WAT      O62569   8.258   2.700   9.753
20776WAT     H162570   8.216   2.790   9.738
20776WAT     H262571   8.201   2.647   9.816
20777WAT      O62572   1.905   1.660   5.493
20777WAT     H162573   1.973   1.631   5.561
20777WAT     H262574   1.916   1.758   5.475
20778WAT      O62575   0.642   5.483   1.094
20778WAT     H162576   0.700   5.524   1.024
20778WAT     H262577   0.642   5.384   1.084
20779WAT      O62578   1.318   2.492   9.615
20779WAT     H162579   1.246   2.552   9.650
20779WAT     H262580   1.343   2.522   9.523
20780WAT      O62581   4.033   2.590   2.838
20780WAT     H162582   3.973   2.620   2.764
20780WAT     H262583   4.108   2.655   2.849
20781WAT      O62584   6.295   1.065   1.045
20781WAT     H162585   6.316   1.120   1.126
20781WAT     H262586   6.198   1.074   1.024
20782WAT      O62587   7.787   1.075   3.744
20782WAT     H162588   7.784   1.010   3.820
20782WAT     H262589   7.879   1.078   3.706
20783WAT      O62590   8.605   5.605   1.127
20783WAT     H162591   8.624   5.703   1.118
20783WAT     H262592   8.680   5.553   1.086
20784WAT      O62593   9.842   4.205   9.090
20784WAT     H162594   9.842   4.240   8.997
20784WAT     H262595   9.797   4.115   9.092
20785WAT      O62596   5.025   2.601   1.738
20785WAT     H162597   5.090   2.653   1.793
20785WAT     H262598   4.968   2.544   1.797
20786WAT      O62599   8.715   8.833   4.337
20786WAT     H162600   8.803   8.803   4.300
20786WAT     H262601   8.677   8.905   4.279
20787WAT      O62602   8.332   3.935   6.132
20787WAT     H162603   8.376   4.022   6.112
20787WAT     H262604   8.398   3.861   6.119
20788WAT      O62605   2.408   4.699   7.573
20788WAT     H162606   2.469   4.641   7.626
20788WAT     H262607   2.426   4.795   7.594
20789WAT      O62608   2.590   2.015   5.267
20789WAT     H162609   2.645   2.057   5.195
20789WAT     H262610   2.607   1.916   5.269
20790WAT      O62611   2.296   0.891   4.990
20790WAT     H162612   2.377   0.945   4.970
20790WAT     H262613   2.255   0.860   4.904
20791WAT      O62614   4.262   0.560   2.599
20791WAT     H162615   4.210   0.493   2.652
20791WAT     H262616   4.217   0.576   2.511
20792WAT      O62617   6.539   8.288   2.737
20792WAT     H162618   6.618   8.316   2.791
20792WAT     H262619   6.462   8.347   2.758
20793WAT      O62620   8.171   9.785   3.047
20793WAT     H162621   8.199   9.756   2.956
20793WAT     H262622   8.074   9.810   3.046
20794WAT      O62623   1.255   6.241   1.109
20794WAT     H162624   1.268   6.275   1.202
20794WAT     H262625   1.296   6.305   1.044
20795WAT      O62626   8.772   6.766   3.237
20795WAT     H162627   8.763   6.676   3.280
20795WAT     H262628   8.765   6.837   3.307
20796WAT      O62629   8.323   3.633   6.309
20796WAT     H162630   8.247   3.617   6.246
20796WAT     H262631   8.396   3.683   6.261
20797WAT      O62632   7.155   6.679   1.656
20797WAT     H162633   7.243   6.721   1.677
20797WAT     H262634   7.167   6.580   1.649
20798WAT      O62635   5.964   3.050   4.019
20798WAT     H162636   6.035   3.103   4.067
20798WAT     H262637   6.008   2.981   3.961
20799WAT      O62638   1.715   3.440   5.652
20799WAT     H162639   1.764   3.506   5.709
20799WAT     H262640   1.634   3.407   5.701
20800WAT      O62641   4.200   5.416   0.228
20800WAT     H162642   4.250   5.411   0.142
20800WAT     H262643   4.250   5.366   0.298
20801WAT      O62644   9.716   7.618   6.943
20801WAT     H162645   9.664   7.703   6.935
20801WAT     H262646   9.779   7.625   7.021
20802WAT      O62647   0.931   4.129   7.863
20802WAT     H162648   0.905   4.158   7.955
20802WAT     H262649   1.006   4.187   7.830
20803WAT      O62650   4.031   2.363   0.889
20803WAT     H162651   4.093   2.288   0.909
20803WAT     H262652   3.988   2.395   0.973
20804WAT      O62653   0.007   5.723   0.920
20804WAT     H162654   0.087   5.673   0.887
20804WAT     H262655  -0.059   5.733   0.845
20805WAT      O62656   8.033   3.938   9.727
20805WAT     H162657   8.040   3.863   9.792
20805WAT     H262658   7.949   3.991   9.745
20806WAT      O62659   5.999   1.148   7.708
20806WAT     H162660   5.994   1.200   7.622
20806WAT     H262661   5.918   1.167   7.763
20807WAT      O62662   7.236   1.006   2.747
20807WAT     H162663   7.198   1.034   2.659
20807WAT     H262664   7.333   1.030   2.751
20808WAT      O62665   8.781   0.550   5.491
20808WAT     H162666   8.749   0.599   5.572
20808WAT     H262667   8.702   0.523   5.435
20809WAT      O62668   8.613   3.883   1.741
20809WAT     H162669   8.690   3.944   1.721
20809WAT     H262670   8.633   3.792   1.705
20810WAT      O62671   6.546   6.910   0.634
20810WAT     H162672   6.540   6.839   0.704
20810WAT     H262673   6.479   6.893   0.563
20811WAT      O62674   4.594   9.247   4.315
20811WAT     H162675   4.560   9.278   4.404
20811WAT     H262676   4.593   9.323   4.250
20812WAT      O62677   4.180   5.327   4.125
20812WAT     H162678   4.166   5.394   4.052
20812WAT     H262679   4.136   5.360   4.209
20813WAT      O62680   0.679   6.875   6.764
20813WAT     H162681   0.709   6.902   6.856
20813WAT     H262682   0.599   6.929   6.738
20814WAT      O62683   0.289   2.980   7.498
20814WAT     H162684   0.293   2.906   7.431
20814WAT     H262685   0.372   2.980   7.553
20815WAT      O62686   1.416   1.476   4.641
20815WAT     H162687   1.511   1.508   4.639
20815WAT     H262688   1.399   1.417   4.562
20816WAT      O62689   1.000   3.443   2.762
20816WAT     H162690   0.955   3.503   2.828
20816WAT     H262691   0.932   3.408   2.697
20817WAT      O62692   8.851   9.387   4.840
20817WAT     H162693   8.921   9.453   4.811
20817WAT     H262694   8.813   9.342   4.759
20818WAT      O62695   0.861   3.428   8.094
20818WAT     H162696   0.945   3.439   8.041
20818WAT     H262697   0.797   3.501   8.071
20819WAT      O62698   3.889   7.377   7.962
20819WAT     H162699   3.987   7.395   7.961
20819WAT     H262700   3.850   7.411   8.047
20820WAT      O62701   2.843   3.628   1.092
20820WAT     H162702   2.826   3.586   1.003
20820WAT     H262703   2.938   3.611   1.118
20821WAT      O62704   7.741   4.542   6.189
20821WAT     H162705   7.838   4.567   6.190
20821WAT     H262706   7.686   4.622   6.169
20822WAT      O62707   9.419   2.799   1.957
20822WAT     H162708   9.390   2.888   1.992
20822WAT     H262709   9.491   2.812   1.889
20823WAT      O62710   2.112   8.838   0.132
20823WAT     H162711   2.062   8.925   0.135
20823WAT     H262712   2.161   8.832   0.044
20824WAT      O62713   4.654   6.534   7.979
20824WAT     H162714   4.631   6.529   7.882
20824WAT     H262715   4.694   6.447   8.008
20825WAT      O62716   3.388   2.209   3.949
20825WAT     H162717   3.367   2.140   3.880
20825WAT     H262718   3.483   2.198   3.980
20826WAT      O62719   3.606   1.085   1.244
20826WAT     H162720   3.575   1.004   1.195
20826WAT     H262721   3.551   1.164   1.216
20827WAT      O62722   6.277   3.038   5.584
20827WAT     H162723   6.192   3.072   5.623
20827WAT     H262724   6.296   2.946   5.618
20828WAT      O62725   4.613   0.912   0.688
20828WAT     H162726   4.694   0.853   0.679
20828WAT     H262727   4.532   0.856   0.705
20829WAT      O62728   0.459   2.458   4.623
20829WAT     H162729   0.552   2.420   4.620
20829WAT     H262730   0.435   2.493   4.532
20830WAT      O62731   2.744   1.964   3.721
20830WAT     H162732   2.756   1.893   3.652
20830WAT     H262733   2.670   2.025   3.694
20831WAT      O62734   1.704   6.273   4.791
20831WAT     H162735   1.738   6.210   4.721
20831WAT     H262736   1.735   6.243   4.881
20832WAT      O62737   7.192   5.436   4.336
20832WAT     H162738   7.146   5.525   4.327
20832WAT     H262739   7.239   5.415   4.250
20833WAT      O62740   1.679   9.483   5.855
20833WAT     H162741   1.697   9.491   5.953
20833WAT     H262742   1.628   9.564   5.824
20834WAT      O62743   5.615   7.672   7.076
20834WAT     H162744   5.527   7.675   7.027
20834WAT     H262745   5.601   7.631   7.166
20835WAT      O62746   3.288   3.085   6.405
20835WAT     H162747   3.211   3.051   6.352
20835WAT     H262748   3.267   3.081   6.502
20836WAT      O62749   4.138   6.848   5.568
20836WAT     H162750   4.193   6.812   5.493
20836WAT     H262751   4.144   6.948   5.570
20837WAT      O62752   0.540   3.660   1.297
20837WAT     H162753   0.469   3.683   1.231
20837WAT     H262754   0.540   3.727   1.371
20838WAT      O62755   0.158   0.019   3.685
20838WAT     H162756   0.229  -0.036   3.730
20838WAT     H262757   0.200   0.102   3.648
20839WAT      O62758   9.120   2.224   0.156
20839WAT     H162759   9.102   2.287   0.231
20839WAT     H262760   9.209   2.244   0.116
20840WAT      O62761   8.222   1.678   6.371
20840WAT     H162762   8.284   1.601   6.362
20840WAT     H262763   8.253   1.737   6.445
20841WAT      O62764   8.251   3.317   7.546
20841WAT     H162765   8.335   3.311   7.600
20841WAT     H262766   8.210   3.226   7.538
20842WAT      O62767   2.199   9.303   5.907
20842WAT     H162768   2.114   9.266   5.872
20842WAT     H262769   2.180   9.377   5.971
20843WAT      O62770   0.332   5.940   3.418
20843WAT     H162771   0.332   5.960   3.516
20843WAT     H262772   0.241   5.958   3.381
20844WAT      O62773   0.504   2.154   6.216
20844WAT     H162774   0.555   2.180   6.134
20844WAT     H262775   0.562   2.099   6.276
20845WAT      O62776   4.839   8.754   2.033
20845WAT     H162777   4.862   8.840   2.078
20845WAT     H262778   4.896   8.680   2.070
20846WAT      O62779   9.118   7.765   6.617
20846WAT     H162780   9.046   7.707   6.579
20846WAT     H262781   9.200   7.756   6.562
20847WAT      O62782   6.192   9.477   9.692
20847WAT     H162783   6.100   9.513   9.677
20847WAT     H262784   6.187   9.379   9.709
20848WAT      O62785   1.850   5.515   5.472
20848WAT     H162786   1.814   5.579   5.540
20848WAT     H262787   1.838   5.553   5.381
20849WAT      O62788   1.880   1.454   5.783
20849WAT     H162789   1.821   1.534   5.781
20849WAT     H262790   1.971   1.480   5.814
20850WAT      O62791   2.029   2.631   8.719
20850WAT     H162792   2.035   2.582   8.633
20850WAT     H262793   2.119   2.633   8.763
20851WAT      O62794   5.598   0.749   6.201
20851WAT     H162795   5.669   0.804   6.156
20851WAT     H262796   5.557   0.803   6.275
20852WAT      O62797   9.181   9.089   9.656
20852WAT     H162798   9.107   9.117   9.717
20852WAT     H262799   9.261   9.065   9.711
20853WAT      O62800   2.766   3.839   0.258
20853WAT     H162801   2.778   3.789   0.343
20853WAT     H262802   2.686   3.899   0.266
20854WAT      O62803   2.469   3.897   7.447
20854WAT     H162804   2.383   3.852   7.423
20854WAT     H262805   2.465   3.928   7.542
20855WAT      O62806   3.678   3.309   3.489
20855WAT     H162807   3.610   3.353   3.547
20855WAT     H262808   3.728   3.240   3.542
20856WAT      O62809   6.560   0.541   4.476
20856WAT     H162810   6.593   0.502   4.562
20856WAT     H262811   6.628   0.527   4.404
20857WAT      O62812   6.630   5.819   5.845
20857WAT     H162813   6.711   5.789   5.794
20857WAT     H262814   6.633   5.782   5.938
20858WAT      O62815   5.248   7.390   3.514
20858WAT     H162816   5.247   7.413   3.611
20858WAT     H262817   5.268   7.472   3.460
20859WAT      O62818   0.157   7.758   9.285
20859WAT     H162819   0.151   7.795   9.192
20859WAT     H262820   0.079   7.791   9.339
20860WAT      O62821   4.197   1.240   6.086
20860WAT     H162822   4.187   1.142   6.102
20860WAT     H262823   4.108   1.285   6.094
20861WAT      O62824   2.311   2.802   0.752
20861WAT     H162825   2.259   2.838   0.674
20861WAT     H262826   2.390   2.751   0.719
20862WAT      O62827   7.963   2.666   7.453
20862WAT     H162828   8.037   2.634   7.393
20862WAT     H262829   7.876   2.633   7.417
20863WAT      O62830   4.486   6.135   1.418
20863WAT     H162831   4.567   6.189   1.440
20863WAT     H262832   4.477   6.127   1.319
20864WAT      O62833   2.468   4.691   7.035
20864WAT     H162834   2.415   4.611   7.064
20864WAT     H262835   2.542   4.662   6.974
20865WAT      O62836   5.818   8.592   0.212
20865WAT     H162837   5.896   8.654   0.223
20865WAT     H262838   5.756   8.630   0.144
20866WAT      O62839   0.678   0.375   0.231
20866WAT     H162840   0.752   0.400   0.170
20866WAT     H262841   0.591   0.406   0.192
20867WAT      O62842   4.127   0.740   8.110
20867WAT     H162843   4.225   0.736   8.130
20867WAT     H262844   4.098   0.835   8.099
20868WAT      O62845   5.352   3.841   6.201
20868WAT     H162846   5.362   3.917   6.266
20868WAT     H262847   5.443   3.811   6.171
20869WAT      O62848   0.824   5.087   1.258
20869WAT     H162849   0.907   5.076   1.203
20869WAT     H262850   0.827   5.175   1.305
20870WAT      O62851   9.779   9.177   5.568
20870WAT     H162852   9.793   9.175   5.667
20870WAT     H262853   9.720   9.101   5.541
20871WAT      O62854   8.391   4.667   0.901
20871WAT     H162855   8.484   4.698   0.922
20871WAT     H262856   8.387   4.567   0.905
20872WAT      O62857   3.387   8.374   7.001
20872WAT     H162858   3.416   8.408   6.912
20872WAT     H262859   3.332   8.291   6.988
20873WAT      O62860   9.155   8.803   6.337
20873WAT     H162861   9.084   8.837   6.275
20873WAT     H262862   9.159   8.860   6.419
20874WAT      O62863   8.497   9.276   6.678
20874WAT     H162864   8.421   9.239   6.625
20874WAT     H262865   8.550   9.339   6.622
20875WAT      O62866   0.653   2.295   4.402
20875WAT     H162867   0.731   2.277   4.343
20875WAT     H262868   0.682   2.350   4.480
20876WAT      O62869   3.327   3.410   9.687
20876WAT     H162870   3.345   3.350   9.609
20876WAT     H262871   3.271   3.487   9.658
20877WAT      O62872   0.448   7.378   4.952
20877WAT     H162873   0.490   7.469   4.959
20877WAT     H262874   0.502   7.321   4.891
20878WAT      O62875   8.591   8.257   7.170
20878WAT     H162876   8.637   8.170   7.158
20878WAT     H262877   8.660   8.330   7.175
20879WAT      O62878   7.060   8.920   6.247
20879WAT     H162879   7.019   8.947   6.160
20879WAT     H262880   7.078   9.002   6.302
20880WAT      O62881   9.619   9.358   1.051
20880WAT     H162882   9.638   9.423   1.125
20880WAT     H262883   9.533   9.383   1.006
20881WAT      O62884   2.337   2.874   5.498
20881WAT     H162885   2.246   2.909   5.475
20881WAT     H262886   2.352   2.786   5.454
20882WAT      O62887   6.147   3.303   7.293
20882WAT     H162888   6.167   3.264   7.383
20882WAT     H262889   6.159   3.403   7.297
20883WAT      O62890   6.892   5.294   4.648
20883WAT     H162891   6.823   5.357   4.684
20883WAT     H262892   6.917   5.228   4.719
20884WAT      O62893   5.558   3.097   5.700
20884WAT     H162894   5.590   3.139   5.615
20884WAT     H262895   5.513   3.010   5.680
20885WAT      O62896   4.033   8.352   8.918
20885WAT     H162897   4.122   8.355   8.872
20885WAT     H262898   4.045   8.365   9.016
20886WAT      O62899   2.548   2.119   7.057
20886WAT     H162900   2.502   2.208   7.059
20886WAT     H262901   2.642   2.130   7.090
20887WAT      O62902   2.941   4.355   5.710
20887WAT     H162903   2.878   4.347   5.787
20887WAT     H262904   2.993   4.440   5.718
20888WAT      O62905   6.371   5.277   8.572
20888WAT     H162906   6.331   5.304   8.660
20888WAT     H262907   6.448   5.215   8.587
20889WAT      O62908   6.348   9.348   5.223
20889WAT     H162909   6.254   9.330   5.251
20889WAT     H262910   6.368   9.445   5.233
20890WAT      O62911   6.229   0.391   5.427
20890WAT     H162912   6.265   0.475   5.466
20890WAT     H262913   6.237   0.395   5.327
20891WAT      O62914   5.809   6.863   1.938
20891WAT     H162915   5.744   6.938   1.955
20891WAT     H262916   5.773   6.779   1.978
20892WAT      O62917   7.170   2.515   2.729
20892WAT     H162918   7.165   2.563   2.816
20892WAT     H262919   7.079   2.513   2.686
20893WAT      O62920   5.439   3.428   2.931
20893WAT     H162921   5.387   3.487   2.870
20893WAT     H262922   5.448   3.337   2.889
20894WAT      O62923   8.251   6.215   6.553
20894WAT     H162924   8.259   6.196   6.455
20894WAT     H262925   8.342   6.231   6.592
20895WAT      O62926   4.873   6.882   7.887
20895WAT     H162927   4.891   6.802   7.945
20895WAT     H262928   4.905   6.863   7.794
20896WAT      O62929   1.611   3.900   0.606
20896WAT     H162930   1.548   3.952   0.663
20896WAT     H262931   1.683   3.960   0.571
20897WAT      O62932   4.176   9.826   9.841
20897WAT     H162933   4.232   9.746   9.821
20897WAT     H262934   4.234   9.903   9.869
20898WAT      O62935   0.005   3.225   7.356
20898WAT     H162936  -0.069   3.288   7.378
20898WAT     H262937   0.093   3.266   7.382
20899WAT      O62938   1.564   6.469   2.221
20899WAT     H162939   1.662   6.486   2.233
20899WAT     H262940   1.547   6.440   2.127
20900WAT      O62941   1.269   9.801   2.315
20900WAT     H162942   1.210   9.724   2.290
20900WAT     H262943   1.290   9.856   2.234
20901WAT      O62944   7.918   9.830   7.159
20901WAT     H162945   7.979   9.901   7.124
20901WAT     H262946   7.971   9.748   7.180
20902WAT      O62947   0.749   6.787   9.464
20902WAT     H162948   0.830   6.729   9.474
20902WAT     H262949   0.744   6.823   9.371
20903WAT      O62950   2.858   1.092   2.649
20903WAT     H162951   2.841   0.997   2.676
20903WAT     H262952   2.902   1.094   2.559
20904WAT      O62953   0.570   4.317   3.614
20904WAT     H162954   0.615   4.229   3.604
20904WAT     H262955   0.484   4.317   3.563
20905WAT      O62956   9.650   2.295   6.978
20905WAT     H162957   9.594   2.372   6.948
20905WAT     H262958   9.743   2.306   6.942
20906WAT      O62959   2.431   2.132   3.349
20906WAT     H162960   2.433   2.035   3.372
20906WAT     H262961   2.486   2.147   3.267
20907WAT      O62962   9.206   3.801   2.802
20907WAT     H162963   9.265   3.732   2.760
20907WAT     H262964   9.150   3.758   2.873
20908WAT      O62965   0.177   4.344   5.004
20908WAT     H162966   0.154   4.259   4.956
20908WAT     H262967   0.203   4.324   5.098
20909WAT      O62968   0.150   8.744   3.596
20909WAT     H162969   0.226   8.704   3.545
20909WAT     H262970   0.095   8.670   3.636
20910WAT      O62971   9.656   0.226   4.147
20910WAT     H162972   9.559   0.206   4.138
20910WAT     H262973   9.671   0.325   4.142
20911WAT      O62974   9.784   8.609   5.734
20911WAT     H162975   9.727   8.622   5.652
20911WAT     H262976   9.725   8.589   5.812
20912WAT      O62977   8.721   7.224   7.250
20912WAT     H162978   8.655   7.288   7.290
20912WAT     H262979   8.788   7.198   7.320
20913WAT      O62980   6.403   0.939   0.387
20913WAT     H162981   6.484   0.982   0.427
20913WAT     H262982   6.354   1.006   0.331
20914WAT      O62983   6.246   9.033   8.042
20914WAT     H162984   6.250   8.975   8.123
20914WAT     H262985   6.153   9.034   8.005
20915WAT      O62986   3.292   3.901   4.705
20915WAT     H162987   3.253   3.856   4.785
20915WAT     H262988   3.349   3.835   4.655
20916WAT      O62989   3.374   8.519   3.971
20916WAT     H162990   3.468   8.549   3.950
20916WAT     H262991   3.351   8.441   3.914
20917WAT      O62992   0.293   9.291   2.982
20917WAT     H162993   0.319   9.219   2.918
20917WAT     H262994   0.375   9.329   3.024
20918WAT      O62995   8.878   0.969   7.838
20918WAT     H162996   8.877   1.068   7.854
20918WAT     H262997   8.972   0.940   7.821
20919WAT      O62998   3.935   2.101   0.024
20919WAT     H162999   3.974   2.184  -0.015
20919WAT     H263000   4.008   2.036   0.044
20920WAT      O63001   7.673   8.230   5.071
20920WAT     H163002   7.573   8.233   5.069
20920WAT     H263003   7.708   8.320   5.097
20921WAT      O63004   9.379   2.326   4.929
20921WAT     H163005   9.289   2.349   4.964
20921WAT     H263006   9.444   2.398   4.952
20922WAT      O63007   8.763   3.727   3.023
20922WAT     H163008   8.743   3.722   3.121
20922WAT     H263009   8.727   3.812   2.986
20923WAT      O63010   9.593   3.472   4.491
20923WAT     H163011   9.540   3.432   4.417
20923WAT     H263012   9.617   3.401   4.557
20924WAT      O63013   5.379   7.320   9.024
20924WAT     H163014   5.377   7.362   9.115
20924WAT     H263015   5.292   7.274   9.007
20925WAT      O63016   7.518   4.361   5.160
20925WAT     H163017   7.420   4.376   5.175
20925WAT     H263018   7.531   4.312   5.074
20926WAT      O63019   4.745   4.935   1.287
20926WAT     H163020   4.657   4.964   1.248
20926WAT     H263021   4.730   4.855   1.345
20927WAT      O63022   1.604   0.770   6.555
20927WAT     H163023   1.551   0.801   6.476
20927WAT     H263024   1.562   0.687   6.592
20928WAT      O63025   2.231   5.321   4.555
20928WAT     H163026   2.191   5.354   4.469
20928WAT     H263027   2.278   5.395   4.601
20929WAT      O63028   7.917   2.781   7.687
20929WAT     H163029   7.918   2.746   7.593
20929WAT     H263030   7.913   2.704   7.751
20930WAT      O63031   0.124   2.508   9.452
20930WAT     H163032   0.180   2.442   9.501
20930WAT     H263033   0.171   2.536   9.368
20931WAT      O63034   2.413   1.719   4.507
20931WAT     H163035   2.358   1.667   4.442
20931WAT     H263036   2.378   1.812   4.513
20932WAT      O63037   7.928   7.647   7.434
20932WAT     H163038   7.961   7.566   7.482
20932WAT     H263039   7.906   7.719   7.500
20933WAT      O63040   0.610   6.115   5.204
20933WAT     H163041   0.535   6.094   5.266
20933WAT     H263042   0.694   6.132   5.257
20934WAT      O63043   8.810   0.796   4.375
20934WAT     H163044   8.781   0.767   4.284
20934WAT     H263045   8.730   0.804   4.434
20935WAT      O63046   8.088   8.462   7.783
20935WAT     H163047   8.186   8.475   7.799
20935WAT     H263048   8.049   8.408   7.858
20936WAT      O63049   3.928   4.287   8.319
20936WAT     H163050   3.878   4.207   8.286
20936WAT     H263051   4.001   4.257   8.382
20937WAT      O63052   8.529   6.165   7.165
20937WAT     H163053   8.445   6.188   7.214
20937WAT     H263054   8.599   6.136   7.230
20938WAT      O63055   9.573   6.001   6.792
20938WAT     H163056   9.479   5.989   6.823
20938WAT     H263057   9.573   6.048   6.704
20939WAT      O63058   2.105   1.999   5.264
20939WAT     H163059   2.189   2.048   5.288
20939WAT     H263060   2.126   1.902   5.249
20940WAT      O63061   3.354   0.046   9.635
20940WAT     H163062   3.314  -0.024   9.694
20940WAT     H263063   3.309   0.133   9.653
20941WAT      O63064   2.966   9.576   6.714
20941WAT     H163065   3.039   9.509   6.732
20941WAT     H263066   3.007   9.666   6.696
20942WAT      O63067   0.503   6.194   1.942
20942WAT     H163068   0.570   6.222   2.011
20942WAT     H263069   0.528   6.232   1.853
20943WAT      O63070   1.667   9.701   8.524
20943WAT     H163071   1.712   9.766   8.584
20943WAT     H263072   1.574   9.732   8.505
20944WAT      O63073   7.226   8.775   2.656
20944WAT     H163074   7.310   8.826   2.677
20944WAT     H263075   7.233   8.683   2.696
20945WAT      O63076   3.267   8.392   0.728
20945WAT     H163077   3.350   8.406   0.783
20945WAT     H263078   3.208   8.472   0.736
20946WAT      O63079   8.046   6.131   2.220
20946WAT     H163080   7.994   6.191   2.158
20946WAT     H263081   8.144   6.147   2.206
20947WAT      O63082   9.695   7.538   2.187
20947WAT     H163083   9.774   7.487   2.151
20947WAT     H263084   9.691   7.528   2.286
20948WAT      O63085   3.491   5.721   6.966
20948WAT     H163086   3.448   5.759   6.885
20948WAT     H263087   3.426   5.661   7.013
20949WAT      O63088   6.464   5.340   2.931
20949WAT     H163089   6.543   5.352   2.870
20949WAT     H263090   6.417   5.255   2.909
20950WAT      O63091   6.263   0.585   8.577
20950WAT     H163092   6.211   0.602   8.660
20950WAT     H263093   6.309   0.669   8.548
20951WAT      O63094   3.896   3.943   4.155
20951WAT     H163095   3.964   3.985   4.095
20951WAT     H263096   3.906   3.843   4.152
20952WAT      O63097   8.967   4.151   8.163
20952WAT     H163098   8.924   4.136   8.252
20952WAT     H263099   8.896   4.163   8.093
20953WAT      O63100   2.612   5.869   8.230
20953WAT     H163101   2.548   5.930   8.278
20953WAT     H263102   2.566   5.829   8.151
20954WAT      O63103   3.253   3.083   4.444
20954WAT     H163104   3.246   3.076   4.544
20954WAT     H263105   3.340   3.125   4.419
20955WAT      O63106   9.603   0.585   2.493
20955WAT     H163107   9.604   0.683   2.473
20955WAT     H263108   9.516   0.560   2.537
20956WAT      O63109   4.218   8.665   5.172
20956WAT     H163110   4.264   8.577   5.168
20956WAT     H263111   4.260   8.721   5.244
20957WAT      O63112   5.423   4.500   5.288
20957WAT     H163113   5.438   4.417   5.233
20957WAT     H263114   5.466   4.488   5.377
20958WAT      O63115   1.466   7.731   8.384
20958WAT     H163116   1.373   7.757   8.411
20958WAT     H263117   1.506   7.672   8.453
20959WAT      O63118   8.816   1.226   1.143
20959WAT     H163119   8.884   1.298   1.132
20959WAT     H263120   8.724   1.266   1.144
20960WAT      O63121   6.951   0.672   0.750
20960WAT     H163122   6.889   0.726   0.693
20960WAT     H263123   6.913   0.663   0.842
20961WAT      O63124   9.254   4.926   2.869
20961WAT     H163125   9.301   4.931   2.957
20961WAT     H263126   9.318   4.895   2.798
20962WAT      O63127   2.314   9.501   8.931
20962WAT     H163128   2.293   9.527   9.025
20962WAT     H263129   2.361   9.413   8.930
20963WAT      O63130   0.020   4.542   0.950
20963WAT     H163131   0.106   4.513   0.909
20963WAT     H263132   0.004   4.491   1.035
20964WAT      O63133   0.548   3.396   6.725
20964WAT     H163134   0.502   3.464   6.781
20964WAT     H263135   0.555   3.310   6.776
20965WAT      O63136   8.112   9.722   8.564
20965WAT     H163137   8.203   9.739   8.601
20965WAT     H263138   8.116   9.645   8.501
20966WAT      O63139   3.734   1.150   4.817
20966WAT     H163140   3.722   1.215   4.741
20966WAT     H263141   3.656   1.158   4.880
20967WAT      O63142   5.836   3.507   3.411
20967WAT     H163143   5.813   3.446   3.336
20967WAT     H263144   5.797   3.597   3.395
20968WAT      O63145   2.561   0.108   7.761
20968WAT     H163146   2.552   0.207   7.765
20968WAT     H263147   2.595   0.081   7.671
20969WAT      O63148   7.771   3.042   8.817
20969WAT     H163149   7.774   3.141   8.804
20969WAT     H263150   7.676   3.011   8.815
20970WAT      O63151   2.570   4.279   4.854
20970WAT     H163152   2.603   4.293   4.760
20970WAT     H263153   2.576   4.182   4.877
20971WAT      O63154   8.874   5.016   1.748
20971WAT     H163155   8.867   4.965   1.834
20971WAT     H263156   8.970   5.022   1.721
20972WAT      O63157   3.127   4.314   6.682
20972WAT     H163158   3.085   4.297   6.593
20972WAT     H263159   3.083   4.257   6.751
20973WAT      O63160   5.093   6.726   5.461
20973WAT     H163161   5.045   6.773   5.386
20973WAT     H263162   5.142   6.794   5.516
20974WAT      O63163   2.134   7.014   9.302
20974WAT     H163164   2.170   7.024   9.209
20974WAT     H263165   2.038   7.042   9.303
20975WAT      O63166   9.026   4.845   9.633
20975WAT     H163167   8.945   4.811   9.586
20975WAT     H263168   9.100   4.856   9.567
20976WAT      O63169   2.594   7.558   6.230
20976WAT     H163170   2.588   7.563   6.130
20976WAT     H263171   2.689   7.548   6.257
20977WAT      O63172   0.326   4.821   2.089
20977WAT     H163173   0.395   4.786   2.026
20977WAT     H263174   0.328   4.921   2.089
20978WAT      O63175   5.162   0.869   8.229
20978WAT     H163176   5.102   0.792   8.206
20978WAT     H263177   5.189   0.917   8.145
20979WAT      O63178   7.693   8.467   8.234
20979WAT     H163179   7.669   8.517   8.318
20979WAT     H263180   7.759   8.521   8.181
20980WAT      O63181   5.119   9.558   1.111
20980WAT     H163182   5.099   9.462   1.131
20980WAT     H263183   5.113   9.574   1.013
20981WAT      O63184   3.007   6.286   0.092
20981WAT     H163185   2.944   6.219   0.053
20981WAT     H263186   3.004   6.370   0.039
20982WAT      O63187   5.103   5.257   2.227
20982WAT     H163188   5.048   5.190   2.277
20982WAT     H263189   5.188   5.215   2.197
20983WAT      O63190   2.155   5.343   3.874
20983WAT     H163191   2.215   5.369   3.798
20983WAT     H263192   2.092   5.418   3.894
20984WAT      O63193   2.541   4.308   4.321
20984WAT     H163194   2.488   4.370   4.379
20984WAT     H263195   2.478   4.247   4.272
20985WAT      O63196   2.684   0.564   8.221
20985WAT     H163197   2.771   0.516   8.229
20985WAT     H263198   2.676   0.631   8.295
20986WAT      O63199   0.588   7.628   5.047
20986WAT     H163200   0.588   7.717   5.001
20986WAT     H263201   0.593   7.641   5.146
20987WAT      O63202   5.278   2.647   1.388
20987WAT     H163203   5.280   2.607   1.479
20987WAT     H263204   5.370   2.682   1.365
20988WAT      O63205   2.673   2.846   0.513
20988WAT     H163206   2.716   2.857   0.604
20988WAT     H263207   2.631   2.932   0.486
20989WAT      O63208   5.941   5.270   7.544
20989WAT     H163209   5.948   5.173   7.567
20989WAT     H263210   5.853   5.288   7.500
20990WAT      O63211   0.323   1.897   4.645
20990WAT     H163212   0.367   1.986   4.635
20990WAT     H263213   0.329   1.847   4.558
20991WAT      O63214   9.763   2.871   3.831
20991WAT     H163215   9.679   2.820   3.849
20991WAT     H263216   9.792   2.855   3.736
20992WAT      O63217   4.802   8.544   4.739
20992WAT     H163218   4.825   8.549   4.642
20992WAT     H263219   4.881   8.572   4.793
20993WAT      O63220   6.094   9.221   5.031
20993WAT     H163221   6.054   9.275   4.957
20993WAT     H263222   6.123   9.132   4.996
20994WAT      O63223   6.995   1.490   2.219
20994WAT     H163224   6.962   1.478   2.312
20994WAT     H263225   6.949   1.568   2.176
20995WAT      O63226   4.246   4.339   5.095
20995WAT     H163227   4.298   4.269   5.144
20995WAT     H263228   4.171   4.372   5.153
20996WAT      O63229   3.809   7.955   8.931
20996WAT     H163230   3.771   8.016   9.002
20996WAT     H263231   3.887   7.905   8.969
20997WAT      O63232   0.424   1.947   0.536
20997WAT     H163233   0.501   2.005   0.565
20997WAT     H263234   0.388   1.897   0.615
20998WAT      O63235   6.216   9.304   3.258
20998WAT     H163236   6.133   9.307   3.313
20998WAT     H263237   6.193   9.280   3.164
20999WAT      O63238   2.401   3.014   4.578
20999WAT     H163239   2.393   2.939   4.513
20999WAT     H263240   2.434   2.980   4.665
21000WAT      O63241   0.558   1.006   3.851
21000WAT     H163242   0.648   1.039   3.879
21000WAT     H263243   0.530   1.053   3.766
21001WAT      O63244   3.901   6.014   8.121
21001WAT     H163245   3.918   6.110   8.100
21001WAT     H263246   3.981   5.975   8.166
21002WAT      O63247   8.386   8.085   6.593
21002WAT     H163248   8.417   8.179   6.599
21002WAT     H263249   8.448   8.026   6.644
21003WAT      O63250   0.377   5.104   2.132
21003WAT     H163251   0.355   5.139   2.223
21003WAT     H263252   0.469   5.135   2.106
21004WAT      O63253   5.362   0.676   7.395
21004WAT     H163254   5.350   0.582   7.427
21004WAT     H263255   5.383   0.674   7.297
21005WAT      O63256   6.976   7.757   4.894
21005WAT     H163257   6.977   7.825   4.821
21005WAT     H263258   7.067   7.750   4.935
21006WAT      O63259   7.116   5.251   3.029
21006WAT     H163260   7.186   5.228   3.096
21006WAT     H263261   7.131   5.344   2.995
21007WAT      O63262   3.883   5.441   3.556
21007WAT     H163263   3.971   5.400   3.577
21007WAT     H263264   3.811   5.391   3.605
21008WAT      O63265   4.322   8.257   1.245
21008WAT     H163266   4.422   8.254   1.238
21008WAT     H263267   4.295   8.336   1.299
21009WAT      O63268   1.166   3.968   4.994
21009WAT     H163269   1.183   3.976   5.092
21009WAT     H263270   1.202   4.048   4.947
21010WAT      O63271   5.811   7.282   5.263
21010WAT     H163272   5.729   7.232   5.235
21010WAT     H263273   5.832   7.261   5.358
21011WAT      O63274   7.429   3.319   6.568
21011WAT     H163275   7.402   3.247   6.505
21011WAT     H263276   7.369   3.399   6.555
21012WAT      O63277   5.188   3.987   3.992
21012WAT     H163278   5.179   4.031   3.903
21012WAT     H263279   5.240   3.902   3.982
21013WAT      O63280   3.469   2.913   1.467
21013WAT     H163281   3.543   2.978   1.485
21013WAT     H263282   3.398   2.924   1.536
21014WAT      O63283   1.986   4.102   0.131
21014WAT     H163284   2.066   4.071   0.181
21014WAT     H263285   1.977   4.201   0.138
21015WAT      O63286   1.599   8.180   2.374
21015WAT     H163287   1.656   8.225   2.306
21015WAT     H263288   1.585   8.084   2.348
21016WAT      O63289   2.657   7.104   8.045
21016WAT     H163290   2.708   7.064   7.970
21016WAT     H263291   2.696   7.193   8.069
21017WAT      O63292   2.007   3.064   6.603
21017WAT     H163293   1.952   2.987   6.570
21017WAT     H263294   1.985   3.082   6.699
21018WAT      O63295   6.637   3.494   5.321
21018WAT     H163296   6.675   3.403   5.307
21018WAT     H263297   6.650   3.549   5.238
21019WAT      O63298   3.322   3.375   7.839
21019WAT     H163299   3.255   3.394   7.910
21019WAT     H263300   3.312   3.440   7.764
21020WAT      O63301   6.221   2.451   1.438
21020WAT     H163302   6.216   2.377   1.370
21020WAT     H263303   6.154   2.435   1.510
21021WAT      O63304   5.528   9.761   8.044
21021WAT     H163305   5.437   9.719   8.039
21021WAT     H263306   5.520   9.860   8.033
21022WAT      O63307   3.181   9.428   3.493
21022WAT     H163308   3.246   9.496   3.527
21022WAT     H263309   3.227   9.368   3.427
21023WAT      O63310   9.597   8.718   5.203
21023WAT     H163311   9.693   8.690   5.211
21023WAT     H263312   9.580   8.797   5.262
21024WAT      O63313   0.571   5.914   2.303
21024WAT     H163314   0.623   5.888   2.222
21024WAT     H263315   0.630   5.907   2.384
21025WAT      O63316   2.985   0.437   7.656
21025WAT     H163317   3.072   0.404   7.693
21025WAT     H263318   2.979   0.536   7.670
21026WAT      O63319   1.029   2.487   9.184
21026WAT     H163320   0.986   2.413   9.235
21026WAT     H263321   1.125   2.463   9.165
21027WAT      O63322   3.322   1.246   6.575
21027WAT     H163323   3.302   1.343   6.588
21027WAT     H263324   3.407   1.224   6.624
21028WAT      O63325   0.891   4.494   7.705
21028WAT     H163326   0.891   4.591   7.727
21028WAT     H263327   0.806   4.452   7.738
21029WAT      O63328   0.760   8.576   8.665
21029WAT     H163329   0.859   8.563   8.670
21029WAT     H263330   0.717   8.491   8.634
21030WAT      O63331   2.846   9.238   4.023
21030WAT     H163332   2.867   9.252   4.120
21030WAT     H263333   2.839   9.140   4.003
21031WAT      O63334   0.356   8.635   0.835
21031WAT     H163335   0.449   8.598   0.840
21031WAT     H263336   0.304   8.606   0.915
21032WAT      O63337   6.765   7.327   7.743
21032WAT     H163338   6.754   7.228   7.746
21032WAT     H263339   6.697   7.366   7.682
21033WAT      O63340   8.133   0.157   0.536
21033WAT     H163341   8.143   0.099   0.617
21033WAT     H263342   8.058   0.123   0.480
21034WAT      O63343   5.956   1.977   8.114
21034WAT     H163344   5.945   1.901   8.178
21034WAT     H263345   5.941   1.945   8.021
21035WAT      O63346   6.567   6.704   4.909
21035WAT     H163347   6.480   6.746   4.932
21035WAT     H263348   6.577   6.619   4.961
21036WAT      O63349   9.010   6.701   2.288
21036WAT     H163350   8.954   6.782   2.271
21036WAT     H263351   8.954   6.619   2.279
21037WAT      O63352   3.619   8.771   8.889
21037WAT     H163353   3.550   8.799   8.956
21037WAT     H263354   3.618   8.672   8.880
21038WAT      O63355   4.779   8.381   8.312
21038WAT     H163356   4.858   8.424   8.267
21038WAT     H263357   4.808   8.341   8.399
21039WAT      O63358   5.906   8.343   0.198
21039WAT     H163359   5.838   8.295   0.252
21039WAT     H263360   5.880   8.439   0.188
21040WAT      O63361   0.378   9.730   1.738
21040WAT     H163362   0.416   9.787   1.810
21040WAT     H263363   0.407   9.635   1.752
21041WAT      O63364   8.410   4.955   2.970
21041WAT     H163365   8.351   5.022   3.014
21041WAT     H263366   8.501   4.993   2.959
21042WAT      O63367   1.421   2.092   2.296
21042WAT     H163368   1.493   2.023   2.289
21042WAT     H263369   1.386   2.094   2.389
21043WAT      O63370   4.306   7.316   5.277
21043WAT     H163371   4.297   7.226   5.234
21043WAT     H263372   4.218   7.364   5.272
21044WAT      O63373   5.791   0.298   8.593
21044WAT     H163374   5.764   0.258   8.505
21044WAT     H263375   5.743   0.384   8.606
21045WAT      O63376   0.567   3.701   0.619
21045WAT     H163377   0.493   3.641   0.590
21045WAT     H263378   0.654   3.653   0.615
21046WAT      O63379   7.725   6.165   5.344
21046WAT     H163380   7.714   6.079   5.394
21046WAT     H263381   7.806   6.161   5.286
21047WAT      O63382   3.907   1.561   0.997
21047WAT     H163383   3.812   1.582   1.020
21047WAT     H263384   3.913   1.535   0.901
21048WAT      O63385   5.442   9.298   1.214
21048WAT     H163386   5.467   9.273   1.308
21048WAT     H263387   5.392   9.223   1.171
21049WAT      O63388   2.019   6.076   7.674
21049WAT     H163389   2.056   6.003   7.616
21049WAT     H263390   1.932   6.046   7.714
21050WAT      O63391   7.082   5.309   6.909
21050WAT     H163392   7.078   5.251   6.827
21050WAT     H263393   7.064   5.254   6.990
21051WAT      O63394   1.692   4.694   9.875
21051WAT     H163395   1.641   4.766   9.921
21051WAT     H263396   1.628   4.623   9.844
21052WAT      O63397   8.822   8.477   1.068
21052WAT     H163398   8.867   8.481   0.979
21052WAT     H263399   8.890   8.488   1.140
21053WAT      O63400   5.894   1.433   7.911
21053WAT     H163401   5.979   1.458   7.864
21053WAT     H263402   5.873   1.502   7.982
21054WAT      O63403   8.845   9.054   0.885
21054WAT     H163404   8.895   8.992   0.946
21054WAT     H263405   8.799   9.000   0.814
21055WAT      O63406   7.112   4.305   7.426
21055WAT     H163407   7.113   4.206   7.440
21055WAT     H263408   7.022   4.333   7.392
21056WAT      O63409   2.862   7.002   6.162
21056WAT     H163410   2.825   6.933   6.100
21056WAT     H263411   2.813   7.088   6.149
21057WAT      O63412   7.243   3.885   4.219
21057WAT     H163413   7.213   3.842   4.304
21057WAT     H263414   7.300   3.820   4.168
21058WAT      O63415   2.618   4.808   6.336
21058WAT     H163416   2.543   4.812   6.270
21058WAT     H263417   2.653   4.714   6.341
21059WAT      O63418   3.443   2.923   4.162
21059WAT     H163419   3.416   2.890   4.071
21059WAT     H263420   3.362   2.932   4.219
21060WAT      O63421   0.173   2.567   1.311
21060WAT     H163422   0.082   2.567   1.270
21060WAT     H263423   0.179   2.493   1.378
21061WAT      O63424   2.946   7.608   6.598
21061WAT     H163425   2.984   7.517   6.583
21061WAT     H263426   2.986   7.672   6.532
21062WAT      O63427   9.594   0.303   5.465
21062WAT     H163428   9.555   0.330   5.553
21062WAT     H263429   9.681   0.256   5.479
21063WAT      O63430   7.675   2.153   2.665
21063WAT     H163431   7.579   2.126   2.656
21063WAT     H263432   7.685   2.211   2.746
21064WAT      O63433   7.736   8.892   4.892
21064WAT     H163434   7.668   8.897   4.966
21064WAT     H263435   7.689   8.882   4.804
21065WAT      O63436   1.881   6.024   6.797
21065WAT     H163437   1.944   6.074   6.857
21065WAT     H263438   1.890   6.059   6.704
21066WAT      O63439   4.999   6.690   8.668
21066WAT     H163440   4.987   6.710   8.571
21066WAT     H263441   4.981   6.772   8.722
21067WAT      O63442   6.516   3.081   1.885
21067WAT     H163443   6.494   3.033   1.970
21067WAT     H263444   6.539   3.013   1.815
21068WAT      O63445   6.719   6.277   7.046
21068WAT     H163446   6.707   6.373   7.068
21068WAT     H263447   6.641   6.244   6.994
21069WAT      O63448   1.471   9.436   1.599
21069WAT     H163449   1.448   9.431   1.502
21069WAT     H263450   1.433   9.357   1.646
21070WAT      O63451   4.502   5.701   8.103
21070WAT     H163452   4.459   5.627   8.153
21070WAT     H263453   4.449   5.721   8.020
21071WAT      O63454   2.289   2.632   9.435
21071WAT     H163455   2.295   2.732   9.443
21071WAT     H263456   2.353   2.589   9.499
21072WAT      O63457   8.450   4.579   2.270
21072WAT     H163458   8.471   4.490   2.310
21072WAT     H263459   8.375   4.569   2.205
21073WAT      O63460   7.554   6.793   8.097
21073WAT     H163461   7.466   6.835   8.121
21073WAT     H263462   7.628   6.857   8.117
21074WAT      O63463   9.395   0.380   4.225
21074WAT     H163464   9.331   0.424   4.162
21074WAT     H263465   9.380   0.281   4.225
21075WAT      O63466   0.075   0.429   9.350
21075WAT     H163467  -0.024   0.442   9.351
21075WAT     H263468   0.105   0.393   9.438
21076WAT      O63469   9.877   3.348   5.607
21076WAT     H163470   9.838   3.439   5.593
21076WAT     H263471   9.954   3.354   5.670
21077WAT      O63472   4.904   1.582   4.114
21077WAT     H163473   4.806   1.560   4.112
21077WAT     H263474   4.923   1.655   4.048
21078WAT      O63475   0.665   8.960   2.238
21078WAT     H163476   0.728   8.888   2.209
21078WAT     H263477   0.678   8.979   2.335
21079WAT      O63478   3.991   1.033   0.639
21079WAT     H163479   4.041   1.040   0.552
21079WAT     H263480   4.033   0.963   0.696
21080WAT      O63481   4.825   2.464   4.172
21080WAT     H163482   4.869   2.552   4.190
21080WAT     H263483   4.819   2.449   4.073
21081WAT      O63484   8.772   2.382   6.511
21081WAT     H163485   8.744   2.286   6.519
21081WAT     H263486   8.857   2.388   6.459
21082WAT      O63487   0.201   7.669   4.867
21082WAT     H163488   0.128   7.705   4.808
21082WAT     H263489   0.170   7.583   4.909
21083WAT      O63490   2.590   5.281   0.761
21083WAT     H163491   2.527   5.214   0.801
21083WAT     H263492   2.656   5.234   0.701
21084WAT      O63493   7.909   7.071   2.930
21084WAT     H163494   7.947   7.100   2.842
21084WAT     H263495   7.889   7.151   2.986
21085WAT      O63496   6.318   5.465   6.757
21085WAT     H163497   6.293   5.433   6.848
21085WAT     H263498   6.311   5.390   6.692
21086WAT      O63499   9.620   4.056   7.073
21086WAT     H163500   9.539   4.004   7.102
21086WAT     H263501   9.703   4.008   7.103
21087WAT      O63502   9.765   4.757   5.517
21087WAT     H163503   9.676   4.783   5.480
21087WAT     H263504   9.802   4.681   5.465
21088WAT      O63505   4.032   1.711   3.873
21088WAT     H163506   3.990   1.627   3.838
21088WAT     H263507   4.030   1.711   3.973
21089WAT      O63508   2.701   8.771   5.093
21089WAT     H163509   2.798   8.788   5.113
21089WAT     H263510   2.662   8.852   5.049
21090WAT      O63511   6.112   0.803   0.134
21090WAT     H163512   6.121   0.857   0.050
21090WAT     H263513   6.062   0.855   0.202
21091WAT      O63514   2.860   1.595   0.620
21091WAT     H163515   2.866   1.521   0.553
21091WAT     H263516   2.915   1.572   0.700
21092WAT      O63517   2.612   7.237   4.868
21092WAT     H163518   2.595   7.304   4.796
21092WAT     H263519   2.626   7.285   4.955
21093WAT      O63520   7.819   3.313   2.431
21093WAT     H163521   7.823   3.382   2.503
21093WAT     H263522   7.859   3.348   2.347
21094WAT      O63523   2.687   1.707   2.481
21094WAT     H163524   2.593   1.734   2.503
21094WAT     H263525   2.724   1.769   2.413
21095WAT      O63526   3.877   5.447   1.648
21095WAT     H163527   3.973   5.420   1.644
21095WAT     H263528   3.851   5.467   1.742
21096WAT      O63529   4.760   6.839   9.337
21096WAT     H163530   4.765   6.893   9.421
21096WAT     H263531   4.735   6.745   9.359
21097WAT      O63532   1.353   9.602   7.475
21097WAT     H163533   1.293   9.681   7.465
21097WAT     H263534   1.351   9.570   7.570
21098WAT      O63535   5.830   6.932   5.777
21098WAT     H163536   5.761   6.974   5.718
21098WAT     H263537   5.910   6.992   5.783
21099WAT      O63538   3.112   6.784   0.833
21099WAT     H163539   3.074   6.698   0.867
21099WAT     H263540   3.210   6.788   0.852
21100WAT      O63541   2.759   7.446   1.716
21100WAT     H163542   2.757   7.544   1.736
21100WAT     H263543   2.754   7.394   1.801
21101WAT      O63544   6.738   2.297   1.382
21101WAT     H163545   6.770   2.203   1.376
21101WAT     H263546   6.815   2.356   1.410
21102WAT      O63547   4.907   5.671   8.581
21102WAT     H163548   5.004   5.653   8.597
21102WAT     H263549   4.853   5.633   8.656
21103WAT      O63550   4.768   1.490   6.179
21103WAT     H163551   4.710   1.437   6.117
21103WAT     H263552   4.717   1.571   6.210
21104WAT      O63553   7.563   9.672   0.108
21104WAT     H163554   7.488   9.705   0.052
21104WAT     H263555   7.547   9.696   0.204
21105WAT      O63556   7.403   0.234   1.103
21105WAT     H163557   7.481   0.254   1.045
21105WAT     H263558   7.416   0.145   1.147
21106WAT      O63559   1.161   4.989   0.859
21106WAT     H163560   1.179   5.074   0.811
21106WAT     H263561   1.091   4.937   0.810
21107WAT      O63562   1.558   6.490   8.296
21107WAT     H163563   1.538   6.394   8.313
21107WAT     H263564   1.627   6.497   8.223
21108WAT      O63565   0.913   6.287   1.296
21108WAT     H163566   0.951   6.207   1.343
21108WAT     H263567   0.859   6.256   1.217
21109WAT      O63568   9.378   2.526   5.374
21109WAT     H163569   9.325   2.573   5.302
21109WAT     H263570   9.358   2.428   5.372
21110WAT      O63571   9.268   8.802   4.154
21110WAT     H163572   9.361   8.765   4.158
21110WAT     H263573   9.258   8.873   4.224
21111WAT      O63574   7.874   1.931   6.462
21111WAT     H163575   7.861   1.899   6.556
21111WAT     H263576   7.877   1.852   6.401
21112WAT      O63577   6.455   8.692   4.124
21112WAT     H163578   6.416   8.784   4.124
21112WAT     H263579   6.548   8.696   4.088
21113WAT      O63580   7.959   4.092   1.268
21113WAT     H163581   7.930   4.102   1.173
21113WAT     H263582   8.017   4.011   1.277
21114WAT      O63583   4.036   3.895   8.057
21114WAT     H163584   3.972   3.838   8.006
21114WAT     H263585   4.109   3.924   7.996
21115WAT      O63586   0.963   0.170   2.118
21115WAT     H163587   1.054   0.130   2.127
21115WAT     H263588   0.958   0.223   2.033
21116WAT      O63589   4.378   0.457   4.166
21116WAT     H163590   4.421   0.451   4.256
21116WAT     H263591   4.279   0.467   4.177
21117WAT      O63592   0.711   8.158   3.900
21117WAT     H163593   0.684   8.209   3.982
21117WAT     H263594   0.759   8.219   3.837
21118WAT      O63595   9.725   6.870   7.032
21118WAT     H163596   9.642   6.925   7.042
21118WAT     H263597   9.701   6.773   7.028
21119WAT      O63598   6.214   4.023   7.615
21119WAT     H163599   6.221   4.090   7.689
21119WAT     H263600   6.278   3.948   7.632
21120WAT      O63601   6.989   0.802   7.314
21120WAT     H163602   6.934   0.882   7.338
21120WAT     H263603   6.932   0.720   7.318
21121WAT      O63604   2.769   9.455   4.464
21121WAT     H163605   2.756   9.492   4.556
21121WAT     H263606   2.706   9.501   4.400
21122WAT      O63607   7.727   7.973   9.108
21122WAT     H163608   7.647   7.961   9.168
21122WAT     H263609   7.696   7.987   9.014
21123WAT      O63610   8.440   2.103   8.371
21123WAT     H163611   8.539   2.097   8.362
21123WAT     H263612   8.406   2.026   8.425
21124WAT      O63613   7.352   6.691   3.824
21124WAT     H163614   7.420   6.722   3.758
21124WAT     H263615   7.297   6.769   3.854
21125WAT      O63616   8.690   8.893   6.906
21125WAT     H163617   8.600   8.930   6.887
21125WAT     H263618   8.755   8.967   6.921
21126WAT      O63619   9.412   4.835   7.796
21126WAT     H163620   9.412   4.806   7.892
21126WAT     H263621   9.410   4.753   7.738
21127WAT      O63622   4.964   6.582   1.172
21127WAT     H163623   4.875   6.560   1.212
21127WAT     H263624   4.969   6.543   1.080
21128WAT      O63625   1.229   1.089   8.353
21128WAT     H163626   1.191   1.169   8.399
21128WAT     H263627   1.265   1.025   8.421
21129WAT      O63628   3.625   2.542   4.546
21129WAT     H163629   3.577   2.499   4.623
21129WAT     H263630   3.599   2.638   4.540
21130WAT      O63631   6.034   1.631   2.557
21130WAT     H163632   6.112   1.624   2.495
21130WAT     H263633   6.055   1.585   2.643
21131WAT      O63634   1.890   0.828   1.637
21131WAT     H163635   1.825   0.856   1.708
21131WAT     H263636   1.945   0.752   1.670
21132WAT      O63637   0.607   6.872   9.822
21132WAT     H163638   0.630   6.842   9.915
21132WAT     H263639   0.530   6.818   9.788
21133WAT      O63640   7.321   9.182   1.536
21133WAT     H163641   7.289   9.119   1.465
21133WAT     H263642   7.368   9.130   1.608
21134WAT      O63643   6.828   2.053   7.980
21134WAT     H163644   6.796   2.019   8.068
21134WAT     H263645   6.752   2.054   7.915
21135WAT      O63646   7.805   4.866   9.572
21135WAT     H163647   7.714   4.854   9.612
21135WAT     H263648   7.796   4.881   9.473
21136WAT      O63649   1.480   8.794   3.914
21136WAT     H163650   1.551   8.863   3.903
21136WAT     H263651   1.443   8.770   3.824
21137WAT      O63652   5.349   3.863   5.417
21137WAT     H163653   5.430   3.804   5.419
21137WAT     H263654   5.377   3.957   5.437
21138WAT      O63655   7.591   8.126   4.092
21138WAT     H163656   7.603   8.061   4.167
21138WAT     H263657   7.559   8.078   4.011
21139WAT      O63658   6.285   0.866   2.248
21139WAT     H163659   6.349   0.796   2.279
21139WAT     H263660   6.244   0.911   2.327
21140WAT      O63661   8.577   2.496   8.052
21140WAT     H163662   8.584   2.542   8.140
21140WAT     H263663   8.638   2.416   8.051
21141WAT      O63664   6.052   7.664   9.175
21141WAT     H163665   6.012   7.727   9.242
21141WAT     H263666   6.148   7.688   9.161
21142WAT      O63667   3.210   1.380   7.977
21142WAT     H163668   3.308   1.383   7.999
21142WAT     H263669   3.189   1.296   7.928
21143WAT      O63670   2.121   7.959   2.630
21143WAT     H163671   2.164   8.044   2.660
21143WAT     H263672   2.172   7.881   2.666
21144WAT      O63673   0.912   9.049   9.360
21144WAT     H163674   0.918   9.106   9.278
21144WAT     H263675   0.982   9.076   9.426
21145WAT      O63676   0.566   8.026   7.701
21145WAT     H163677   0.494   7.967   7.666
21145WAT     H263678   0.622   8.059   7.625
21146WAT      O63679   0.482   1.407   7.748
21146WAT     H163680   0.434   1.398   7.836
21146WAT     H263681   0.518   1.318   7.721
21147WAT      O63682   4.037   8.743   5.974
21147WAT     H163683   4.127   8.773   5.942
21147WAT     H263684   3.985   8.822   6.005
21148WAT      O63685   4.036   7.073   8.264
21148WAT     H163686   4.068   7.144   8.202
21148WAT     H263687   3.938   7.057   8.248
21149WAT      O63688   3.525   7.058   9.525
21149WAT     H163689   3.579   7.073   9.442
21149WAT     H263690   3.438   7.015   9.501
21150WAT      O63691   8.317   0.823   7.833
21150WAT     H163692   8.412   0.849   7.853
21150WAT     H263693   8.255   0.878   7.889
21151WAT      O63694   2.150   3.958   4.156
21151WAT     H163695   2.057   3.927   4.137
21151WAT     H263696   2.210   3.879   4.163
21152WAT      O63697   1.033   4.420   0.978
21152WAT     H163698   1.104   4.489   0.964
21152WAT     H263699   1.045   4.378   1.069
21153WAT      O63700   5.679   6.491   8.755
21153WAT     H163701   5.638   6.545   8.829
21153WAT     H263702   5.778   6.506   8.753
21154WAT      O63703   9.468   9.713   2.888
21154WAT     H163704   9.446   9.748   2.979
21154WAT     H263705   9.443   9.616   2.884
21155WAT      O63706   2.484   8.342   8.785
21155WAT     H163707   2.450   8.433   8.765
21155WAT     H263708   2.486   8.287   8.702
21156WAT      O63709   7.419   8.695   2.357
21156WAT     H163710   7.432   8.660   2.265
21156WAT     H263711   7.436   8.622   2.423
21157WAT      O63712   0.659   0.765   5.777
21157WAT     H163713   0.606   0.705   5.717
21157WAT     H263714   0.665   0.725   5.868
21158WAT      O63715   7.772   5.382   9.176
21158WAT     H163716   7.695   5.438   9.207
21158WAT     H263717   7.854   5.438   9.169
21159WAT      O63718   0.052   4.080   4.073
21159WAT     H163719   0.004   4.123   3.996
21159WAT     H263720  -0.013   4.024   4.125
21160WAT      O63721   9.517   7.089   7.585
21160WAT     H163722   9.497   7.169   7.641
21160WAT     H263723   9.464   7.011   7.619
21161WAT      O63724   0.920   6.404   5.499
21161WAT     H163725   0.990   6.465   5.536
21161WAT     H263726   0.850   6.389   5.569
21162WAT      O63727   2.664   1.325   4.064
21162WAT     H163728   2.676   1.350   4.160
21162WAT     H263729   2.654   1.226   4.057
21163WAT      O63730   7.315   8.144   2.156
21163WAT     H163731   7.266   8.165   2.072
21163WAT     H263732   7.249   8.117   2.227
21164WAT      O63733   3.330   1.418   6.912
21164WAT     H163734   3.399   1.475   6.868
21164WAT     H263735   3.350   1.411   7.010
21165WAT      O63736   5.860   5.271   9.522
21165WAT     H163737   5.945   5.228   9.553
21165WAT     H263738   5.868   5.293   9.424
21166WAT      O63739   8.993   4.632   5.736
21166WAT     H163740   9.059   4.701   5.706
21166WAT     H263741   8.960   4.580   5.657
21167WAT      O63742   3.196   4.319   5.557
21167WAT     H163743   3.180   4.357   5.466
21167WAT     H263744   3.110   4.314   5.607
21168WAT      O63745   8.141   4.327   6.012
21168WAT     H163746   8.175   4.354   6.102
21168WAT     H263747   8.041   4.325   6.015
21169WAT      O63748   1.911   2.763   6.754
21169WAT     H163749   2.004   2.793   6.735
21169WAT     H263750   1.852   2.785   6.676
21170WAT      O63751   9.635   9.156   0.371
21170WAT     H163752   9.547   9.109   0.375
21170WAT     H263753   9.709   9.091   0.387
21171WAT      O63754   8.292   7.740   2.251
21171WAT     H163755   8.348   7.769   2.328
21171WAT     H263756   8.259   7.820   2.201
21172WAT      O63757   5.478   4.411   9.588
21172WAT     H163758   5.549   4.374   9.647
21172WAT     H263759   5.436   4.338   9.535
21173WAT      O63760   0.443   1.103   1.917
21173WAT     H163761   0.530   1.152   1.916
21173WAT     H263762   0.414   1.085   1.823
21174WAT      O63763   8.670   9.694   7.976
21174WAT     H163764   8.734   9.758   7.935
21174WAT     H263765   8.655   9.719   8.072
21175WAT      O63766   9.332   8.261   2.672
21175WAT     H163767   9.286   8.255   2.584
21175WAT     H263768   9.271   8.305   2.739
21176WAT      O63769   0.783   3.634   5.028
21176WAT     H163770   0.723   3.712   5.009
21176WAT     H263771   0.871   3.647   4.983
21177WAT      O63772   5.076   8.270   5.784
21177WAT     H163773   5.088   8.247   5.687
21177WAT     H263774   5.156   8.321   5.817
21178WAT      O63775   4.772   3.022   6.736
21178WAT     H163776   4.842   2.996   6.803
21178WAT     H263777   4.687   2.971   6.756
21179WAT      O63778   8.240   2.730   6.916
21179WAT     H163779   8.278   2.645   6.952
21179WAT     H263780   8.151   2.747   6.959
21180WAT      O63781   6.950   8.433   1.636
21180WAT     H163782   6.922   8.389   1.550
21180WAT     H263783   6.910   8.384   1.713
21181WAT      O63784   4.424   1.354   2.628
21181WAT     H163785   4.358   1.304   2.572
21181WAT     H263786   4.377   1.401   2.702
21182WAT      O63787   3.172   0.150   1.289
21182WAT     H163788   3.266   0.150   1.321
21182WAT     H263789   3.125   0.232   1.322
21183WAT      O63790   7.167   0.330   6.231
21183WAT     H163791   7.098   0.312   6.160
21183WAT     H263792   7.257   0.302   6.196
21184WAT      O63793   9.770   7.139   5.139
21184WAT     H163794   9.691   7.185   5.182
21184WAT     H263795   9.794   7.187   5.055
21185WAT      O63796   7.976   7.746   0.775
21185WAT     H163797   7.890   7.796   0.773
21185WAT     H263798   7.982   7.687   0.694
21186WAT      O63799   0.981   2.789   8.781
21186WAT     H163800   0.915   2.759   8.713
21186WAT     H263801   0.943   2.776   8.873
21187WAT      O63802   0.993   7.398   9.076
21187WAT     H163803   0.995   7.340   9.158
21187WAT     H263804   1.075   7.455   9.073
21188WAT      O63805   4.398   5.531   9.501
21188WAT     H163806   4.434   5.613   9.545
21188WAT     H263807   4.317   5.555   9.447
21189WAT      O63808   0.879   1.068   6.834
21189WAT     H163809   0.857   1.130   6.758
21189WAT     H263810   0.918   1.121   6.910
21190WAT      O63811   8.483   2.869   7.381
21190WAT     H163812   8.470   2.824   7.293
21190WAT     H263813   8.515   2.963   7.365
21191WAT      O63814   3.363   1.169   4.737
21191WAT     H163815   3.435   1.237   4.750
21191WAT     H263816   3.360   1.108   4.816
21192WAT      O63817   3.537   8.008   5.818
21192WAT     H163818   3.493   8.012   5.908
21192WAT     H263819   3.632   8.040   5.826
21193WAT      O63820   8.534   9.606   9.682
21193WAT     H163821   8.507   9.509   9.686
21193WAT     H263822   8.631   9.614   9.704
21194WAT      O63823   1.369   7.885   6.692
21194WAT     H163824   1.279   7.843   6.683
21194WAT     H263825   1.438   7.823   6.655
21195WAT      O63826   1.071   1.706   7.688
21195WAT     H163827   1.157   1.658   7.668
21195WAT     H263828   1.084   1.804   7.676
21196WAT      O63829   8.743   3.358   3.637
21196WAT     H163830   8.817   3.292   3.633
21196WAT     H263831   8.671   3.332   3.572
21197WAT      O63832   2.102   9.483   2.752
21197WAT     H163833   2.131   9.439   2.837
21197WAT     H263834   2.025   9.431   2.713
21198WAT      O63835   5.025   3.559   4.204
21198WAT     H163836   5.119   3.546   4.171
21198WAT     H263837   5.025   3.564   4.304
21199WAT      O63838   0.629   5.096   9.807
21199WAT     H163839   0.652   5.114   9.902
21199WAT     H263840   0.614   5.183   9.759
21200WAT      O63841   5.528   1.039   2.731
21200WAT     H163842   5.548   1.045   2.829
21200WAT     H263843   5.610   1.009   2.683
21201WAT      O63844   8.763   8.935   0.662
21201WAT     H163845   8.682   8.985   0.631
21201WAT     H263846   8.829   8.930   0.588
21202WAT      O63847   8.874   4.534   8.259
21202WAT     H163848   8.885   4.514   8.357
21202WAT     H263849   8.858   4.632   8.247
21203WAT      O63850   7.362   5.920   4.938
21203WAT     H163851   7.424   5.995   4.960
21203WAT     H263852   7.286   5.920   5.004
21204WAT      O63853   4.559   2.213   9.665
21204WAT     H163854   4.622   2.181   9.736
21204WAT     H263855   4.522   2.302   9.692
21205WAT      O63856   1.812   4.407   1.599
21205WAT     H163857   1.853   4.476   1.659
21205WAT     H263858   1.875   4.330   1.589
21206WAT      O63859   4.860   5.253   0.811
21206WAT     H163860   4.905   5.164   0.815
21206WAT     H263861   4.789   5.251   0.740
21207WAT      O63862   1.495   5.818   6.928
21207WAT     H163863   1.397   5.819   6.909
21207WAT     H263864   1.545   5.796   6.844
21208WAT      O63865   3.105   8.378   7.282
21208WAT     H163866   3.028   8.423   7.328
21208WAT     H263867   3.190   8.407   7.325
21209WAT      O63868   5.344   8.464   4.693
21209WAT     H163869   5.318   8.555   4.659
21209WAT     H263870   5.269   8.400   4.678
21210WAT      O63871   3.758   2.959   3.822
21210WAT     H163872   3.756   2.981   3.919
21210WAT     H263873   3.852   2.962   3.789
21211WAT      O63874   4.782   8.871   4.654
21211WAT     H163875   4.757   8.849   4.748
21211WAT     H263876   4.700   8.891   4.601
21212WAT      O63877   9.590   7.515   8.957
21212WAT     H163878   9.599   7.528   9.055
21212WAT     H263879   9.587   7.418   8.935
21213WAT      O63880   3.392   5.715   2.706
21213WAT     H163881   3.352   5.624   2.698
21213WAT     H263882   3.320   5.785   2.698
21214WAT      O63883   4.792   5.236   9.509
21214WAT     H163884   4.859   5.171   9.474
21214WAT     H263885   4.719   5.185   9.557
21215WAT      O63886   4.525   3.905   8.878
21215WAT     H163887   4.583   3.836   8.922
21215WAT     H263888   4.550   3.996   8.912
21216WAT      O63889   7.236   2.394   4.865
21216WAT     H163890   7.239   2.456   4.944
21216WAT     H263891   7.279   2.307   4.890
21217WAT      O63892   9.481   0.343   5.707
21217WAT     H163893   9.522   0.279   5.772
21217WAT     H263894   9.451   0.425   5.756
21218WAT      O63895   4.548   0.795   9.293
21218WAT     H163896   4.522   0.773   9.387
21218WAT     H263897   4.532   0.716   9.234
21219WAT      O63898   2.751   3.245   8.851
21219WAT     H163899   2.683   3.193   8.799
21219WAT     H263900   2.825   3.273   8.789
21220WAT      O63901   1.062   6.900   4.781
21220WAT     H163902   1.058   6.883   4.879
21220WAT     H263903   1.142   6.855   4.742
21221WAT      O63904   5.767   1.269   3.016
21221WAT     H163905   5.856   1.246   2.976
21221WAT     H263906   5.742   1.362   2.991
21222WAT      O63907   4.860   8.867   9.096
21222WAT     H163908   4.894   8.902   9.009
21222WAT     H263909   4.799   8.789   9.079
21223WAT      O63910   5.445   3.321   5.796
21223WAT     H163911   5.499   3.241   5.771
21223WAT     H263912   5.463   3.395   5.730
21224WAT      O63913   5.392   1.294   9.647
21224WAT     H163914   5.489   1.272   9.634
21224WAT     H263915   5.375   1.313   9.743
21225WAT      O63916   8.541   6.658   9.382
21225WAT     H163917   8.599   6.685   9.459
21225WAT     H263918   8.494   6.573   9.403
21226WAT      O63919   3.073   6.879   1.879
21226WAT     H163920   3.070   6.938   1.959
21226WAT     H263921   3.168   6.859   1.856
21227WAT      O63922   9.037   8.011   3.682
21227WAT     H163923   9.083   7.922   3.688
21227WAT     H263924   8.940   7.997   3.663
21228WAT      O63925   5.423   1.877   1.267
21228WAT     H163926   5.458   1.806   1.206
21228WAT     H263927   5.417   1.841   1.360
21229WAT      O63928   0.900   5.909   1.804
21229WAT     H163929   0.831   5.843   1.774
21229WAT     H263930   0.867   6.001   1.787
21230WAT      O63931   7.227   0.531   9.237
21230WAT     H163932   7.308   0.560   9.185
21230WAT     H263933   7.251   0.455   9.297
21231WAT      O63934   7.191   4.621   9.467
21231WAT     H163935   7.203   4.716   9.499
21231WAT     H263936   7.148   4.567   9.538
21232WAT      O63937   6.962   8.122   5.430
21232WAT     H163938   6.939   8.084   5.340
21232WAT     H263939   6.967   8.049   5.497
21233WAT      O63940   5.156   4.103   6.721
21233WAT     H163941   5.124   4.146   6.636
21233WAT     H263942   5.208   4.021   6.699
21234WAT      O63943   7.286   1.932   5.615
21234WAT     H163944   7.246   1.842   5.632
21234WAT     H263945   7.214   2.001   5.621
21235WAT      O63946   7.155   0.478   5.838
21235WAT     H163947   7.246   0.479   5.879
21235WAT     H263948   7.099   0.409   5.884
21236WAT      O63949   0.936   3.761   6.246
21236WAT     H163950   0.915   3.844   6.298
21236WAT     H263951   1.029   3.767   6.209
21237WAT      O63952   2.249   8.054   3.035
21237WAT     H163953   2.279   8.051   3.131
21237WAT     H263954   2.310   8.115   2.984
21238WAT      O63955   0.818   8.221   9.593
21238WAT     H163956   0.851   8.130   9.568
21238WAT     H263957   0.723   8.232   9.564
21239WAT      O63958   2.270   8.553   5.800
21239WAT     H163959   2.367   8.566   5.779
21239WAT     H263960   2.215   8.579   5.721
21240WAT      O63961   6.898   6.426   1.833
21240WAT     H163962   6.908   6.368   1.753
21240WAT     H263963   6.875   6.519   1.804
21241WAT      O63964   5.128   6.132   0.034
21241WAT     H163965   5.144   6.101   0.128
21241WAT     H263966   5.158   6.061  -0.030
21242WAT      O63967   6.336   4.880   3.908
21242WAT     H163968   6.246   4.867   3.948
21242WAT     H263969   6.329   4.880   3.808
21243WAT      O63970   6.780   7.675   2.641
21243WAT     H163971   6.759   7.580   2.663
21243WAT     H263972   6.878   7.691   2.649
21244WAT      O63973   6.776   9.245   4.674
21244WAT     H163974   6.867   9.287   4.672
21244WAT     H263975   6.733   9.262   4.762
21245WAT      O63976   4.276   2.401   4.549
21245WAT     H163977   4.291   2.452   4.465
21245WAT     H263978   4.363   2.368   4.585
21246WAT      O63979   1.151   7.126   1.605
21246WAT     H163980   1.200   7.086   1.683
21246WAT     H263981   1.156   7.063   1.527
21247WAT      O63982   1.457   6.075   3.954
21247WAT     H163983   1.511   5.992   3.971
21247WAT     H263984   1.460   6.134   4.035
21248WAT      O63985   7.556   0.868   8.861
21248WAT     H163986   7.638   0.885   8.917
21248WAT     H263987   7.477   0.909   8.905
21249WAT      O63988   7.350   3.593   2.117
21249WAT     H163989   7.258   3.570   2.150
21249WAT     H263990   7.418   3.535   2.163
21250WAT      O63991   6.860   2.235   1.915
21250WAT     H163992   6.895   2.146   1.885
21250WAT     H263993   6.770   2.251   1.874
21251WAT      O63994   8.142   9.177   1.920
21251WAT     H163995   8.217   9.189   1.985
21251WAT     H263996   8.138   9.081   1.891
21252WAT      O63997   1.790   0.415   0.201
21252WAT     H163998   1.735   0.439   0.281
21252WAT     H263999   1.877   0.375   0.231
21253WAT      O64000   6.611   2.473   5.960
21253WAT     H164001   6.665   2.478   5.875
21253WAT     H264002   6.514   2.475   5.937
21254WAT      O64003   0.812   4.420   0.811
21254WAT     H164004   0.809   4.323   0.788
21254WAT     H264005   0.875   4.434   0.888
21255WAT      O64006   8.015   8.764   2.267
21255WAT     H164007   7.954   8.838   2.239
21255WAT     H264008   7.978   8.720   2.349
21256WAT      O64009   1.950   9.075   0.491
21256WAT     H164010   2.037   9.065   0.539
21256WAT     H264011   1.898   9.151   0.531
21257WAT      O64012   1.978   5.269   5.485
21257WAT     H164013   1.957   5.366   5.474
21257WAT     H264014   2.059   5.246   5.431
21258WAT      O64015   5.457   1.287   1.037
21258WAT     H164016   5.449   1.274   0.939
21258WAT     H264017   5.541   1.244   1.070
21259WAT      O64018   6.387   0.634   1.545
21259WAT     H164019   6.462   0.693   1.514
21259WAT     H264020   6.316   0.631   1.475
21260WAT      O64021   7.321   9.144   8.933
21260WAT     H164022   7.225   9.166   8.913
21260WAT     H264023   7.381   9.206   8.883
21261WAT      O64024   8.557   7.823   4.108
21261WAT     H164025   8.532   7.793   4.200
21261WAT     H264026   8.556   7.744   4.046
21262WAT      O64027   5.105   9.141   7.521
21262WAT     H164028   5.024   9.127   7.577
21262WAT     H264029   5.135   9.236   7.528
21263WAT      O64030   8.194   7.304   8.082
21263WAT     H164031   8.207   7.239   8.008
21263WAT     H264032   8.144   7.259   8.157
21264WAT      O64033   1.358   4.550   0.116
21264WAT     H164034   1.270   4.502   0.110
21264WAT     H264035   1.341   4.646   0.141
21265WAT      O64036   5.521   0.182   8.016
21265WAT     H164037   5.582   0.243   7.965
21265WAT     H264038   5.487   0.229   8.097
21266WAT      O64039   2.555   1.243   0.163
21266WAT     H164040   2.479   1.191   0.202
21266WAT     H264041   2.521   1.328   0.123
21267WAT      O64042   9.346   5.960   3.441
21267WAT     H164043   9.343   5.957   3.341
21267WAT     H264044   9.311   5.874   3.477
21268WAT      O64045   0.872   6.205   5.326
21268WAT     H164046   0.945   6.145   5.358
21268WAT     H264047   0.873   6.290   5.377
21269WAT      O64048   6.172   7.252   0.332
21269WAT     H164049   6.087   7.293   0.301
21269WAT     H264050   6.153   7.163   0.373
21270WAT      O64051   4.797   6.507   7.606
21270WAT     H164052   4.701   6.529   7.588
21270WAT     H264053   4.803   6.451   7.689
21271WAT      O64054   6.407   2.574   2.029
21271WAT     H164055   6.351   2.498   1.996
21271WAT     H264056   6.410   2.572   2.129
21272WAT      O64057   6.903   6.267   1.623
21272WAT     H164058   6.808   6.237   1.633
21272WAT     H264059   6.962   6.187   1.617
21273WAT      O64060   7.020   2.145   3.000
21273WAT     H164061   7.028   2.055   2.956
21273WAT     H264062   7.102   2.163   3.054
21274WAT      O64063   9.432   7.189   2.217
21274WAT     H164064   9.426   7.100   2.171
21274WAT     H264065   9.366   7.192   2.292
21275WAT      O64066   6.210   2.016   7.489
21275WAT     H164067   6.262   1.970   7.417
21275WAT     H264068   6.271   2.077   7.541
21276WAT      O64069   7.954   5.232   7.124
21276WAT     H164070   7.936   5.311   7.066
21276WAT     H264071   7.884   5.227   7.196
21277WAT      O64072   4.621   5.511   7.907
21277WAT     H164073   4.568   5.576   7.961
21277WAT     H264074   4.699   5.479   7.961
21278WAT      O64075   5.997   6.232   3.604
21278WAT     H164076   6.030   6.313   3.556
21278WAT     H264077   5.904   6.212   3.575
21279WAT      O64078   6.217   5.651   3.158
21279WAT     H164079   6.188   5.726   3.218
21279WAT     H264080   6.136   5.610   3.115
21280WAT      O64081   7.252   2.148   6.014
21280WAT     H164082   7.155   2.166   5.993
21280WAT     H264083   7.259   2.063   6.066
21281WAT      O64084   9.084   3.644   1.381
21281WAT     H164085   9.109   3.736   1.411
21281WAT     H264086   9.165   3.598   1.345
21282WAT      O64087   2.894   7.135   5.130
21282WAT     H164088   2.808   7.125   5.180
21282WAT     H264089   2.889   7.216   5.071
21283WAT      O64090   1.477   2.885   3.141
21283WAT     H164091   1.526   2.965   3.106
21283WAT     H264092   1.379   2.903   3.138
21284WAT      O64093   0.921   5.814   9.254
21284WAT     H164094   0.907   5.881   9.181
21284WAT     H264095   0.855   5.830   9.328
21285WAT      O64096   7.197   6.720   3.093
21285WAT     H164097   7.245   6.753   3.011
21285WAT     H264098   7.160   6.628   3.074
21286WAT      O64099   2.180   6.476   7.927
21286WAT     H164100   2.131   6.441   8.007
21286WAT     H264101   2.130   6.553   7.888
21287WAT      O64102   9.122   2.534   7.596
21287WAT     H164103   9.192   2.599   7.627
21287WAT     H264104   9.099   2.553   7.501
21288WAT      O64105   7.712   2.012   4.117
21288WAT     H164106   7.789   2.069   4.089
21288WAT     H264107   7.718   1.992   4.215
21289WAT      O64108   6.197   5.456   8.707
21289WAT     H164109   6.295   5.470   8.694
21289WAT     H264110   6.178   5.441   8.804
21290WAT      O64111   3.392   8.803   5.941
21290WAT     H164112   3.363   8.718   5.898
21290WAT     H264113   3.380   8.796   6.040
21291WAT      O64114   0.821   4.492   5.504
21291WAT     H164115   0.800   4.400   5.471
21291WAT     H264116   0.771   4.559   5.450
21292WAT      O64117   3.490   5.661   1.537
21292WAT     H164118   3.529   5.571   1.519
21292WAT     H264119   3.509   5.721   1.460
21293WAT      O64120   7.936   1.853   0.458
21293WAT     H164121   7.922   1.913   0.379
21293WAT     H264122   7.897   1.763   0.438
21294WAT      O64123   3.912   2.405   5.658
21294WAT     H164124   3.903   2.409   5.758
21294WAT     H264125   3.852   2.334   5.622
21295WAT      O64126   6.591   5.622   9.734
21295WAT     H164127   6.645   5.676   9.799
21295WAT     H264128   6.539   5.553   9.783
21296WAT      O64129   7.424   4.245   2.260
21296WAT     H164130   7.474   4.200   2.186
21296WAT     H264131   7.329   4.258   2.233
21297WAT      O64132   4.342   4.506   0.344
21297WAT     H164133   4.257   4.554   0.365
21297WAT     H264134   4.369   4.451   0.424
21298WAT      O64135   2.915   2.398   1.814
21298WAT     H164136   2.871   2.362   1.732
21298WAT     H264137   2.961   2.324   1.863
21299WAT      O64138   5.861   4.906   9.020
21299WAT     H164139   5.772   4.892   8.977
21299WAT     H264140   5.892   4.820   9.061
21300WAT      O64141   1.551   2.865   2.345
21300WAT     H164142   1.522   2.952   2.385
21300WAT     H264143   1.648   2.848   2.367
21301WAT      O64144   3.925   2.590   5.308
21301WAT     H164145   3.987   2.557   5.378
21301WAT     H264146   3.976   2.610   5.224
21302WAT      O64147   9.872   0.950   2.044
21302WAT     H164148   9.906   0.967   1.951
21302WAT     H264149   9.950   0.943   2.106
21303WAT      O64150   8.580   7.063   0.365
21303WAT     H164151   8.665   7.107   0.337
21303WAT     H264152   8.570   6.977   0.315
21304WAT      O64153   7.513   8.635   0.039
21304WAT     H164154   7.540   8.712  -0.019
21304WAT     H264155   7.442   8.665   0.102
21305WAT      O64156   7.029   2.700   8.431
21305WAT     H164157   7.116   2.652   8.421
21305WAT     H264158   6.991   2.719   8.341
21306WAT      O64159   9.201   7.551   0.018
21306WAT     H164160   9.110   7.523  -0.012
21306WAT     H264161   9.270   7.518  -0.047
21307WAT      O64162   9.744   6.528   0.577
21307WAT     H164163   9.729   6.592   0.653
21307WAT     H264164   9.839   6.535   0.546
21308WAT      O64165   9.760   9.713   5.427
21308WAT     H164166   9.845   9.765   5.435
21308WAT     H264167   9.717   9.732   5.339
21309WAT      O64168   4.699   7.468   7.115
21309WAT     H164169   4.784   7.417   7.130
21309WAT     H264170   4.698   7.548   7.175
21310WAT      O64171   8.524   3.293   6.200
21310WAT     H164172   8.490   3.272   6.291
21310WAT     H264173   8.581   3.375   6.204
21311WAT      O64174   7.659   8.916   6.424
21311WAT     H164175   7.750   8.878   6.441
21311WAT     H264176   7.591   8.856   6.466
21312WAT      O64177   1.628   2.953   8.986
21312WAT     H164178   1.603   2.949   8.889
21312WAT     H264179   1.550   2.924   9.042
21313WAT      O64180   1.115   3.795   0.131
21313WAT     H164181   1.136   3.866   0.199
21313WAT     H264182   1.200   3.761   0.091
21314WAT      O64183   9.600   0.022   1.078
21314WAT     H164184   9.660  -0.033   1.019
21314WAT     H264185   9.635   0.020   1.171
21315WAT      O64186   5.906   4.906   2.628
21315WAT     H164187   6.002   4.899   2.602
21315WAT     H264188   5.885   4.999   2.657
21316WAT      O64189   8.240   8.812   3.602
21316WAT     H164190   8.193   8.724   3.611
21316WAT     H264191   8.324   8.800   3.549
21317WAT      O64192   0.826   8.985   0.586
21317WAT     H164193   0.784   9.008   0.498
21317WAT     H264194   0.925   8.983   0.577
21318WAT      O64195   1.144   7.419   1.585
21318WAT     H164196   1.203   7.483   1.536
21318WAT     H264197   1.139   7.333   1.535
21319WAT      O64198   1.762   4.121   8.646
21319WAT     H164199   1.702   4.196   8.675
21319WAT     H264200   1.707   4.040   8.629
21320WAT      O64201   8.956   6.771   5.244
21320WAT     H164202   8.985   6.693   5.188
21320WAT     H264203   8.904   6.836   5.187
21321WAT      O64204   0.574   6.409   5.446
21321WAT     H164205   0.516   6.444   5.372
21321WAT     H264206   0.526   6.418   5.533
21322WAT      O64207   1.093   6.199   6.032
21322WAT     H164208   1.145   6.284   6.018
21322WAT     H264209   1.065   6.193   6.127
21323WAT      O64210   1.643   4.384   1.083
21323WAT     H164211   1.566   4.401   1.144
21323WAT     H264212   1.719   4.445   1.107
21324WAT      O64213   7.801   2.618   3.106
21324WAT     H164214   7.815   2.526   3.143
21324WAT     H264215   7.882   2.646   3.054
21325WAT      O64216   1.213   5.587   5.265
21325WAT     H164217   1.263   5.524   5.324
21325WAT     H264218   1.143   5.537   5.214
21326WAT      O64219   8.577   1.926   2.810
21326WAT     H164220   8.531   1.987   2.745
21326WAT     H264221   8.630   1.979   2.875
21327WAT      O64222   3.773   3.544   0.701
21327WAT     H164223   3.835   3.475   0.662
21327WAT     H264224   3.691   3.498   0.734
21328WAT      O64225   7.721   0.540   9.528
21328WAT     H164226   7.621   0.531   9.519
21328WAT     H264227   7.762   0.449   9.533
21329WAT      O64228   9.702   7.951   3.233
21329WAT     H164229   9.603   7.963   3.227
21329WAT     H264230   9.743   7.965   3.143
21330WAT      O64231   8.926   4.468   2.841
21330WAT     H164232   8.962   4.398   2.780
21330WAT     H264233   9.002   4.525   2.875
21331WAT      O64234   5.949   7.836   9.353
21331WAT     H164235   6.019   7.856   9.421
21331WAT     H264236   5.860   7.827   9.398
21332WAT      O64237   7.054   3.006   6.544
21332WAT     H164238   7.089   2.921   6.505
21332WAT     H264239   6.955   3.009   6.534
21333WAT      O64240   3.350   8.374   0.083
21333WAT     H164241   3.331   8.472   0.078
21333WAT     H264242   3.428   8.352   0.025
21334WAT      O64243   0.378   3.486   6.300
21334WAT     H164244   0.300   3.545   6.319
21334WAT     H264245   0.454   3.511   6.361
21335WAT      O64246   5.010   5.297   9.824
21335WAT     H164247   5.090   5.323   9.771
21335WAT     H264248   4.940   5.368   9.815
21336WAT      O64249   8.936   6.931   4.008
21336WAT     H164250   8.989   6.990   4.069
21336WAT     H264251   8.966   6.945   3.914
21337WAT      O64252   6.249   6.500   8.698
21337WAT     H164253   6.253   6.406   8.732
21337WAT     H264254   6.249   6.499   8.598
21338WAT      O64255   7.841   4.138   1.928
21338WAT     H164256   7.910   4.066   1.929
21338WAT     H264257   7.847   4.190   2.013
21339WAT      O64258   9.511   0.918   1.991
21339WAT     H164259   9.590   0.863   1.964
21339WAT     H264260   9.478   0.969   1.912
21340WAT      O64261   2.754   4.018   5.833
21340WAT     H164262   2.795   3.927   5.834
21340WAT     H264263   2.724   4.040   5.740
21341WAT      O64264   0.878   7.606   8.457
21341WAT     H164265   0.903   7.671   8.528
21341WAT     H264266   0.957   7.586   8.399
21342WAT      O64267   6.400   4.631   6.020
21342WAT     H164268   6.313   4.591   6.050
21342WAT     H264269   6.421   4.600   5.928
21343WAT      O64270   1.301   8.945   4.070
21343WAT     H164271   1.360   8.894   4.008
21343WAT     H264272   1.279   9.034   4.030
21344WAT      O64273   1.794   5.660   5.254
21344WAT     H164274   1.738   5.583   5.223
21344WAT     H264275   1.862   5.683   5.184
21345WAT      O64276   9.651   1.285   2.302
21345WAT     H164277   9.638   1.187   2.286
21345WAT     H264278   9.677   1.329   2.216
21346WAT      O64279   4.372   2.464   1.727
21346WAT     H164280   4.282   2.425   1.706
21346WAT     H264281   4.443   2.396   1.706
21347WAT      O64282   0.938   8.922   4.434
21347WAT     H164283   0.998   8.873   4.498
21347WAT     H264284   0.992   8.987   4.381
21348WAT      O64285   0.137   6.032   6.500
21348WAT     H164286   0.153   5.940   6.537
21348WAT     H264287   0.116   6.025   6.403
21349WAT      O64288   2.857   1.247   8.831
21349WAT     H164289   2.936   1.300   8.798
21349WAT     H264290   2.851   1.257   8.930
21350WAT      O64291   5.172   2.965   4.629
21350WAT     H164292   5.203   3.037   4.567
21350WAT     H264293   5.217   2.974   4.718
21351WAT      O64294   9.659   1.335   0.548
21351WAT     H164295   9.604   1.262   0.507
21351WAT     H264296   9.621   1.424   0.523
21352WAT      O64297   8.430   7.821   4.359
21352WAT     H164298   8.343   7.870   4.356
21352WAT     H264299   8.436   7.767   4.443
21353WAT      O64300   3.120   4.068   7.451
21353WAT     H164301   3.119   4.104   7.544
21353WAT     H264302   3.114   4.143   7.386
21354WAT      O64303   5.395   6.766   2.933
21354WAT     H164304   5.332   6.843   2.929
21354WAT     H264305   5.344   6.680   2.923
21355WAT      O64306   2.391   1.329   4.905
21355WAT     H164307   2.330   1.250   4.895
21355WAT     H264308   2.365   1.399   4.839
21356WAT      O64309   8.741   3.344   4.084
21356WAT     H164310   8.654   3.305   4.053
21356WAT     H264311   8.816   3.283   4.057
21357WAT      O64312   0.655   8.550   7.300
21357WAT     H164313   0.642   8.494   7.382
21357WAT     H264314   0.715   8.501   7.237
21358WAT      O64315   2.529   1.971   9.056
21358WAT     H164316   2.548   1.874   9.074
21358WAT     H264317   2.434   1.982   9.029
21359WAT      O64318   1.897   6.294   4.280
21359WAT     H164319   1.928   6.236   4.355
21359WAT     H264320   1.892   6.389   4.311
21360WAT      O64321   7.508   1.195   1.662
21360WAT     H164322   7.492   1.257   1.738
21360WAT     H264323   7.425   1.188   1.607
21361WAT      O64324   1.459   8.498   1.473
21361WAT     H164325   1.558   8.483   1.471
21361WAT     H264326   1.421   8.457   1.555
21362WAT      O64327   3.193   3.910   2.993
21362WAT     H164328   3.213   4.007   3.004
21362WAT     H264329   3.248   3.856   3.057
21363WAT      O64330   3.831   3.521   5.530
21363WAT     H164331   3.742   3.481   5.553
21363WAT     H264332   3.818   3.616   5.501
21364WAT      O64333   8.882   9.450   0.578
21364WAT     H164334   8.825   9.448   0.496
21364WAT     H264335   8.929   9.538   0.584
21365WAT      O64336   4.011   1.687   4.150
21365WAT     H164337   4.051   1.622   4.214
21365WAT     H264338   4.046   1.779   4.169
21366WAT      O64339   4.884   4.433   4.538
21366WAT     H164340   4.969   4.435   4.485
21366WAT     H264341   4.905   4.419   4.634
21367WAT      O64342   7.924   2.804   4.380
21367WAT     H164343   7.960   2.878   4.436
21367WAT     H264344   7.937   2.717   4.428
21368WAT      O64345   1.376   2.768   3.828
21368WAT     H164346   1.430   2.768   3.744
21368WAT     H264347   1.301   2.703   3.819
21369WAT      O64348   9.776   6.497   0.024
21369WAT     H164349   9.714   6.568  -0.011
21369WAT     H264350   9.871   6.525   0.006
21370WAT      O64351   0.625   5.888   7.722
21370WAT     H164352   0.691   5.879   7.797
21370WAT     H264353   0.612   5.799   7.678
21371WAT      O64354   7.958   1.786   7.098
21371WAT     H164355   7.980   1.689   7.095
21371WAT     H264356   7.871   1.800   7.145
21372WAT      O64357   9.046   6.278   8.862
21372WAT     H164358   9.070   6.220   8.784
21372WAT     H264359   9.128   6.299   8.914
21373WAT      O64360   6.392   3.744   6.257
21373WAT     H164361   6.296   3.718   6.249
21373WAT     H264362   6.444   3.666   6.294
21374WAT      O64363   5.485   0.875   2.243
21374WAT     H164364   5.487   0.960   2.296
21374WAT     H264365   5.456   0.895   2.149
21375WAT      O64366   0.290   0.897   1.404
21375WAT     H164367   0.196   0.886   1.371
21375WAT     H264368   0.354   0.864   1.335
21376WAT      O64369   9.546   5.809   3.997
21376WAT     H164370   9.466   5.863   4.023
21376WAT     H264371   9.517   5.717   3.972
21377WAT      O64372   3.248   8.434   6.156
21377WAT     H164373   3.287   8.525   6.166
21377WAT     H264374   3.307   8.378   6.098
21378WAT      O64375   1.818   7.590   7.515
21378WAT     H164376   1.774   7.513   7.560
21378WAT     H264377   1.778   7.604   7.424
21379WAT      O64378   1.372   7.379   4.828
21379WAT     H164379   1.332   7.348   4.915
21379WAT     H264380   1.419   7.466   4.843
21380WAT      O64381   0.399   4.621   0.998
21380WAT     H164382   0.364   4.651   0.909
21380WAT     H264383   0.476   4.559   0.983
21381WAT      O64384   0.666   4.474   3.894
21381WAT     H164385   0.601   4.525   3.950
21381WAT     H264386   0.690   4.527   3.813
21382WAT      O64387   2.905   0.672   1.025
21382WAT     H164388   2.866   0.636   1.110
21382WAT     H264389   3.000   0.641   1.017
21383WAT      O64390   6.326   7.269   5.096
21383WAT     H164391   6.420   7.240   5.116
21383WAT     H264392   6.326   7.362   5.060
21384WAT      O64393   8.207   4.284   8.925
21384WAT     H164394   8.243   4.234   9.003
21384WAT     H264395   8.165   4.219   8.861
21385WAT      O64396   1.068   8.810   3.682
21385WAT     H164397   0.994   8.875   3.664
21385WAT     H264398   1.151   8.860   3.707
21386WAT      O64399   6.075   2.398   5.031
21386WAT     H164400   6.074   2.379   4.933
21386WAT     H264401   6.033   2.487   5.048
21387WAT      O64402   4.205   1.128   5.786
21387WAT     H164403   4.197   1.227   5.778
21387WAT     H264404   4.261   1.093   5.710
21388WAT      O64405   4.487   9.813   0.951
21388WAT     H164406   4.555   9.794   0.881
21388WAT     H264407   4.467   9.730   1.003
21389WAT      O64408   1.143   0.240   7.959
21389WAT     H164409   1.050   0.223   7.991
21389WAT     H264410   1.204   0.252   8.037
21390WAT      O64411   7.627  -0.004   4.940
21390WAT     H164412   7.624   0.011   5.039
21390WAT     H264413   7.587   0.074   4.892
21391WAT      O64414   5.519   5.193   0.497
21391WAT     H164415   5.440   5.240   0.457
21391WAT     H264416   5.498   5.166   0.591
21392WAT      O64417   3.854   2.255   0.728
21392WAT     H164418   3.907   2.231   0.646
21392WAT     H264419   3.917   2.269   0.805
21393WAT      O64420   3.918   4.851   1.402
21393WAT     H164421   3.922   4.751   1.399
21393WAT     H264422   3.844   4.880   1.462
21394WAT      O64423   2.976   1.462   0.847
21394WAT     H164424   3.069   1.429   0.831
21394WAT     H264425   2.959   1.467   0.945
21395WAT      O64426   2.277   1.863   0.434
21395WAT     H164427   2.194   1.875   0.487
21395WAT     H264428   2.289   1.766   0.411
21396WAT      O64429   4.290   7.550   5.469
21396WAT     H164430   4.222   7.622   5.451
21396WAT     H264431   4.243   7.462   5.475
21397WAT      O64432   0.692   4.839   1.299
21397WAT     H164433   0.611   4.836   1.357
21397WAT     H264434   0.717   4.935   1.283
21398WAT      O64435   5.232   1.674   7.891
21398WAT     H164436   5.257   1.609   7.819
21398WAT     H264437   5.155   1.730   7.860
21399WAT      O64438   2.957   9.617   1.247
21399WAT     H164439   2.878   9.657   1.200
21399WAT     H264440   2.925   9.558   1.321
21400WAT      O64441   7.094   5.852   4.102
21400WAT     H164442   7.128   5.791   4.031
21400WAT     H264443   7.011   5.897   4.070
21401WAT      O64444   2.620   0.039   7.057
21401WAT     H164445   2.520   0.030   7.054
21401WAT     H264446   2.644   0.122   7.108
21402WAT      O64447   5.953   7.562   2.703
21402WAT     H164448   5.866   7.612   2.702
21402WAT     H264449   6.022   7.615   2.654
21403WAT      O64450   9.035   4.971   0.059
21403WAT     H164451   9.008   4.975  -0.037
21403WAT     H264452   8.959   5.004   0.116
21404WAT      O64453   2.499   1.177   9.543
21404WAT     H164454   2.423   1.231   9.507
21404WAT     H264455   2.504   1.090   9.493
21405WAT      O64456   0.698   1.303   8.977
21405WAT     H164457   0.674   1.394   9.010
21405WAT     H264458   0.783   1.307   8.926
21406WAT      O64459   7.314   0.457   7.659
21406WAT     H164460   7.221   0.431   7.634
21406WAT     H264461   7.361   0.378   7.698
21407WAT      O64462   3.213   3.641   5.777
21407WAT     H164463   3.155   3.698   5.836
21407WAT     H264464   3.309   3.655   5.801
21408WAT      O64465   7.629   9.730   8.920
21408WAT     H164466   7.671   9.821   8.930
21408WAT     H264467   7.616   9.710   8.823
21409WAT      O64468   9.573   8.731   9.307
21409WAT     H164469   9.514   8.719   9.228
21409WAT     H264470   9.663   8.763   9.278
21410WAT      O64471   4.915   8.380   0.777
21410WAT     H164472   5.007   8.382   0.738
21410WAT     H264473   4.848   8.392   0.704
21411WAT      O64474   1.933   3.682   6.743
21411WAT     H164475   1.868   3.724   6.679
21411WAT     H264476   1.912   3.585   6.753
21412WAT      O64477   9.182   5.605   8.444
21412WAT     H164478   9.260   5.551   8.414
21412WAT     H264479   9.107   5.596   8.378
21413WAT      O64480   8.037   7.222   3.885
21413WAT     H164481   7.974   7.230   3.962
21413WAT     H264482   8.096   7.303   3.881
21414WAT      O64483   5.693   1.980   6.475
21414WAT     H164484   5.711   1.954   6.570
21414WAT     H264485   5.597   1.964   6.454
21415WAT      O64486   2.636   3.180   7.957
21415WAT     H164487   2.670   3.114   8.024
21415WAT     H264488   2.713   3.233   7.920
21416WAT      O64489   5.130   9.830   9.497
21416WAT     H164490   5.087   9.917   9.521
21416WAT     H264491   5.223   9.846   9.463
21417WAT      O64492   2.315   6.161   2.848
21417WAT     H164493   2.407   6.141   2.813
21417WAT     H264494   2.261   6.206   2.777
21418WAT      O64495   6.539   9.227   4.074
21418WAT     H164496   6.581   9.270   4.154
21418WAT     H264497   6.440   9.241   4.076
21419WAT      O64498   7.763   6.854   2.863
21419WAT     H164499   7.808   6.933   2.904
21419WAT     H264500   7.725   6.880   2.774
21420WAT      O64501   6.474   3.713   1.423
21420WAT     H164502   6.544   3.738   1.356
21420WAT     H264503   6.456   3.791   1.482
21421WAT      O64504   8.582   3.495   5.758
21421WAT     H164505   8.626   3.454   5.678
21421WAT     H264506   8.499   3.444   5.780
21422WAT      O64507   2.434   2.921   6.186
21422WAT     H164508   2.469   2.908   6.093
21422WAT     H264509   2.510   2.922   6.250
21423WAT      O64510   8.314   3.215   5.440
21423WAT     H164511   8.317   3.251   5.347
21423WAT     H264512   8.229   3.245   5.485
21424WAT      O64513   6.099   3.836   5.126
21424WAT     H164514   6.049   3.868   5.206
21424WAT     H264515   6.197   3.841   5.143
21425WAT      O64516   7.774   7.906   0.049
21425WAT     H164517   7.698   7.969   0.033
21425WAT     H264518   7.739   7.821   0.090
21426WAT      O64519   4.016   9.372   4.386
21426WAT     H164520   4.066   9.332   4.309
21426WAT     H264521   4.055   9.339   4.472
21427WAT      O64522   3.590   7.609   1.506
21427WAT     H164523   3.604   7.659   1.420
21427WAT     H264524   3.660   7.538   1.515
21428WAT      O64525   4.766   0.573   7.968
21428WAT     H164526   4.707   0.536   8.041
21428WAT     H264527   4.802   0.498   7.913
21429WAT      O64528   7.873   9.510   1.608
21429WAT     H164529   7.818   9.523   1.526
21429WAT     H264530   7.841   9.430   1.658
21430WAT      O64531   3.412   0.770   2.091
21430WAT     H164532   3.332   0.818   2.129
21430WAT     H264533   3.491   0.832   2.093
21431WAT      O64534   7.217   4.211   9.750
21431WAT     H164535   7.303   4.261   9.752
21431WAT     H264536   7.166   4.228   9.835
21432WAT      O64537   9.828   1.581   0.909
21432WAT     H164538   9.920   1.609   0.936
21432WAT     H264539   9.798   1.633   0.829
21433WAT      O64540   3.545   1.173   4.092
21433WAT     H164541   3.454   1.209   4.070
21433WAT     H264542   3.541   1.125   4.180
21434WAT      O64543   7.660   2.400   2.853
21434WAT     H164544   7.725   2.451   2.796
21434WAT     H264545   7.701   2.382   2.942
21435WAT      O64546   8.376   6.369   9.893
21435WAT     H164547   8.351   6.412   9.806
21435WAT     H264548   8.406   6.275   9.877
21436WAT      O64549   5.408   0.181   7.100
21436WAT     H164550   5.355   0.109   7.145
21436WAT     H264551   5.348   0.259   7.081
21437WAT      O64552   5.550   6.167   2.221
21437WAT     H164553   5.604   6.227   2.281
21437WAT     H264554   5.513   6.221   2.145
21438WAT      O64555   5.777   1.928   9.605
21438WAT     H164556   5.741   2.021   9.594
21438WAT     H264557   5.800   1.912   9.701
21439WAT      O64558   3.685   8.536   4.975
21439WAT     H164559   3.737   8.583   4.904
21439WAT     H264560   3.701   8.582   5.063
21440WAT      O64561   4.894   5.492   3.161
21440WAT     H164562   4.959   5.444   3.102
21440WAT     H264563   4.801   5.481   3.125
21441WAT      O64564   7.636   0.345   0.995
21441WAT     H164565   7.717   0.329   1.052
21441WAT     H264566   7.652   0.425   0.937
21442WAT      O64567   9.597   7.764   0.897
21442WAT     H164568   9.590   7.734   0.993
21442WAT     H264569   9.679   7.725   0.856
21443WAT      O64570   4.730   2.770   0.054
21443WAT     H164571   4.655   2.734  -0.002
21443WAT     H264572   4.794   2.697   0.076
21444WAT      O64573   1.641   3.458   4.430
21444WAT     H164574   1.633   3.360   4.410
21444WAT     H264575   1.727   3.474   4.479
21445WAT      O64576   4.384   6.738   2.440
21445WAT     H164577   4.360   6.663   2.378
21445WAT     H264578   4.310   6.751   2.506
21446WAT      O64579   8.051   9.398   5.410
21446WAT     H164580   7.984   9.328   5.435
21446WAT     H264581   8.102   9.368   5.330
21447WAT      O64582   5.836   9.414   7.227
21447WAT     H164583   5.863   9.351   7.155
21447WAT     H264584   5.750   9.458   7.203
21448WAT      O64585   3.199   4.930   1.135
21448WAT     H164586   3.260   4.972   1.202
21448WAT     H264587   3.249   4.914   1.050
21449WAT      O64588   1.027   4.513   7.257
21449WAT     H164589   1.004   4.503   7.160
21449WAT     H264590   1.111   4.568   7.266
21450WAT      O64591   4.799   1.607   4.446
21450WAT     H164592   4.877   1.549   4.419
21450WAT     H264593   4.786   1.678   4.378
21451WAT      O64594   9.529   4.142   4.358
21451WAT     H164595   9.621   4.179   4.360
21451WAT     H264596   9.521   4.068   4.424
21452WAT      O64597   5.466   6.568   7.931
21452WAT     H164598   5.499   6.641   7.873
21452WAT     H264599   5.433   6.606   8.018
21453WAT      O64600   8.449   1.803   4.296
21453WAT     H164601   8.389   1.745   4.241
21453WAT     H264602   8.414   1.807   4.390
21454WAT      O64603   8.745   3.665   4.761
21454WAT     H164604   8.753   3.571   4.728
21454WAT     H264605   8.730   3.664   4.860
21455WAT      O64606   5.276   3.620   7.159
21455WAT     H164607   5.253   3.711   7.124
21455WAT     H264608   5.373   3.603   7.147
21456WAT      O64609   2.009   1.068   2.595
21456WAT     H164610   1.987   1.138   2.528
21456WAT     H264611   1.953   0.987   2.579
21457WAT      O64612   1.470   0.169   0.285
21457WAT     H164613   1.566   0.188   0.303
21457WAT     H264614   1.443   0.086   0.334
21458WAT      O64615   5.534   0.910   5.826
21458WAT     H164616   5.540   0.999   5.782
21458WAT     H264617   5.437   0.886   5.839
21459WAT      O64618   6.569   6.859   6.668
21459WAT     H164619   6.644   6.881   6.730
21459WAT     H264620   6.599   6.873   6.573
21460WAT      O64621   6.001   8.923   0.621
21460WAT     H164622   6.088   8.881   0.597
21460WAT     H264623   5.959   8.872   0.696
21461WAT      O64624   7.980   0.123   4.830
21461WAT     H164625   7.946   0.031   4.851
21461WAT     H264626   8.067   0.117   4.782
21462WAT      O64627   0.833   0.256   3.993
21462WAT     H164628   0.818   0.291   3.901
21462WAT     H264629   0.866   0.161   3.988
21463WAT      O64630   8.561   4.882   5.557
21463WAT     H164631   8.624   4.839   5.492
21463WAT     H264632   8.602   4.965   5.594
21464WAT      O64633   5.863   6.967   7.732
21464WAT     H164634   5.796   7.012   7.673
21464WAT     H264635   5.948   7.020   7.732
21465WAT      O64636   5.585   2.176   5.499
21465WAT     H164637   5.654   2.234   5.456
21465WAT     H264638   5.513   2.156   5.432
21466WAT      O64639   6.145   2.575   4.558
21466WAT     H164640   6.081   2.633   4.508
21466WAT     H264641   6.160   2.490   4.507
21467WAT      O64642   6.354   8.054   4.154
21467WAT     H164643   6.390   8.135   4.108
21467WAT     H264644   6.254   8.053   4.148
21468WAT      O64645   5.145   2.966   9.184
21468WAT     H164646   5.160   2.869   9.203
21468WAT     H264647   5.144   2.982   9.086
21469WAT      O64648   5.134   4.353   1.317
21469WAT     H164649   5.195   4.274   1.312
21469WAT     H264650   5.039   4.322   1.319
21470WAT      O64651   7.131   3.118   2.433
21470WAT     H164652   7.158   3.023   2.448
21470WAT     H264653   7.211   3.171   2.403
21471WAT      O64654   7.080   7.407   4.419
21471WAT     H164655   7.056   7.312   4.434
21471WAT     H264656   7.008   7.466   4.456
21472WAT      O64657   8.360   9.397   1.231
21472WAT     H164658   8.286   9.429   1.289
21472WAT     H264659   8.352   9.298   1.218
21473WAT      O64660   7.952   9.483   6.578
21473WAT     H164661   8.031   9.428   6.606
21473WAT     H264662   7.906   9.440   6.501
21474WAT      O64663   7.906   0.214   5.520
21474WAT     H164664   7.892   0.116   5.533
21474WAT     H264665   7.886   0.262   5.606
21475WAT      O64666   0.103   5.848   9.635
21475WAT     H164667   0.079   5.946   9.633
21475WAT     H264668   0.040   5.800   9.696
21476WAT      O64669   3.232   5.244   1.026
21476WAT     H164670   3.274   5.242   1.117
21476WAT     H264671   3.295   5.283   0.960
21477WAT      O64672   8.980   8.503   9.462
21477WAT     H164673   9.029   8.448   9.530
21477WAT     H264674   8.951   8.444   9.387
21478WAT      O64675   7.245   2.538   8.316
21478WAT     H164676   7.332   2.495   8.340
21478WAT     H264677   7.260   2.600   8.239
21479WAT      O64678   2.319   9.236   7.155
21479WAT     H164679   2.368   9.211   7.071
21479WAT     H264680   2.221   9.217   7.143
21480WAT      O64681   5.961   3.095   3.545
21480WAT     H164682   5.919   3.171   3.594
21480WAT     H264683   5.998   3.127   3.458
21481WAT      O64684   1.222   6.412   5.947
21481WAT     H164685   1.280   6.409   5.865
21481WAT     H264686   1.271   6.460   6.020
21482WAT      O64687   7.075   5.377   7.277
21482WAT     H164688   6.988   5.426   7.284
21482WAT     H264689   7.150   5.443   7.273
21483WAT      O64690   3.650   3.916   6.813
21483WAT     H164691   3.599   3.876   6.737
21483WAT     H264692   3.748   3.903   6.799
21484WAT      O64693   6.748   2.833   5.517
21484WAT     H164694   6.723   2.903   5.584
21484WAT     H264695   6.666   2.785   5.486
21485WAT      O64696   0.775   4.933   2.511
21485WAT     H164697   0.746   4.854   2.564
21485WAT     H264698   0.840   4.987   2.565
21486WAT      O64699   1.135   6.062   5.397
21486WAT     H164700   1.213   6.099   5.447
21486WAT     H264701   1.168   6.002   5.323
21487WAT      O64702   2.859   7.975   3.092
21487WAT     H164703   2.927   8.018   3.033
21487WAT     H264704   2.905   7.927   3.166
21488WAT      O64705   7.781   4.520   1.800
21488WAT     H164706   7.724   4.529   1.718
21488WAT     H264707   7.840   4.441   1.791
21489WAT      O64708   9.209   1.118   5.427
21489WAT     H164709   9.245   1.026   5.413
21489WAT     H264710   9.278   1.185   5.400
21490WAT      O64711   9.502   5.675   2.666
21490WAT     H164712   9.524   5.644   2.759
21490WAT     H264713   9.507   5.775   2.662
21491WAT      O64714   3.525   3.821   1.679
21491WAT     H164715   3.532   3.762   1.599
21491WAT     H264716   3.553   3.770   1.761
21492WAT      O64717   0.850   2.727   7.231
21492WAT     H164718   0.854   2.814   7.180
21492WAT     H264719   0.936   2.678   7.219
21493WAT      O64720   8.804   6.475   9.195
21493WAT     H164721   8.881   6.538   9.197
21493WAT     H264722   8.779   6.450   9.289
21494WAT      O64723   9.021   6.627   5.673
21494WAT     H164724   8.989   6.603   5.581
21494WAT     H264725   8.960   6.589   5.741
21495WAT      O64726   0.023   8.842   5.379
21495WAT     H164727   0.075   8.765   5.417
21495WAT     H264728   0.084   8.919   5.362
21496WAT      O64729   0.648   1.899   6.250
21496WAT     H164730   0.589   1.835   6.299
21496WAT     H264731   0.743   1.886   6.279
21497WAT      O64732   9.105   2.953   9.559
21497WAT     H164733   9.077   2.871   9.610
21497WAT     H264734   9.205   2.960   9.561
21498WAT      O64735   5.796   5.193   3.199
21498WAT     H164736   5.848   5.124   3.148
21498WAT     H264737   5.811   5.180   3.297
21499WAT      O64738   2.689   5.430   2.594
21499WAT     H164739   2.650   5.402   2.683
21499WAT     H264740   2.778   5.387   2.582
21500WAT      O64741   1.041   4.996   7.518
21500WAT     H164742   1.050   5.087   7.558
21500WAT     H264743   0.980   4.940   7.574
21501WAT      O64744   4.579   6.241   1.753
21501WAT     H164745   4.635   6.323   1.743
21501WAT     H264746   4.556   6.227   1.849
21502WAT      O64747   8.988   1.190   7.262
21502WAT     H164748   8.914   1.159   7.202
21502WAT     H264749   8.954   1.264   7.321
21503WAT      O64750   4.468   0.812   5.163
21503WAT     H164751   4.559   0.790   5.197
21503WAT     H264752   4.444   0.905   5.188
21504WAT      O64753   1.890   5.880   6.109
21504WAT     H164754   1.822   5.870   6.036
21504WAT     H264755   1.975   5.835   6.081
21505WAT      O64756   7.106   1.377   6.396
21505WAT     H164757   7.155   1.347   6.314
21505WAT     H264758   7.172   1.393   6.470
21506WAT      O64759   4.588   3.877   0.892
21506WAT     H164760   4.520   3.859   0.820
21506WAT     H264761   4.641   3.958   0.868
21507WAT      O64762   7.092   8.793   5.205
21507WAT     H164763   7.063   8.789   5.109
21507WAT     H264764   7.096   8.889   5.234
21508WAT      O64765   4.144   6.571   6.084
21508WAT     H164766   4.228   6.615   6.114
21508WAT     H264767   4.119   6.604   5.993
21509WAT      O64768   2.637   5.318   9.549
21509WAT     H164769   2.565   5.370   9.502
21509WAT     H264770   2.606   5.292   9.640
21510WAT      O64771   2.050   3.433   7.512
21510WAT     H164772   1.960   3.403   7.544
21510WAT     H264773   2.120   3.371   7.548
21511WAT      O64774   5.470   0.294   1.158
21511WAT     H164775   5.502   0.212   1.205
21511WAT     H264776   5.508   0.375   1.203
21512WAT      O64777   5.238   6.583   7.219
21512WAT     H164778   5.254   6.485   7.206
21512WAT     H264779   5.314   6.622   7.270
21513WAT      O64780   6.661   4.822   9.033
21513WAT     H164781   6.633   4.738   9.079
21513WAT     H264782   6.729   4.800   8.963
21514WAT      O64783   3.991   0.205   2.108
21514WAT     H164784   4.016   0.216   2.012
21514WAT     H264785   4.054   0.258   2.165
21515WAT      O64786   3.507   8.477   8.860
21515WAT     H164787   3.463   8.450   8.775
21515WAT     H264788   3.577   8.410   8.884
21516WAT      O64789   7.464   2.645   6.013
21516WAT     H164790   7.439   2.713   6.082
21516WAT     H264791   7.486   2.559   6.058
21517WAT      O64792   5.927   3.819   2.484
21517WAT     H164793   5.937   3.859   2.393
21517WAT     H264794   5.897   3.889   2.548
21518WAT      O64795   6.512   8.961   1.381
21518WAT     H164796   6.448   9.038   1.375
21518WAT     H264797   6.524   8.935   1.476
21519WAT      O64798   4.319   5.743   2.643
21519WAT     H164799   4.277   5.809   2.581
21519WAT     H264800   4.257   5.724   2.719
21520WAT      O64801   3.034   2.260   8.554
21520WAT     H164802   3.124   2.219   8.560
21520WAT     H264803   3.015   2.285   8.458
21521WAT      O64804   4.500   9.571   1.560
21521WAT     H164805   4.500   9.486   1.613
21521WAT     H264806   4.524   9.648   1.620
21522WAT      O64807   4.433   4.367   6.990
21522WAT     H164808   4.484   4.430   6.931
21522WAT     H264809   4.352   4.334   6.942
21523WAT      O64810   4.173   6.005   0.722
21523WAT     H164811   4.084   6.023   0.678
21523WAT     H264812   4.242   6.065   0.682
21524WAT      O64813   0.664   3.080   1.389
21524WAT     H164814   0.739   3.029   1.347
21524WAT     H264815   0.616   3.021   1.454
21525WAT      O64816   2.488   5.184   8.502
21525WAT     H164817   2.409   5.239   8.474
21525WAT     H264818   2.458   5.111   8.563
21526WAT      O64819   9.336   7.392   6.456
21526WAT     H164820   9.250   7.399   6.406
21526WAT     H264821   9.412   7.410   6.394
21527WAT      O64822   4.454   3.035   9.801
21527WAT     H164823   4.389   3.029   9.876
21527WAT     H264824   4.547   3.027   9.837
21528WAT      O64825   2.623   3.236   9.111
21528WAT     H164826   2.603   3.333   9.127
21528WAT     H264827   2.673   3.226   9.025
21529WAT      O64828   6.825   9.173   8.375
21529WAT     H164829   6.859   9.080   8.380
21529WAT     H264830   6.902   9.237   8.377
21530WAT      O64831   2.701   3.037   7.729
21530WAT     H164832   2.655   3.061   7.644
21530WAT     H264833   2.646   3.067   7.807
21531WAT      O64834   1.768   2.723   8.730
21531WAT     H164835   1.728   2.700   8.641
21531WAT     H264836   1.858   2.681   8.739
21532WAT      O64837   0.299   8.672   5.454
21532WAT     H164838   0.232   8.619   5.506
21532WAT     H264839   0.277   8.666   5.356
21533WAT      O64840   6.124   9.241   9.759
21533WAT     H164841   6.055   9.184   9.714
21533WAT     H264842   6.092   9.266   9.850
21534WAT      O64843   5.807   5.811   7.394
21534WAT     H164844   5.768   5.799   7.485
21534WAT     H264845   5.742   5.777   7.325
21535WAT      O64846   7.330   8.830   7.236
21535WAT     H164847   7.381   8.766   7.293
21535WAT     H264848   7.263   8.878   7.293
21536WAT      O64849   5.672   3.793   7.577
21536WAT     H164850   5.736   3.864   7.549
21536WAT     H264851   5.706   3.703   7.547
21537WAT      O64852   8.280   8.245   7.545
21537WAT     H164853   8.331   8.253   7.460
21537WAT     H264854   8.200   8.304   7.542
21538WAT      O64855   0.880   6.374   4.827
21538WAT     H164856   0.943   6.297   4.814
21538WAT     H264857   0.932   6.458   4.841
21539WAT      O64858   0.288   1.250   3.914
21539WAT     H164859   0.202   1.267   3.962
21539WAT     H264860   0.349   1.196   3.973
21540WAT      O64861   9.412   7.754   4.300
21540WAT     H164862   9.495   7.766   4.355
21540WAT     H264863   9.358   7.838   4.301
21541WAT      O64864   0.346   8.353   8.429
21541WAT     H164865   0.365   8.428   8.492
21541WAT     H264866   0.289   8.285   8.474
21542WAT      O64867   4.984   1.290   1.019
21542WAT     H164868   5.060   1.321   1.076
21542WAT     H264869   5.007   1.304   0.922
21543WAT      O64870   3.908   7.862   0.526
21543WAT     H164871   3.809   7.854   0.512
21543WAT     H264872   3.955   7.784   0.484
21544WAT      O64873   2.107   7.150   8.016
21544WAT     H164874   2.169   7.228   8.010
21544WAT     H264875   2.033   7.170   8.079
21545WAT      O64876   4.153   6.227   9.075
21545WAT     H164877   4.190   6.298   9.134
21545WAT     H264878   4.212   6.147   9.077
21546WAT      O64879   6.623   7.558   1.605
21546WAT     H164880   6.682   7.530   1.530
21546WAT     H264881   6.592   7.477   1.654
21547WAT      O64882   5.503   2.542   0.572
21547WAT     H164883   5.457   2.463   0.614
21547WAT     H264884   5.600   2.522   0.561
21548WAT      O64885   6.831   0.833   4.180
21548WAT     H164886   6.908   0.777   4.151
21548WAT     H264887   6.851   0.929   4.160
21549WAT      O64888   9.271   7.960   6.973
21549WAT     H164889   9.304   8.053   6.961
21549WAT     H264890   9.235   7.926   6.887
21550WAT      O64891   6.753   0.326   1.942
21550WAT     H164892   6.700   0.316   2.026
21550WAT     H264893   6.712   0.398   1.886
21551WAT      O64894   8.323   7.148   2.729
21551WAT     H164895   8.359   7.084   2.662
21551WAT     H264896   8.298   7.099   2.813
21552WAT      O64897   6.562   6.056   2.459
21552WAT     H164898   6.522   5.991   2.395
21552WAT     H264899   6.601   6.133   2.409
21553WAT      O64900   0.855   1.461   3.773
21553WAT     H164901   0.925   1.502   3.715
21553WAT     H264902   0.771   1.447   3.721
21554WAT      O64903   3.366   7.415   0.904
21554WAT     H164904   3.447   7.473   0.913
21554WAT     H264905   3.376   7.335   0.962
21555WAT      O64906   4.890   2.524   7.098
21555WAT     H164907   4.899   2.590   7.172
21555WAT     H264908   4.870   2.433   7.135
21556WAT      O64909   9.325   7.361   7.510
21556WAT     H164910   9.275   7.282   7.476
21556WAT     H264911   9.422   7.351   7.488
21557WAT      O64912   9.214   4.691   3.923
21557WAT     H164913   9.278   4.695   3.847
21557WAT     H264914   9.210   4.598   3.959
21558WAT      O64915   1.135   0.652   6.462
21558WAT     H164916   1.137   0.723   6.532
21558WAT     H264917   1.112   0.692   6.373
21559WAT      O64918   9.108   5.200   1.649
21559WAT     H164919   9.086   5.185   1.553
21559WAT     H264920   9.034   5.252   1.692
21560WAT      O64921   1.751   4.786   3.043
21560WAT     H164922   1.834   4.783   2.988
21560WAT     H264923   1.673   4.758   2.988
21561WAT      O64924   1.524   5.155   3.080
21561WAT     H164925   1.581   5.177   3.160
21561WAT     H264926   1.468   5.234   3.056
21562WAT      O64927   8.373   6.959   8.218
21562WAT     H164928   8.419   6.932   8.302
21562WAT     H264929   8.364   6.879   8.158
21563WAT      O64930   4.174   7.849   1.658
21563WAT     H164931   4.261   7.888   1.689
21563WAT     H264932   4.126   7.916   1.602
21564WAT      O64933   6.545   8.231   3.447
21564WAT     H164934   6.532   8.141   3.489
21564WAT     H264935   6.515   8.227   3.352
21565WAT      O64936   5.732   6.212   5.411
21565WAT     H164937   5.747   6.294   5.466
21565WAT     H264938   5.744   6.130   5.468
21566WAT      O64939   4.541   8.164   4.870
21566WAT     H164940   4.618   8.113   4.833
21566WAT     H264941   4.529   8.250   4.819
21567WAT      O64942   8.682   6.061   7.361
21567WAT     H164943   8.652   5.970   7.333
21567WAT     H264944   8.780   6.071   7.344
21568WAT      O64945   1.274   6.090   0.734
21568WAT     H164946   1.199   6.065   0.795
21568WAT     H264947   1.349   6.129   0.789
21569WAT      O64948   4.796   5.803   2.779
21569WAT     H164949   4.772   5.753   2.697
21569WAT     H264950   4.734   5.778   2.854
21570WAT      O64951   8.195   1.726   0.444
21570WAT     H164952   8.211   1.709   0.346
21570WAT     H264953   8.136   1.806   0.454
21571WAT      O64954   6.140   0.810   3.858
21571WAT     H164955   6.205   0.734   3.850
21571WAT     H264956   6.116   0.823   3.954
21572WAT      O64957   7.281   1.901   6.164
21572WAT     H164958   7.234   1.934   6.245
21572WAT     H264959   7.278   1.801   6.162
21573WAT      O64960   8.534   7.818   2.493
21573WAT     H164961   8.454   7.833   2.551
21573WAT     H264962   8.554   7.720   2.488
21574WAT      O64963   0.927   2.451   3.387
21574WAT     H164964   1.007   2.461   3.328
21574WAT     H264965   0.876   2.369   3.360
21575WAT      O64966   3.847   4.550   0.558
21575WAT     H164967   3.853   4.648   0.576
21575WAT     H264968   3.761   4.530   0.511
21576WAT      O64969   0.681   6.643   5.805
21576WAT     H164970   0.617   6.628   5.880
21576WAT     H264971   0.757   6.700   5.838
21577WAT      O64972   5.731   1.515   1.444
21577WAT     H164973   5.674   1.455   1.388
21577WAT     H264974   5.687   1.528   1.533
21578WAT      O64975   4.217   9.687   5.401
21578WAT     H164976   4.205   9.611   5.465
21578WAT     H264977   4.313   9.715   5.401
21579WAT      O64978   8.748   0.553   4.558
21579WAT     H164979   8.684   0.625   4.586
21579WAT     H264980   8.713   0.464   4.588
21580WAT      O64981   4.469   5.886   6.196
21580WAT     H164982   4.484   5.929   6.106
21580WAT     H264983   4.399   5.815   6.188
21581WAT      O64984   6.952   4.124   0.546
21581WAT     H164985   6.996   4.079   0.467
21581WAT     H264986   6.928   4.055   0.614
21582WAT      O64987   5.276   5.537   5.912
21582WAT     H164988   5.248   5.441   5.913
21582WAT     H264989   5.276   5.572   6.006
21583WAT      O64990   2.806   6.317   1.221
21583WAT     H164991   2.831   6.223   1.197
21583WAT     H264992   2.769   6.363   1.140
21584WAT      O64993   4.525   8.292   3.613
21584WAT     H164994   4.501   8.340   3.697
21584WAT     H264995   4.541   8.358   3.540
21585WAT      O64996   5.955   0.357   6.508
21585WAT     H164997   5.941   0.350   6.607
21585WAT     H264998   5.996   0.445   6.486
21586WAT      O64999   3.086   8.663   6.866
21586WAT     H165000   3.083   8.592   6.937
21586WAT     H265001   3.049   8.625   6.780
21587WAT      O65002   9.714   7.883   9.196
21587WAT     H165003   9.795   7.861   9.141
21587WAT     H265004   9.642   7.919   9.137
21588WAT      O65005   2.125   4.950   6.666
21588WAT     H165006   2.040   4.927   6.713
21588WAT     H265007   2.203   4.927   6.726
21589WAT      O65008   4.169   6.967   0.499
21589WAT     H165009   4.145   7.060   0.529
21589WAT     H265010   4.166   6.905   0.578
21590WAT      O65011   0.702   8.923   2.529
21590WAT     H165012   0.735   8.988   2.597
21590WAT     H265013   0.728   8.830   2.557
21591WAT      O65014   4.087   2.566   5.525
21591WAT     H165015   4.026   2.501   5.570
21591WAT     H265016   4.148   2.607   5.593
21592WAT      O65017   2.602   1.073   2.350
21592WAT     H165018   2.541   1.150   2.368
21592WAT     H265019   2.697   1.105   2.350
21593WAT      O65020   4.203   0.353   2.226
21593WAT     H165021   4.277   0.369   2.161
21593WAT     H265022   4.235   0.291   2.298
21594WAT      O65023   7.250   2.180   5.180
21594WAT     H165024   7.154   2.165   5.204
21594WAT     H265025   7.258   2.194   5.081
21595WAT      O65026   7.840   8.518   2.011
21595WAT     H165027   7.875   8.612   2.000
21595WAT     H265028   7.913   8.460   2.045
21596WAT      O65029   1.028   9.016   6.730
21596WAT     H165030   1.096   9.027   6.658
21596WAT     H265031   0.939   8.997   6.688
21597WAT      O65032   9.340   1.346   5.346
21597WAT     H165033   9.386   1.422   5.394
21597WAT     H265034   9.363   1.351   5.249
21598WAT      O65035   2.288   5.919   7.091
21598WAT     H165036   2.303   5.855   7.016
21598WAT     H265037   2.371   5.926   7.146
21599WAT      O65038   3.903   7.102   5.379
21599WAT     H165039   3.826   7.083   5.439
21599WAT     H265040   3.934   7.017   5.336
21600WAT      O65041   6.336   6.195   7.657
21600WAT     H165042   6.315   6.097   7.665
21600WAT     H265043   6.379   6.213   7.569
21601WAT      O65044   2.725   4.388   2.584
21601WAT     H165045   2.651   4.405   2.650
21601WAT     H265046   2.739   4.469   2.527
21602WAT      O65047   5.955   9.167   9.366
21602WAT     H165048   5.858   9.186   9.379
21602WAT     H265049   5.973   9.071   9.385
21603WAT      O65050   0.863   8.003   4.261
21603WAT     H165051   0.910   8.091   4.276
21603WAT     H265052   0.825   7.970   4.348
21604WAT      O65053   6.835   3.112   0.119
21604WAT     H165054   6.797   3.026   0.152
21604WAT     H265055   6.766   3.184   0.124
21605WAT      O65056   1.288   0.621   4.071
21605WAT     H165057   1.366   0.676   4.043
21605WAT     H265058   1.235   0.670   4.140
21606WAT      O65059   8.649   3.511   3.849
21606WAT     H165060   8.668   3.443   3.921
21606WAT     H265061   8.676   3.473   3.761
21607WAT      O65062   6.125   9.279   1.429
21607WAT     H165063   6.064   9.350   1.466
21607WAT     H265064   6.171   9.233   1.505
21608WAT      O65065   3.535   9.601   0.936
21608WAT     H165066   3.504   9.696   0.939
21608WAT     H265067   3.546   9.567   1.029
21609WAT      O65068   0.171   8.964   7.228
21609WAT     H165069   0.202   9.049   7.270
21609WAT     H265070   0.244   8.925   7.173
21610WAT      O65071   1.949   6.247   0.274
21610WAT     H165072   1.857   6.242   0.235
21610WAT     H265073   1.982   6.342   0.269
21611WAT      O65074   7.770   3.274   7.892
21611WAT     H165075   7.780   3.361   7.939
21611WAT     H265076   7.757   3.201   7.958
21612WAT      O65077   8.771   0.057   6.262
21612WAT     H165078   8.805  -0.036   6.269
21612WAT     H265079   8.751   0.078   6.166
21613WAT      O65080   1.153   0.223   1.856
21613WAT     H165081   1.225   0.286   1.826
21613WAT     H265082   1.064   0.269   1.847
21614WAT      O65083   0.045   8.434   8.441
21614WAT     H165084   0.092   8.458   8.357
21614WAT     H265085  -0.028   8.500   8.458
21615WAT      O65086   1.233   4.872   7.382
21615WAT     H165087   1.145   4.903   7.416
21615WAT     H265088   1.220   4.812   7.303
21616WAT      O65089   9.104   1.597   7.437
21616WAT     H165090   9.042   1.671   7.411
21616WAT     H265091   9.124   1.603   7.535
21617WAT      O65092   6.736   5.371   0.466
21617WAT     H165093   6.697   5.286   0.498
21617WAT     H265094   6.667   5.443   0.469
21618WAT      O65095   7.691   0.436   7.917
21618WAT     H165096   7.756   0.364   7.894
21618WAT     H265097   7.658   0.424   8.010
21619WAT      O65098   1.615   8.468   3.664
21619WAT     H165099   1.528   8.437   3.701
21619WAT     H265100   1.685   8.463   3.735
21620WAT      O65101   8.750   5.067   0.454
21620WAT     H165102   8.834   5.031   0.495
21620WAT     H265103   8.674   5.055   0.518
21621WAT      O65104   1.899   8.876   1.981
21621WAT     H165105   1.905   8.894   1.883
21621WAT     H265106   1.873   8.781   1.996
21622WAT      O65107   5.863   0.010   7.262
21622WAT     H165108   5.945   0.065   7.245
21622WAT     H265109   5.795   0.030   7.191
21623WAT      O65110   7.572   1.740   0.238
21623WAT     H165111   7.534   1.738   0.331
21623WAT     H265112   7.502   1.713   0.172
21624WAT      O65113   2.198   9.069   0.599
21624WAT     H165114   2.275   9.045   0.540
21624WAT     H265115   2.227   9.139   0.665
21625WAT      O65116   7.548   4.426   7.213
21625WAT     H165117   7.475   4.397   7.275
21625WAT     H265118   7.603   4.497   7.257
21626WAT      O65119   6.992   8.387   5.095
21626WAT     H165120   6.954   8.322   5.029
21626WAT     H265121   7.046   8.456   5.047
21627WAT      O65122   4.738   8.099   5.494
21627WAT     H165123   4.837   8.116   5.496
21627WAT     H265124   4.704   8.087   5.587
21628WAT      O65125   4.846   3.533   7.791
21628WAT     H165126   4.784   3.487   7.727
21628WAT     H265127   4.840   3.632   7.778
21629WAT      O65128   7.581   2.620   2.119
21629WAT     H165129   7.538   2.540   2.161
21629WAT     H265130   7.511   2.688   2.096
21630WAT      O65131   9.427   1.547   8.445
21630WAT     H165132   9.478   1.535   8.530
21630WAT     H265133   9.330   1.563   8.465
21631WAT      O65134   9.121   1.578   8.452
21631WAT     H165135   9.155   1.653   8.394
21631WAT     H265136   9.047   1.613   8.511
21632WAT      O65137   6.379   0.369   0.958
21632WAT     H165138   6.379   0.431   0.879
21632WAT     H265139   6.377   0.424   1.042
21633WAT      O65140   7.287   2.468   5.915
21633WAT     H165141   7.328   2.407   5.846
21633WAT     H265142   7.350   2.543   5.935
21634WAT      O65143   9.640   1.903   6.102
21634WAT     H165144   9.652   1.922   6.004
21634WAT     H265145   9.720   1.934   6.152
21635WAT      O65146   2.977   8.228   9.761
21635WAT     H165147   3.072   8.200   9.746
21635WAT     H265148   2.921   8.147   9.774
21636WAT      O65149   2.549   1.289   3.554
21636WAT     H165150   2.640   1.251   3.536
21636WAT     H265151   2.480   1.239   3.502
21637WAT      O65152   1.757   3.093   7.668
21637WAT     H165153   1.674   3.109   7.721
21637WAT     H265154   1.827   3.159   7.695
21638WAT      O65155   9.353   6.542   6.143
21638WAT     H165156   9.421   6.604   6.105
21638WAT     H265157   9.339   6.466   6.079
21639WAT      O65158   3.696   7.464   7.288
21639WAT     H165159   3.735   7.396   7.350
21639WAT     H265160   3.597   7.462   7.293
21640WAT      O65161   9.510   4.408   6.814
21640WAT     H165162   9.532   4.327   6.868
21640WAT     H265163   9.427   4.451   6.852
21641WAT      O65164   1.109   2.119   2.360
21641WAT     H165165   1.112   2.043   2.294
21641WAT     H265166   1.103   2.206   2.311
21642WAT      O65167   8.065   9.390   9.007
21642WAT     H165168   8.037   9.315   9.067
21642WAT     H265169   8.110   9.461   9.063
21643WAT      O65170   3.587   8.874   2.521
21643WAT     H165171   3.669   8.850   2.572
21643WAT     H265172   3.530   8.935   2.576
21644WAT      O65173   6.317   5.860   3.888
21644WAT     H165174   6.254   5.931   3.856
21644WAT     H265175   6.369   5.895   3.966
21645WAT      O65176   0.124   5.853   5.158
21645WAT     H165177   0.151   5.855   5.062
21645WAT     H265178   0.161   5.933   5.205
21646WAT      O65179   5.139   7.847   8.069
21646WAT     H165180   5.121   7.789   8.149
21646WAT     H265181   5.080   7.928   8.073
21647WAT      O65182   6.303   4.234   2.083
21647WAT     H165183   6.268   4.192   1.999
21647WAT     H265184   6.402   4.247   2.074
21648WAT      O65185   4.652   2.783   4.242
21648WAT     H165186   4.602   2.697   4.234
21648WAT     H265187   4.710   2.795   4.161
21649WAT      O65188   1.373   0.790   3.819
21649WAT     H165189   1.441   0.782   3.892
21649WAT     H265190   1.356   0.700   3.779
21650WAT      O65191   4.695   0.666   8.783
21650WAT     H165192   4.757   0.601   8.827
21650WAT     H265193   4.640   0.619   8.714
21651WAT      O65194   4.994   7.391   3.955
21651WAT     H165195   4.996   7.407   3.857
21651WAT     H265196   5.073   7.335   3.982
21652WAT      O65197   5.628   2.277   1.043
21652WAT     H165198   5.587   2.256   1.132
21652WAT     H265199   5.565   2.334   0.990
21653WAT      O65200   0.344   9.146   3.913
21653WAT     H165201   0.303   9.066   3.869
21653WAT     H265202   0.438   9.158   3.881
21654WAT      O65203   8.658   4.830   1.210
21654WAT     H165204   8.571   4.878   1.215
21654WAT     H265205   8.732   4.895   1.195
21655WAT      O65206   3.604   8.991   8.132
21655WAT     H165207   3.561   9.065   8.184
21655WAT     H265208   3.677   8.950   8.187
21656WAT      O65209   9.310   9.248   1.492
21656WAT     H165210   9.366   9.182   1.543
21656WAT     H265211   9.355   9.271   1.406
21657WAT      O65212   0.531   4.910   8.536
21657WAT     H165213   0.537   4.927   8.634
21657WAT     H265214   0.468   4.834   8.519
21658WAT      O65215   9.612   2.410   5.080
21658WAT     H165216   9.619   2.338   5.148
21658WAT     H265217   9.694   2.468   5.083
21659WAT      O65218   8.117   6.485   1.076
21659WAT     H165219   8.019   6.505   1.082
21659WAT     H265220   8.153   6.521   0.990
21660WAT      O65221   6.044   5.147   2.829
21660WAT     H165222   6.018   5.175   2.736
21660WAT     H265223   6.056   5.228   2.886
21661WAT      O65224   0.959   8.439   0.432
21661WAT     H165225   1.014   8.358   0.412
21661WAT     H265226   0.966   8.461   0.529
21662WAT      O65227   8.676   5.989   9.494
21662WAT     H165228   8.664   5.946   9.405
21662WAT     H265229   8.586   6.006   9.536
21663WAT      O65230   2.194   1.778   9.611
21663WAT     H165231   2.255   1.709   9.649
21663WAT     H265232   2.121   1.733   9.559
21664WAT      O65233   4.998   5.099   9.294
21664WAT     H165234   4.991   5.005   9.260
21664WAT     H265235   5.095   5.124   9.301
21665WAT      O65236   1.536   2.731   4.082
21665WAT     H165237   1.506   2.683   4.164
21665WAT     H265238   1.459   2.741   4.019
21666WAT      O65239   5.053   8.324   2.499
21666WAT     H165240   5.081   8.408   2.545
21666WAT     H265241   5.045   8.251   2.567
21667WAT      O65242   7.582   8.198   0.101
21667WAT     H165243   7.670   8.233   0.068
21667WAT     H265244   7.508   8.240   0.048
21668WAT      O65245   7.336   8.599   5.176
21668WAT     H165246   7.272   8.675   5.189
21668WAT     H265247   7.321   8.557   5.087
21669WAT      O65248   3.241   7.281   6.880
21669WAT     H165249   3.170   7.347   6.901
21669WAT     H265250   3.241   7.207   6.947
21670WAT      O65251   4.265   6.474   1.554
21670WAT     H165252   4.349   6.502   1.507
21670WAT     H265253   4.188   6.527   1.519
21671WAT      O65254   8.169   0.230   9.833
21671WAT     H165255   8.213   0.154   9.883
21671WAT     H265256   8.224   0.312   9.842
21672WAT      O65257   0.857   8.455   6.028
21672WAT     H165258   0.769   8.497   6.050
21672WAT     H265259   0.852   8.356   6.044
21673WAT      O65260   2.591   6.440   1.360
21673WAT     H165261   2.673   6.405   1.313
21673WAT     H265262   2.619   6.487   1.444
21674WAT      O65263   0.745   2.399   4.110
21674WAT     H165264   0.702   2.392   4.020
21674WAT     H265265   0.836   2.358   4.106
21675WAT      O65266   2.032   3.302   8.609
21675WAT     H165267   2.089   3.243   8.552
21675WAT     H265268   1.969   3.247   8.663
21676WAT      O65269   4.116   3.671   1.978
21676WAT     H165270   4.122   3.615   2.061
21676WAT     H265271   4.021   3.701   1.966
21677WAT      O65272   3.159   3.913   8.552
21677WAT     H165273   3.232   3.854   8.585
21677WAT     H265274   3.133   3.884   8.459
21678WAT      O65275   8.126   0.746   4.637
21678WAT     H165276   8.045   0.750   4.579
21678WAT     H265277   8.166   0.837   4.647
21679WAT      O65278   3.459   4.188   9.132
21679WAT     H165279   3.419   4.201   9.223
21679WAT     H265280   3.506   4.100   9.129
21680WAT      O65281   1.107   1.947   8.253
21680WAT     H165282   1.117   1.848   8.249
21680WAT     H265283   1.011   1.971   8.269
21681WAT      O65284   1.571   5.285   7.281
21681WAT     H165285   1.501   5.216   7.296
21681WAT     H265286   1.608   5.276   7.188
21682WAT      O65287   1.591   8.887   4.353
21682WAT     H165288   1.493   8.885   4.330
21682WAT     H265289   1.631   8.797   4.336
21683WAT      O65290   2.722   2.760   6.594
21683WAT     H165291   2.630   2.734   6.563
21683WAT     H265292   2.719   2.783   6.691
21684WAT      O65293   2.632   3.341   6.930
21684WAT     H165294   2.550   3.342   6.874
21684WAT     H265295   2.712   3.364   6.874
21685WAT      O65296   0.581   1.470   3.055
21685WAT     H165297   0.667   1.444   3.097
21685WAT     H265298   0.549   1.557   3.094
21686WAT      O65299   9.608   1.616   0.533
21686WAT     H165300   9.601   1.642   0.437
21686WAT     H265301   9.681   1.669   0.576
21687WAT      O65302   4.677   5.712   5.960
21687WAT     H165303   4.705   5.705   6.055
21687WAT     H265304   4.697   5.804   5.925
21688WAT      O65305   0.778   4.852   5.164
21688WAT     H165306   0.751   4.832   5.070
21688WAT     H265307   0.878   4.850   5.172
21689WAT      O65308   5.324   1.482   8.467
21689WAT     H165309   5.353   1.401   8.417
21689WAT     H265310   5.363   1.564   8.424
21690WAT      O65311   3.234   8.660   0.353
21690WAT     H165312   3.169   8.587   0.373
21690WAT     H265313   3.204   8.744   0.399
21691WAT      O65314   1.613   6.408   2.787
21691WAT     H165315   1.614   6.504   2.759
21691WAT     H265316   1.700   6.366   2.763
21692WAT      O65317   7.340   1.354   0.120
21692WAT     H165318   7.262   1.397   0.075
21692WAT     H265319   7.320   1.343   0.218
21693WAT      O65320   2.329   2.382   6.225
21693WAT     H165321   2.396   2.452   6.251
21693WAT     H265322   2.244   2.398   6.274
21694WAT      O65323   4.258   7.365   4.770
21694WAT     H165324   4.262   7.463   4.787
21694WAT     H265325   4.337   7.320   4.812
21695WAT      O65326   3.047   0.105   3.911
21695WAT     H165327   3.117   0.035   3.898
21695WAT     H265328   2.986   0.079   3.985
21696WAT      O65329   5.026   0.150   7.230
21696WAT     H165330   5.041   0.154   7.131
21696WAT     H265331   4.928   0.142   7.249
21697WAT      O65332   2.707   1.092   2.980
21697WAT     H165333   2.732   1.009   2.931
21697WAT     H265334   2.660   1.155   2.918
21698WAT      O65335   9.813   1.627   2.219
21698WAT     H165336   9.768   1.561   2.159
21698WAT     H265337   9.857   1.698   2.163
21699WAT      O65338   9.698   0.316   6.989
21699WAT     H165339   9.614   0.268   7.014
21699WAT     H265340   9.676   0.402   6.945
21700WAT      O65341   6.389   8.935   6.966
21700WAT     H165342   6.389   8.904   7.061
21700WAT     H265343   6.473   8.987   6.948
21701WAT      O65344   1.339   2.271   1.014
21701WAT     H165345   1.333   2.313   0.923
21701WAT     H265346   1.270   2.199   1.022
21702WAT      O65347   2.678   3.222   2.078
21702WAT     H165348   2.702   3.141   2.025
21702WAT     H265349   2.644   3.294   2.017
21703WAT      O65350   2.470   0.868   8.161
21703WAT     H165351   2.483   0.771   8.142
21703WAT     H265352   2.548   0.920   8.127
21704WAT      O65353   8.104   2.652   8.336
21704WAT     H165354   8.172   2.708   8.289
21704WAT     H265355   8.048   2.711   8.395
21705WAT      O65356   9.718   9.191   9.257
21705WAT     H165357   9.712   9.262   9.187
21705WAT     H265358   9.635   9.136   9.256
21706WAT      O65359   9.681   4.033   7.393
21706WAT     H165360   9.768   4.064   7.354
21706WAT     H265361   9.647   4.101   7.458
21707WAT      O65362   6.668   5.465   5.646
21707WAT     H165363   6.654   5.542   5.584
21707WAT     H265364   6.597   5.466   5.716
21708WAT      O65365   5.754   0.956   2.597
21708WAT     H165366   5.761   0.870   2.648
21708WAT     H265367   5.763   0.938   2.499
21709WAT      O65368   0.311   9.752   8.046
21709WAT     H165369   0.405   9.742   8.081
21709WAT     H265370   0.267   9.830   8.089
21710WAT      O65371   3.791   0.416   2.657
21710WAT     H165372   3.746   0.364   2.584
21710WAT     H265373   3.812   0.355   2.734
21711WAT      O65374   3.658   7.218   3.646
21711WAT     H165375   3.650   7.308   3.605
21711WAT     H265376   3.658   7.148   3.574
21712WAT      O65377   9.521   8.160   3.939
21712WAT     H165378   9.591   8.210   3.888
21712WAT     H265379   9.473   8.223   4.000
21713WAT      O65380   8.785   2.876   1.667
21713WAT     H165381   8.841   2.807   1.712
21713WAT     H265382   8.841   2.957   1.648
21714WAT      O65383   5.083   3.713   3.380
21714WAT     H165384   5.069   3.680   3.287
21714WAT     H265385   5.001   3.693   3.435
21715WAT      O65386   7.874   7.723   4.189
21715WAT     H165387   7.933   7.708   4.269
21715WAT     H265388   7.886   7.817   4.157
21716WAT      O65389   8.719   3.851   1.419
21716WAT     H165390   8.681   3.781   1.480
21716WAT     H265391   8.690   3.832   1.325
21717WAT      O65392   4.548   6.946   4.344
21717WAT     H165393   4.608   6.977   4.418
21717WAT     H265394   4.475   6.889   4.381
21718WAT      O65395   3.833   7.280   3.130
21718WAT     H165396   3.733   7.276   3.127
21718WAT     H265397   3.869   7.187   3.133
21719WAT      O65398   5.084   6.848   1.036
21719WAT     H165399   5.117   6.942   1.027
21719WAT     H265400   5.012   6.845   1.106
21720WAT      O65401   6.282   3.370   1.016
21720WAT     H165402   6.197   3.336   0.977
21720WAT     H265403   6.342   3.402   0.942
21721WAT      O65404   5.073   7.940   2.876
21721WAT     H165405   5.018   8.023   2.888
21721WAT     H265406   5.033   7.884   2.804
21722WAT      O65407   8.565   3.293   3.459
21722WAT     H165408   8.632   3.240   3.407
21722WAT     H265409   8.474   3.280   3.418
21723WAT      O65410   4.894   3.165   8.908
21723WAT     H165411   4.972   3.109   8.937
21723WAT     H265412   4.843   3.194   8.989
21724WAT      O65413   3.596   3.191   3.052
21724WAT     H165414   3.514   3.178   2.995
21724WAT     H265415   3.677   3.195   2.992
21725WAT      O65416   0.988   1.820   7.437
21725WAT     H165417   1.049   1.828   7.359
21725WAT     H265418   1.028   1.758   7.505
21726WAT      O65419   9.313   2.848   4.923
21726WAT     H165420   9.357   2.773   4.972
21726WAT     H265421   9.219   2.822   4.901
21727WAT      O65422   2.796   4.714   3.957
21727WAT     H165423   2.801   4.647   4.031
21727WAT     H265424   2.887   4.749   3.937
21728WAT      O65425   5.942   2.311   1.319
21728WAT     H165426   5.936   2.332   1.222
21728WAT     H265427   5.904   2.387   1.372
21729WAT      O65428   3.361   3.027   5.218
21729WAT     H165429   3.312   3.003   5.134
21729WAT     H265430   3.361   3.126   5.229
21730WAT      O65431   3.814   9.623   0.858
21730WAT     H165432   3.879   9.615   0.933
21730WAT     H265433   3.721   9.610   0.893
21731WAT      O65434   8.403   2.399   0.720
21731WAT     H165435   8.498   2.427   0.707
21731WAT     H265436   8.375   2.338   0.646
21732WAT      O65437   9.558   4.688   2.353
21732WAT     H165438   9.547   4.668   2.450
21732WAT     H265439   9.479   4.653   2.302
21733WAT      O65440   4.964   7.147   3.537
21733WAT     H165441   5.006   7.089   3.607
21733WAT     H265442   4.880   7.103   3.504
21734WAT      O65443   6.806   3.080   6.091
21734WAT     H165444   6.788   2.999   6.146
21734WAT     H265445   6.900   3.110   6.106
21735WAT      O65446   7.748   3.774   0.994
21735WAT     H165447   7.830   3.831   0.984
21735WAT     H265448   7.667   3.832   0.991
21736WAT      O65449   6.492   8.017   3.619
21736WAT     H165450   6.446   7.934   3.649
21736WAT     H265451   6.523   8.068   3.700
21737WAT      O65452   7.541   9.836   8.177
21737WAT     H165453   7.615   9.836   8.110
21737WAT     H265454   7.509   9.742   8.191
21738WAT      O65455   1.075   0.165   4.427
21738WAT     H165456   1.114   0.251   4.460
21738WAT     H265457   0.976   0.165   4.443
21739WAT      O65458   6.493   3.642   3.240
21739WAT     H165459   6.533   3.552   3.224
21739WAT     H265460   6.452   3.676   3.155
21740WAT      O65461   0.408   7.836   6.279
21740WAT     H165462   0.462   7.857   6.361
21740WAT     H265463   0.468   7.831   6.200
21741WAT      O65464   6.315   3.883   0.494
21741WAT     H165465   6.406   3.924   0.504
21741WAT     H265466   6.246   3.950   0.521
21742WAT      O65467   5.344   1.616   9.135
21742WAT     H165468   5.322   1.530   9.182
21742WAT     H265469   5.424   1.657   9.178
21743WAT      O65470   5.345   2.358   7.541
21743WAT     H165471   5.260   2.405   7.519
21743WAT     H265472   5.381   2.314   7.459
21744WAT      O65473   6.402   1.117   6.667
21744WAT     H165474   6.373   1.085   6.758
21744WAT     H265475   6.339   1.084   6.598
21745WAT      O65476   3.069   4.690   1.152
21745WAT     H165477   3.028   4.669   1.062
21745WAT     H265478   3.111   4.780   1.149
21746WAT      O65479   5.339   1.705   4.278
21746WAT     H165480   5.310   1.736   4.369
21746WAT     H265481   5.262   1.710   4.215
21747WAT      O65482   5.344   6.341   5.832
21747WAT     H165483   5.299   6.429   5.816
21747WAT     H265484   5.323   6.278   5.757
21748WAT      O65485   1.521   4.192   3.623
21748WAT     H165486   1.553   4.188   3.718
21748WAT     H265487   1.599   4.199   3.561
21749WAT      O65488   3.466   5.959   8.547
21749WAT     H165489   3.551   5.948   8.599
21749WAT     H265490   3.487   5.974   8.451
21750WAT      O65491   2.948   8.053   0.159
21750WAT     H165492   2.929   7.962   0.123
21750WAT     H265493   3.044   8.077   0.140
21751WAT      O65494   0.697   9.140   5.510
21751WAT     H165495   0.603   9.141   5.544
21751WAT     H265496   0.698   9.167   5.414
21752WAT      O65497   9.801   8.646   2.623
21752WAT     H165498   9.801   8.547   2.612
21752WAT     H265499   9.854   8.671   2.705
21753WAT      O65500   3.340   9.007   9.719
21753WAT     H165501   3.310   9.002   9.624
21753WAT     H265502   3.439   8.996   9.723
21754WAT      O65503   6.922   1.950   5.781
21754WAT     H165504   6.875   1.920   5.698
21754WAT     H265505   6.905   1.885   5.855
21755WAT      O65506   0.271   7.851   2.657
21755WAT     H165507   0.370   7.835   2.656
21755WAT     H265508   0.253   7.949   2.663
21756WAT      O65509   6.948   9.326   6.561
21756WAT     H165510   6.985   9.419   6.550
21756WAT     H265511   6.964   9.295   6.655
21757WAT      O65512   7.390   3.254   2.014
21757WAT     H165513   7.416   3.241   1.919
21757WAT     H265514   7.293   3.279   2.020
21758WAT      O65515   6.653   2.451   2.163
21758WAT     H165516   6.623   2.357   2.142
21758WAT     H265517   6.588   2.492   2.227
21759WAT      O65518   6.341   4.567   2.560
21759WAT     H165519   6.298   4.525   2.479
21759WAT     H265520   6.341   4.502   2.635
21760WAT      O65521   1.996   2.304   6.136
21760WAT     H165522   1.900   2.296   6.111
21760WAT     H265523   2.025   2.399   6.124
21761WAT      O65524   3.815   1.291   9.548
21761WAT     H165525   3.766   1.363   9.598
21761WAT     H265526   3.758   1.210   9.541
21762WAT      O65527   7.902   0.895   4.957
21762WAT     H165528   7.995   0.932   4.965
21762WAT     H265529   7.841   0.966   4.921
21763WAT      O65530   3.043   6.721   1.210
21763WAT     H165531   3.064   6.673   1.295
21763WAT     H265532   3.025   6.817   1.229
21764WAT      O65533   9.077   3.462   4.333
21764WAT     H165534   8.985   3.470   4.295
21764WAT     H265535   9.140   3.517   4.278
21765WAT      O65536   0.055   3.039   9.289
21765WAT     H165537   0.090   2.950   9.320
21765WAT     H265538   0.106   3.112   9.334
21766WAT      O65539   3.227   3.974   5.309
21766WAT     H165540   3.238   3.995   5.406
21766WAT     H265541   3.294   3.904   5.282
21767WAT      O65542   8.856   7.584   5.034
21767WAT     H165543   8.805   7.608   4.951
21767WAT     H265544   8.874   7.486   5.036
21768WAT      O65545   6.552   8.455   1.444
21768WAT     H165546   6.612   8.399   1.387
21768WAT     H265547   6.555   8.550   1.412
21769WAT      O65548   2.883   7.102   2.219
21769WAT     H165549   2.833   7.163   2.280
21769WAT     H265550   2.819   7.039   2.175
21770WAT      O65551   4.036   2.029   6.352
21770WAT     H165552   3.937   2.015   6.346
21770WAT     H265553   4.081   1.940   6.361
21771WAT      O65554   5.890   7.295   2.736
21771WAT     H165555   5.908   7.391   2.717
21771WAT     H265556   5.949   7.264   2.810
21772WAT      O65557   2.849   7.974   8.629
21772WAT     H165558   2.890   7.902   8.685
21772WAT     H265559   2.871   8.064   8.668
21773WAT      O65560   2.299   1.202   0.950
21773WAT     H165561   2.232   1.142   0.995
21773WAT     H265562   2.263   1.295   0.948
21774WAT      O65563   3.484   2.470   4.759
21774WAT     H165564   3.520   2.394   4.813
21774WAT     H265565   3.392   2.492   4.790
21775WAT      O65566   8.672   3.784   4.174
21775WAT     H165567   8.736   3.811   4.246
21775WAT     H265568   8.619   3.705   4.204
21776WAT      O65569   2.904   0.042   6.525
21776WAT     H165570   2.976   0.099   6.566
21776WAT     H265571   2.878  -0.029   6.590
21777WAT      O65572   2.176   0.245   3.932
21777WAT     H165573   2.274   0.229   3.946
21777WAT     H265574   2.157   0.343   3.942
21778WAT      O65575   8.071   0.674   4.221
21778WAT     H165576   8.043   0.668   4.317
21778WAT     H265577   8.009   0.620   4.165
21779WAT      O65578   1.461   4.438   7.845
21779WAT     H165579   1.506   4.501   7.782
21779WAT     H265580   1.362   4.445   7.834
21780WAT      O65581   0.975   7.483   5.573
21780WAT     H165582   1.057   7.529   5.540
21780WAT     H265583   0.900   7.496   5.508
21781WAT      O65584   8.769   2.411   8.546
21781WAT     H165585   8.683   2.430   8.594
21781WAT     H265586   8.783   2.312   8.541
21782WAT      O65587   2.607   2.398   1.923
21782WAT     H165588   2.701   2.421   1.898
21782WAT     H265589   2.544   2.462   1.879
21783WAT      O65590   0.454   5.156   5.099
21783WAT     H165591   0.494   5.092   5.164
21783WAT     H265592   0.380   5.206   5.144
21784WAT      O65593   4.496   1.593   6.026
21784WAT     H165594   4.470   1.667   6.089
21784WAT     H265595   4.556   1.629   5.955
21785WAT      O65596   2.020   6.094   1.366
21785WAT     H165597   2.026   6.011   1.312
21785WAT     H265598   2.111   6.130   1.384
21786WAT      O65599   7.433   7.267   4.906
21786WAT     H165600   7.449   7.258   5.005
21786WAT     H265601   7.417   7.176   4.867
21787WAT      O65602   5.161   8.098   1.502
21787WAT     H165603   5.228   8.168   1.526
21787WAT     H265604   5.129   8.052   1.585
21788WAT      O65605   0.199   2.116   7.978
21788WAT     H165606   0.221   2.164   8.063
21788WAT     H265607   0.226   2.020   7.987
21789WAT      O65608   3.580   1.219   3.219
21789WAT     H165609   3.623   1.177   3.299
21789WAT     H265610   3.586   1.319   3.227
21790WAT      O65611   5.151   0.188   2.971
21790WAT     H165612   5.182   0.197   2.877
21790WAT     H265613   5.053   0.207   2.977
21791WAT      O65614   5.017   5.202   4.061
21791WAT     H165615   4.949   5.274   4.051
21791WAT     H265616   5.107   5.242   4.072
21792WAT      O65617   4.654   7.208   6.713
21792WAT     H165618   4.701   7.252   6.637
21792WAT     H265619   4.556   7.227   6.707
21793WAT      O65620   3.153   4.586   6.853
21793WAT     H165621   3.101   4.560   6.934
21793WAT     H265622   3.192   4.505   6.810
21794WAT      O65623   0.973   0.820   7.106
21794WAT     H165624   1.068   0.841   7.130
21794WAT     H265625   0.967   0.727   7.071
21795WAT      O65626   5.008   0.996   6.333
21795WAT     H165627   4.939   0.993   6.261
21795WAT     H265628   4.969   0.960   6.418
21796WAT      O65629   0.876   8.468   6.814
21796WAT     H165630   0.900   8.396   6.749
21796WAT     H265631   0.956   8.525   6.830
21797WAT      O65632   7.164   6.569   6.480
21797WAT     H165633   7.114   6.521   6.407
21797WAT     H265634   7.099   6.600   6.549
21798WAT      O65635   3.844   4.474   4.654
21798WAT     H165636   3.911   4.530   4.604
21798WAT     H265637   3.838   4.507   4.748
21799WAT      O65638   8.414   0.175   9.097
21799WAT     H165639   8.473   0.152   9.174
21799WAT     H265640   8.461   0.241   9.038
21800WAT      O65641   3.737   9.671   7.619
21800WAT     H165642   3.825   9.718   7.611
21800WAT     H265643   3.704   9.677   7.713
21801WAT      O65644   9.081   2.048   4.190
21801WAT     H165645   8.989   2.008   4.184
21801WAT     H265646   9.145   1.991   4.138
21802WAT      O65647   9.007   3.036   7.096
21802WAT     H165648   9.105   3.024   7.116
21802WAT     H265649   8.994   3.123   7.049
21803WAT      O65650   3.029   0.898   8.140
21803WAT     H165651   3.035   0.834   8.063
21803WAT     H265652   3.040   0.847   8.226
21804WAT      O65653   1.200   7.111   2.574
21804WAT     H165654   1.163   7.201   2.553
21804WAT     H265655   1.174   7.086   2.668
21805WAT      O65656   0.134   6.130   0.062
21805WAT     H165657   0.170   6.049   0.016
21805WAT     H265658   0.207   6.176   0.112
21806WAT      O65659   7.830   2.853   9.833
21806WAT     H165660   7.743   2.850   9.884
21806WAT     H265661   7.887   2.776   9.861
21807WAT      O65662   0.825   6.560   6.169
21807WAT     H165663   0.732   6.578   6.135
21807WAT     H265664   0.819   6.502   6.250
21808WAT      O65665   3.711   4.444   8.350
21808WAT     H165666   3.789   4.382   8.342
21808WAT     H265667   3.733   4.532   8.307
21809WAT      O65668   1.666   9.838   7.501
21809WAT     H165669   1.630   9.747   7.482
21809WAT     H265670   1.763   9.842   7.477
21810WAT      O65671   6.581   9.537   7.739
21810WAT     H165672   6.514   9.547   7.813
21810WAT     H265673   6.590   9.441   7.715
21811WAT      O65674   6.973   8.030   7.670
21811WAT     H165675   6.914   7.952   7.690
21811WAT     H265676   7.056   7.997   7.624
21812WAT      O65677   9.125   2.387   4.980
21812WAT     H165678   9.071   2.380   4.896
21812WAT     H265679   9.089   2.461   5.037
21813WAT      O65680   2.655   8.432   7.967
21813WAT     H165681   2.728   8.382   8.011
21813WAT     H265682   2.577   8.371   7.950
21814WAT      O65683   5.023   2.336   0.731
21814WAT     H165684   5.007   2.241   0.704
21814WAT     H265685   5.072   2.338   0.819
21815WAT      O65686   4.715   7.890   1.008
21815WAT     H165687   4.815   7.891   1.002
21815WAT     H265688   4.688   7.901   1.104
21816WAT      O65689   1.815   4.012   0.996
21816WAT     H165690   1.809   4.005   1.096
21816WAT     H265691   1.744   4.074   0.962
21817WAT      O65692   0.765   1.541   0.136
21817WAT     H165693   0.698   1.535   0.211
21817WAT     H265694   0.745   1.621   0.080
21818WAT      O65695   4.618   8.749   9.134
21818WAT     H165696   4.585   8.716   9.222
21818WAT     H265697   4.662   8.674   9.084
21819WAT      O65698   1.280   6.088   1.457
21819WAT     H165699   1.236   6.035   1.530
21819WAT     H265700   1.210   6.136   1.403
21820WAT      O65701   0.562   5.216   9.291
21820WAT     H165702   0.656   5.239   9.267
21820WAT     H265703   0.545   5.119   9.274
21821WAT      O65704   5.292   2.588   9.014
21821WAT     H165705   5.204   2.540   9.011
21821WAT     H265706   5.351   2.552   8.942
21822WAT      O65707   8.383   1.907   6.030
21822WAT     H165708   8.447   1.940   6.098
21822WAT     H265709   8.353   1.984   5.973
21823WAT      O65710   1.162   0.410   4.472
21823WAT     H165711   1.199   0.424   4.380
21823WAT     H265712   1.104   0.488   4.497
21824WAT      O65713   3.667   6.234   2.420
21824WAT     H165714   3.610   6.153   2.405
21824WAT     H265715   3.763   6.208   2.411
21825WAT      O65716   4.936   4.461   9.608
21825WAT     H165717   4.983   4.506   9.684
21825WAT     H265718   4.933   4.362   9.625
21826WAT      O65719   7.577   1.592   4.389
21826WAT     H165720   7.542   1.537   4.313
21826WAT     H265721   7.538   1.559   4.475
21827WAT      O65722   7.139   7.370   9.774
21827WAT     H165723   7.190   7.307   9.832
21827WAT     H265724   7.177   7.462   9.782
21828WAT      O65725   0.574   8.311   9.475
21828WAT     H165726   0.596   8.281   9.382
21828WAT     H265727   0.474   8.314   9.486
21829WAT      O65728   2.043   4.238   1.336
21829WAT     H165729   2.080   4.153   1.373
21829WAT     H265730   1.960   4.262   1.385
21830WAT      O65731   4.358   1.314   1.404
21830WAT     H165732   4.267   1.342   1.436
21830WAT     H265733   4.353   1.291   1.307
21831WAT      O65734   7.096   1.290   5.694
21831WAT     H165735   7.074   1.384   5.722
21831WAT     H265736   7.057   1.273   5.604
21832WAT      O65737   5.339   2.367   2.846
21832WAT     H165738   5.352   2.365   2.945
21832WAT     H265739   5.419   2.409   2.803
21833WAT      O65740   8.756   9.215   5.484
21833WAT     H165741   8.657   9.212   5.498
21833WAT     H265742   8.777   9.276   5.407
21834WAT      O65743   6.623   5.587   1.612
21834WAT     H165744   6.693   5.617   1.676
21834WAT     H265745   6.566   5.665   1.585
21835WAT      O65746   9.285   4.001   2.965
21835WAT     H165747   9.245   3.943   2.894
21835WAT     H265748   9.370   3.959   2.998
21836WAT      O65749   1.620   3.238   4.811
21836WAT     H165750   1.563   3.274   4.738
21836WAT     H265751   1.620   3.138   4.808
21837WAT      O65752   0.714   7.051   2.464
21837WAT     H165753   0.691   6.977   2.527
21837WAT     H265754   0.780   7.113   2.507
21838WAT      O65755   9.257   5.561   7.155
21838WAT     H165756   9.158   5.556   7.144
21838WAT     H265757   9.282   5.537   7.248
21839WAT      O65758   8.171   8.425   7.173
21839WAT     H165759   8.223   8.354   7.220
21839WAT     H265760   8.230   8.504   7.156
21840WAT      O65761   7.047   9.842   2.924
21840WAT     H165762   6.970   9.796   2.968
21840WAT     H265763   7.133   9.807   2.964
21841WAT      O65764   0.745   6.574   0.162
21841WAT     H165765   0.818   6.640   0.143
21841WAT     H265766   0.746   6.503   0.091
21842WAT      O65767   7.390   2.820   0.256
21842WAT     H165768   7.400   2.918   0.243
21842WAT     H265769   7.474   2.783   0.298
21843WAT      O65770   1.868   7.930   2.167
21843WAT     H165771   1.891   7.862   2.097
21843WAT     H265772   1.799   7.892   2.229
21844WAT      O65773   1.389   2.952   9.535
21844WAT     H165774   1.315   3.007   9.497
21844WAT     H265775   1.392   2.964   9.634
21845WAT      O65776   4.407   4.565   0.893
21845WAT     H165777   4.465   4.505   0.838
21845WAT     H265778   4.465   4.629   0.944
21846WAT      O65779   2.343   3.769   2.037
21846WAT     H165780   2.349   3.670   2.028
21846WAT     H265781   2.360   3.812   1.948
21847WAT      O65782   4.921   0.466   2.466
21847WAT     H165783   4.876   0.546   2.507
21847WAT     H265784   4.936   0.483   2.369
21848WAT      O65785   9.023   3.942   7.780
21848WAT     H165786   9.087   4.008   7.820
21848WAT     H265787   8.955   3.991   7.726
21849WAT      O65788   1.060   9.185   5.416
21849WAT     H165789   0.999   9.251   5.373
21849WAT     H265790   1.039   9.178   5.513
21850WAT      O65791   9.502   4.428   2.891
21850WAT     H165792   9.408   4.397   2.873
21850WAT     H265793   9.561   4.400   2.815
21851WAT      O65794   1.395   8.544   2.764
21851WAT     H165795   1.489   8.512   2.779
21851WAT     H265796   1.389   8.591   2.676
21852WAT      O65797   0.475   3.885   9.306
21852WAT     H165798   0.383   3.855   9.334
21852WAT     H265799   0.471   3.979   9.275
21853WAT      O65800   5.298   9.651   4.187
21853WAT     H165801   5.208   9.662   4.145
21853WAT     H265802   5.290   9.596   4.270
21854WAT      O65803   5.121   8.634   9.441
21854WAT     H165804   5.100   8.715   9.386
21854WAT     H265805   5.218   8.611   9.432
21855WAT      O65806   0.366   3.778   7.588
21855WAT     H165807   0.443   3.829   7.550
21855WAT     H265808   0.380   3.680   7.572
21856WAT      O65809   3.715   2.674   7.569
21856WAT     H165810   3.622   2.699   7.541
21856WAT     H265811   3.713   2.587   7.618
21857WAT      O65812   6.159   6.180   8.153
21857WAT     H165813   6.097   6.226   8.216
21857WAT     H265814   6.107   6.149   8.073
21858WAT      O65815   9.539   9.641   4.992
21858WAT     H165816   9.596   9.627   4.911
21858WAT     H265817   9.485   9.558   5.009
21859WAT      O65818   1.035   5.031   4.582
21859WAT     H165819   0.982   5.076   4.654
21859WAT     H265820   1.123   5.078   4.572
21860WAT      O65821   4.255   2.510   4.317
21860WAT     H165822   4.336   2.533   4.263
21860WAT     H265823   4.204   2.436   4.271
21861WAT      O65824   6.415   8.475   9.096
21861WAT     H165825   6.367   8.422   9.166
21861WAT     H265826   6.493   8.421   9.063
21862WAT      O65827   4.991   6.731   0.100
21862WAT     H165828   5.059   6.663   0.128
21862WAT     H265829   4.974   6.722   0.002
21863WAT      O65830   7.510   7.272   9.454
21863WAT     H165831   7.465   7.183   9.450
21863WAT     H265832   7.494   7.322   9.369
21864WAT      O65833   8.730   1.838   9.666
21864WAT     H165834   8.793   1.910   9.636
21864WAT     H265835   8.784   1.759   9.697
21865WAT      O65836   8.662   9.233   7.039
21865WAT     H165837   8.684   9.210   6.944
21865WAT     H265838   8.678   9.154   7.097
21866WAT      O65839   5.520   6.862   0.597
21866WAT     H165840   5.583   6.833   0.525
21866WAT     H265841   5.427   6.830   0.575
21867WAT      O65842   0.104   1.505   5.959
21867WAT     H165843   0.032   1.496   5.891
21867WAT     H265844   0.070   1.475   6.048
21868WAT      O65845   3.646   0.452   5.536
21868WAT     H165846   3.628   0.370   5.590
21868WAT     H265847   3.566   0.472   5.479
21869WAT      O65848   4.544   0.211   7.787
21869WAT     H165849   4.635   0.249   7.775
21869WAT     H265850   4.525   0.146   7.713
21870WAT      O65851   3.765   3.191   6.021
21870WAT     H165852   3.759   3.140   5.935
21870WAT     H265853   3.682   3.178   6.074
21871WAT      O65854   5.726   8.388   7.542
21871WAT     H165855   5.669   8.306   7.536
21871WAT     H265856   5.677   8.459   7.592
21872WAT      O65857   1.462   4.021   1.282
21872WAT     H165858   1.403   3.950   1.318
21872WAT     H265859   1.412   4.107   1.277
21873WAT      O65860   7.045   8.443   9.643
21873WAT     H165861   7.100   8.360   9.652
21873WAT     H265862   7.038   8.488   9.732
21874WAT      O65863   1.822   6.912   7.915
21874WAT     H165864   1.886   6.848   7.871
21874WAT     H265865   1.811   6.993   7.858
21875WAT      O65866   6.143   3.658   5.676
21875WAT     H165867   6.096   3.735   5.718
21875WAT     H265868   6.199   3.690   5.599
21876WAT      O65869   4.468   4.059   9.202
21876WAT     H165870   4.557   4.046   9.245
21876WAT     H265871   4.475   4.130   9.131
21877WAT      O65872   6.827   6.521   6.496
21877WAT     H165873   6.826   6.529   6.396
21877WAT     H265874   6.761   6.451   6.524
21878WAT      O65875   8.406   9.273   0.316
21878WAT     H165876   8.398   9.344   0.385
21878WAT     H265877   8.340   9.200   0.335
21879WAT      O65878   4.636   1.036   2.182
21879WAT     H165879   4.729   1.049   2.215
21879WAT     H265880   4.633   1.053   2.083
21880WAT      O65881   8.043   7.298   9.159
21880WAT     H165882   8.115   7.316   9.091
21880WAT     H265883   8.080   7.312   9.251
21881WAT      O65884   3.031   6.053   2.485
21881WAT     H165885   3.085   6.051   2.569
21881WAT     H265886   3.064   6.126   2.426
21882WAT      O65887   9.343   7.994   8.769
21882WAT     H165888   9.286   8.075   8.785
21882WAT     H265889   9.285   7.913   8.764
21883WAT      O65890   5.020   3.691   2.161
21883WAT     H165891   5.068   3.764   2.112
21883WAT     H265892   5.005   3.614   2.100
21884WAT      O65893   6.162   7.798   2.334
21884WAT     H165894   6.231   7.756   2.275
21884WAT     H265895   6.175   7.768   2.428
21885WAT      O65896   0.944   5.685   6.020
21885WAT     H165897   0.889   5.615   5.976
21885WAT     H265898   1.034   5.689   5.976
21886WAT      O65899   5.270   7.915   7.143
21886WAT     H165900   5.352   7.972   7.137
21886WAT     H265901   5.279   7.852   7.220
21887WAT      O65902   2.637   4.179   9.743
21887WAT     H165903   2.615   4.153   9.837
21887WAT     H265904   2.702   4.113   9.705
21888WAT      O65905   1.702   5.367   1.553
21888WAT     H165906   1.790   5.415   1.552
21888WAT     H265907   1.631   5.429   1.586
21889WAT      O65908   3.754   4.704   2.062
21889WAT     H165909   3.813   4.642   2.114
21889WAT     H265910   3.810   4.762   2.003
21890WAT      O65911   9.254   8.961   1.840
21890WAT     H165912   9.320   8.887   1.833
21890WAT     H265913   9.301   9.046   1.864
21891WAT      O65914   6.335   5.938   4.706
21891WAT     H165915   6.357   6.008   4.638
21891WAT     H265916   6.371   5.965   4.795
21892WAT      O65917   8.728   1.578   1.814
21892WAT     H165918   8.701   1.670   1.842
21892WAT     H265919   8.701   1.513   1.885
21893WAT      O65920   2.835   6.839   8.399
21893WAT     H165921   2.828   6.936   8.420
21893WAT     H265922   2.782   6.818   8.317
21894WAT      O65923   7.765   1.916   4.383
21894WAT     H165924   7.838   1.864   4.338
21894WAT     H265925   7.786   1.928   4.480
21895WAT      O65926   9.826   9.429   3.386
21895WAT     H165927   9.905   9.391   3.338
21895WAT     H265928   9.759   9.357   3.403
21896WAT      O65929   1.545   3.282   7.578
21896WAT     H165930   1.516   3.211   7.642
21896WAT     H265931   1.623   3.332   7.616
21897WAT      O65932   8.492   2.012   9.110
21897WAT     H165933   8.466   1.921   9.142
21897WAT     H265934   8.530   2.005   9.018
21898WAT      O65935   0.477   8.899   5.910
21898WAT     H165936   0.391   8.945   5.934
21898WAT     H265937   0.463   8.844   5.828
21899WAT      O65938   1.479   6.752   7.960
21899WAT     H165939   1.558   6.753   8.022
21899WAT     H265940   1.455   6.658   7.938
21900WAT      O65941   1.099   3.672   0.482
21900WAT     H165942   1.040   3.634   0.410
21900WAT     H265943   1.150   3.749   0.445
21901WAT      O65944   4.492   5.539   4.644
21901WAT     H165945   4.463   5.568   4.735
21901WAT     H265946   4.495   5.439   4.640
21902WAT      O65947   3.647   7.835   2.015
21902WAT     H165948   3.615   7.879   2.099
21902WAT     H265949   3.740   7.801   2.027
21903WAT      O65950   7.270   6.817   3.521
21903WAT     H165951   7.251   6.901   3.572
21903WAT     H265952   7.219   6.741   3.562
21904WAT      O65953   0.409   9.734   1.284
21904WAT     H165954   0.463   9.794   1.225
21904WAT     H265955   0.328   9.703   1.234
21905WAT      O65956   6.777   7.948   3.980
21905WAT     H165957   6.739   8.005   3.908
21905WAT     H265958   6.728   7.861   3.984
21906WAT      O65959   4.151   2.582   1.513
21906WAT     H165960   4.104   2.577   1.424
21906WAT     H265961   4.141   2.495   1.561
21907WAT      O65962   6.371   5.875   0.494
21907WAT     H165963   6.397   5.812   0.420
21907WAT     H265964   6.276   5.858   0.520
21908WAT      O65965   5.528   2.199   3.095
21908WAT     H165966   5.621   2.223   3.067
21908WAT     H265967   5.489   2.273   3.149
21909WAT      O65968   4.006   9.208   2.154
21909WAT     H165969   3.997   9.301   2.188
21909WAT     H265970   4.103   9.182   2.154
21910WAT      O65971   5.176   0.940   5.540
21910WAT     H165972   5.128   0.891   5.467
21910WAT     H265973   5.272   0.912   5.541
21911WAT      O65974   4.258   0.308   9.528
21911WAT     H165975   4.273   0.380   9.595
21911WAT     H265976   4.196   0.239   9.565
21912WAT      O65977   6.993   8.868   4.971
21912WAT     H165978   6.899   8.859   5.002
21912WAT     H265979   7.001   8.945   4.907
21913WAT      O65980   8.777   1.735   0.450
21913WAT     H165981   8.863   1.712   0.405
21913WAT     H265982   8.748   1.659   0.509
21914WAT      O65983   3.881   3.812   1.922
21914WAT     H165984   3.790   3.793   1.885
21914WAT     H265985   3.920   3.891   1.874
21915WAT      O65986   5.273   1.470   1.397
21915WAT     H165987   5.286   1.548   1.458
21915WAT     H265988   5.182   1.430   1.413
21916WAT      O65989   0.347   8.908   0.841
21916WAT     H165990   0.356   8.810   0.826
21916WAT     H265991   0.282   8.924   0.916
21917WAT      O65992   0.231   7.690   3.948
21917WAT     H165993   0.318   7.723   3.987
21917WAT     H265994   0.185   7.767   3.902
21918WAT      O65995   0.153   4.389   9.156
21918WAT     H165996   0.090   4.312   9.149
21918WAT     H265997   0.105   4.473   9.133
21919WAT      O65998   7.118   7.391   8.392
21919WAT     H165999   7.210   7.394   8.430
21919WAT     H266000   7.123   7.400   8.292
21920WAT      O66001   5.505   5.421   7.851
21920WAT     H166002   5.448   5.416   7.933
21920WAT     H266003   5.592   5.375   7.867
21921WAT      O66004   4.218   3.057   0.831
21921WAT     H166005   4.167   3.031   0.748
21921WAT     H266006   4.155   3.090   0.900
21922WAT      O66007   0.968   7.910   1.076
21922WAT     H166008   0.907   7.874   1.147
21922WAT     H266009   0.920   7.982   1.025
21923WAT      O66010   3.868   3.680   7.229
21923WAT     H166011   3.771   3.701   7.241
21923WAT     H266012   3.881   3.628   7.145
21924WAT      O66013   5.239   1.753   6.376
21924WAT     H166014   5.285   1.686   6.436
21924WAT     H266015   5.258   1.729   6.280
21925WAT      O66016   6.418   1.620   1.111
21925WAT     H166017   6.436   1.650   1.205
21925WAT     H266018   6.504   1.587   1.070
21926WAT      O66019   6.320   7.785   7.045
21926WAT     H166020   6.330   7.775   7.144
21926WAT     H266021   6.320   7.882   7.022
21927WAT      O66022   1.347   5.997   3.127
21927WAT     H166023   1.388   5.907   3.114
21927WAT     H266024   1.272   6.010   3.061
21928WAT      O66025   1.304   2.007   3.197
21928WAT     H166026   1.339   2.094   3.163
21928WAT     H266027   1.317   1.936   3.127
21929WAT      O66028   6.790   8.391   1.303
21929WAT     H166029   6.771   8.446   1.221
21929WAT     H266030   6.855   8.319   1.280
21930WAT      O66031   7.009   5.861   8.249
21930WAT     H166032   6.958   5.928   8.196
21930WAT     H266033   7.106   5.867   8.226
21931WAT      O66034   5.824   7.714   7.509
21931WAT     H166035   5.908   7.694   7.560
21931WAT     H266036   5.766   7.775   7.563
21932WAT      O66037   7.380   1.649   9.516
21932WAT     H166038   7.397   1.627   9.420
21932WAT     H266039   7.412   1.574   9.574
21933WAT      O66040   3.072   8.953   5.592
21933WAT     H166041   3.102   8.877   5.533
21933WAT     H266042   2.988   8.992   5.556
21934WAT      O66043   2.207   8.470   9.387
21934WAT     H166044   2.133   8.501   9.328
21934WAT     H266045   2.173   8.460   9.481
21935WAT      O66046   0.628   8.724   1.358
21935WAT     H166047   0.599   8.794   1.424
21935WAT     H266048   0.577   8.735   1.273
21936WAT      O66049   4.858   6.324   0.551
21936WAT     H166050   4.821   6.234   0.528
21936WAT     H266051   4.906   6.361   0.471
21937WAT      O66052   0.020   9.311   0.653
21937WAT     H166053   0.073   9.242   0.604
21937WAT     H266054   0.027   9.399   0.605
21938WAT      O66055   3.492   4.654   9.038
21938WAT     H166056   3.578   4.703   9.025
21938WAT     H266057   3.503   4.558   9.013
21939WAT      O66058   3.180   1.267   7.381
21939WAT     H166059   3.216   1.229   7.296
21939WAT     H266060   3.169   1.366   7.371
21940WAT      O66061   7.961   4.639   5.794
21940WAT     H166062   8.008   4.552   5.781
21940WAT     H266063   7.999   4.686   5.874
21941WAT      O66064   7.865   9.701   9.073
21941WAT     H166065   7.903   9.625   9.020
21941WAT     H266066   7.766   9.693   9.076
21942WAT      O66067   8.437   4.290   2.329
21942WAT     H166068   8.375   4.291   2.250
21942WAT     H266069   8.531   4.288   2.297
21943WAT      O66070   9.033   9.558   8.430
21943WAT     H166071   8.989   9.503   8.359
21943WAT     H266072   8.999   9.531   8.520
21944WAT      O66073   7.963   1.217   5.105
21944WAT     H166074   8.051   1.171   5.099
21944WAT     H266075   7.908   1.193   5.025
21945WAT      O66076   6.194   1.950   6.846
21945WAT     H166077   6.238   1.963   6.935
21945WAT     H266078   6.096   1.963   6.856
21946WAT      O66079   5.540   5.927   0.558
21946WAT     H166080   5.630   5.970   0.566
21946WAT     H266081   5.478   5.966   0.626
21947WAT      O66082   3.614   4.011   7.745
21947WAT     H166083   3.652   3.940   7.685
21947WAT     H266084   3.514   4.001   7.750
21948WAT      O66085   8.221   0.825   2.848
21948WAT     H166086   8.124   0.817   2.870
21948WAT     H266087   8.233   0.825   2.749
21949WAT      O66088   5.532   6.575   6.869
21949WAT     H166089   5.560   6.661   6.828
21949WAT     H266090   5.434   6.578   6.891
21950WAT      O66091   6.148   2.779   7.402
21950WAT     H166092   6.108   2.692   7.374
21950WAT     H266093   6.237   2.763   7.445
21951WAT      O66094   7.962   1.041   4.270
21951WAT     H166095   7.987   1.126   4.223
21951WAT     H266096   8.028   0.970   4.247
21952WAT      O66097   0.834   4.757   9.370
21952WAT     H166098   0.850   4.768   9.468
21952WAT     H266099   0.764   4.688   9.355
21953WAT      O66100   6.972   1.676   5.441
21953WAT     H166101   7.057   1.646   5.484
21953WAT     H266102   6.986   1.685   5.343
21954WAT      O66103   1.556   6.704   5.887
21954WAT     H166104   1.596   6.673   5.973
21954WAT     H266105   1.545   6.626   5.825
21955WAT      O66106   6.264   2.694   5.893
21955WAT     H166107   6.263   2.787   5.929
21955WAT     H266108   6.171   2.666   5.870
21956WAT      O66109   2.047   7.178   7.064
21956WAT     H166110   2.026   7.247   7.134
21956WAT     H266111   2.107   7.218   6.995
21957WAT      O66112   0.197   9.166   5.758
21957WAT     H166113   0.104   9.200   5.775
21957WAT     H266114   0.213   9.085   5.814
21958WAT      O66115   2.743   8.716   4.255
21958WAT     H166116   2.699   8.687   4.170
21958WAT     H266117   2.838   8.687   4.255
21959WAT      O66118   9.215   6.706   8.317
21959WAT     H166119   9.124   6.722   8.356
21959WAT     H266120   9.269   6.651   8.381
21960WAT      O66121   9.838   3.686   2.977
21960WAT     H166122   9.859   3.771   3.026
21960WAT     H266123   9.920   3.656   2.927
21961WAT      O66124   3.168   3.274   8.784
21961WAT     H166125   3.242   3.268   8.716
21961WAT     H266126   3.179   3.201   8.851
21962WAT      O66127   0.092   4.051   4.914
21962WAT     H166128   0.070   4.022   5.008
21962WAT     H266129   0.176   4.004   4.884
21963WAT      O66130   3.799   2.245   2.489
21963WAT     H166131   3.755   2.280   2.407
21963WAT     H266132   3.872   2.308   2.516
21964WAT      O66133   3.442   5.279   4.644
21964WAT     H166134   3.385   5.197   4.639
21964WAT     H266135   3.414   5.344   4.574
21965WAT      O66136   6.488   4.223   6.040
21965WAT     H166137   6.529   4.140   6.078
21965WAT     H266138   6.495   4.223   5.941
21966WAT      O66139   4.471   3.566   3.776
21966WAT     H166140   4.431   3.476   3.793
21966WAT     H266141   4.514   3.599   3.860
21967WAT      O66142   0.252   5.858   6.841
21967WAT     H166143   0.263   5.758   6.839
21967WAT     H266144   0.155   5.881   6.842
21968WAT      O66145   6.594   8.149   0.974
21968WAT     H166146   6.495   8.151   0.987
21968WAT     H266147   6.622   8.226   0.916
21969WAT      O66148   3.954   4.306   7.547
21969WAT     H166149   3.990   4.374   7.483
21969WAT     H266150   3.863   4.278   7.517
21970WAT      O66151   9.424   2.370   6.553
21970WAT     H166152   9.397   2.447   6.496
21970WAT     H266153   9.498   2.320   6.509
21971WAT      O66154   4.787   0.394   2.726
21971WAT     H166155   4.836   0.475   2.695
21971WAT     H266156   4.689   0.407   2.709
21972WAT      O66157   1.640   7.098   4.467
21972WAT     H166158   1.610   7.028   4.402
21972WAT     H266159   1.560   7.143   4.507
21973WAT      O66160   6.270   5.133   1.013
21973WAT     H166161   6.180   5.159   1.048
21973WAT     H266162   6.259   5.094   0.921
21974WAT      O66163   3.920   8.845   3.814
21974WAT     H166164   3.900   8.771   3.750
21974WAT     H266165   3.980   8.911   3.770
21975WAT      O66166   9.667   5.748   3.084
21975WAT     H166167   9.619   5.684   3.144
21975WAT     H266168   9.651   5.841   3.116
21976WAT      O66169   2.096   7.844   8.092
21976WAT     H166170   2.121   7.883   8.181
21976WAT     H266171   2.162   7.872   8.023
21977WAT      O66172   7.081   6.270   2.680
21977WAT     H166173   7.009   6.339   2.688
21977WAT     H266174   7.151   6.287   2.750
21978WAT      O66175   1.349   0.613   2.782
21978WAT     H166176   1.392   0.523   2.779
21978WAT     H266177   1.285   0.623   2.706
21979WAT      O66178   3.537   4.672   4.905
21979WAT     H166179   3.556   4.605   4.978
21979WAT     H266180   3.502   4.756   4.946
21980WAT      O66181   1.830   1.892   7.744
21980WAT     H166182   1.844   1.991   7.749
21980WAT     H266183   1.733   1.871   7.756
21981WAT      O66184   4.362   1.379   1.971
21981WAT     H166185   4.281   1.398   2.028
21981WAT     H266186   4.443   1.418   2.014
21982WAT      O66187   7.009   1.053   0.728
21982WAT     H166188   6.925   0.999   0.723
21982WAT     H266189   7.081   1.009   0.675
21983WAT      O66190   6.390   2.685   6.860
21983WAT     H166191   6.353   2.593   6.845
21983WAT     H266192   6.369   2.715   6.953
21984WAT      O66193   1.482   0.696   1.308
21984WAT     H166194   1.439   0.749   1.381
21984WAT     H266195   1.453   0.601   1.315
21985WAT      O66196   9.247   7.819   0.734
21985WAT     H166197   9.298   7.860   0.810
21985WAT     H266198   9.304   7.819   0.652
21986WAT      O66199   7.377   1.081   4.020
21986WAT     H166200   7.317   1.116   4.092
21986WAT     H266201   7.461   1.136   4.017
21987WAT      O66202   3.469   7.081   9.218
21987WAT     H166203   3.406   7.078   9.295
21987WAT     H266204   3.460   6.997   9.165
21988WAT      O66205   3.900   7.887   6.786
21988WAT     H166206   3.867   7.794   6.804
21988WAT     H266207   3.987   7.883   6.738
21989WAT      O66208   1.295   6.587   1.097
21989WAT     H166209   1.209   6.637   1.087
21989WAT     H266210   1.295   6.509   1.035
21990WAT      O66211   5.456   9.017   1.825
21990WAT     H166212   5.502   9.102   1.799
21990WAT     H266213   5.373   9.038   1.876
21991WAT      O66214   3.474   5.348   7.189
21991WAT     H166215   3.455   5.250   7.201
21991WAT     H266216   3.434   5.379   7.103
21992WAT      O66217   3.854   3.060   8.683
21992WAT     H166218   3.767   3.022   8.715
21992WAT     H266219   3.841   3.156   8.658
21993WAT      O66220   7.969   6.410   2.533
21993WAT     H166221   7.912   6.473   2.480
21993WAT     H266222   8.026   6.462   2.596
21994WAT      O66223   9.029   6.060   0.785
21994WAT     H166224   9.027   6.159   0.799
21994WAT     H266225   8.953   6.034   0.725
21995WAT      O66226   4.253   7.820   0.662
21995WAT     H166227   4.326   7.774   0.713
21995WAT     H266228   4.166   7.808   0.710
21996WAT      O66229   9.732   8.936   6.525
21996WAT     H166230   9.802   8.898   6.465
21996WAT     H266231   9.725   8.880   6.607
21997WAT      O66232   1.520   9.226   7.576
21997WAT     H166233   1.567   9.143   7.607
21997WAT     H266234   1.440   9.242   7.634
21998WAT      O66235   2.256   3.820   8.267
21998WAT     H166236   2.270   3.850   8.361
21998WAT     H266237   2.255   3.720   8.263
21999WAT      O66238   9.760   7.262   0.488
21999WAT     H166239   9.730   7.171   0.458
21999WAT     H266240   9.680   7.320   0.505
22000WAT      O66241   6.510   8.121   4.784
22000WAT     H166242   6.567   8.042   4.762
22000WAT     H266243   6.420   8.111   4.741
22001WAT      O66244   7.058   2.985   8.495
22001WAT     H166245   7.059   2.887   8.471
22001WAT     H266246   7.114   3.036   8.429
22002WAT      O66247   1.035   0.452   3.328
22002WAT     H166248   1.126   0.480   3.299
22002WAT     H266249   0.990   0.529   3.374
22003WAT      O66250   5.646   3.107   7.115
22003WAT     H166251   5.568   3.152   7.071
22003WAT     H266252   5.726   3.112   7.055
22004WAT      O66253   2.158   4.331   5.137
22004WAT     H166254   2.215   4.350   5.217
22004WAT     H266255   2.214   4.335   5.054
22005WAT      O66256   1.912   8.142   0.721
22005WAT     H166257   1.940   8.168   0.628
22005WAT     H266258   1.886   8.224   0.772
22006WAT      O66259   7.860   2.215   9.822
22006WAT     H166260   7.898   2.161   9.747
22006WAT     H266261   7.935   2.253   9.877
22007WAT      O66262   2.243   0.552   2.911
22007WAT     H166263   2.296   0.468   2.904
22007WAT     H266264   2.214   0.582   2.820
22008WAT      O66265   6.833   2.538   1.963
22008WAT     H166266   6.758   2.526   2.028
22008WAT     H266267   6.851   2.451   1.916
22009WAT      O66268   5.691   1.968   2.182
22009WAT     H166269   5.598   1.942   2.205
22009WAT     H266270   5.706   2.064   2.206
22010WAT      O66271   7.533   2.197   0.472
22010WAT     H166272   7.553   2.291   0.500
22010WAT     H266273   7.522   2.192   0.373
22011WAT      O66274   1.160   8.824   0.843
22011WAT     H166275   1.117   8.852   0.757
22011WAT     H266276   1.139   8.890   0.914
22012WAT      O66277   1.275   6.692   5.578
22012WAT     H166278   1.277   6.786   5.612
22012WAT     H266279   1.265   6.693   5.478
22013WAT      O66280   7.558   3.167   7.280
22013WAT     H166281   7.621   3.089   7.290
22013WAT     H266282   7.473   3.135   7.239
22014WAT      O66283   1.243   1.966   2.145
22014WAT     H166284   1.275   1.928   2.058
22014WAT     H266285   1.320   2.011   2.192
22015WAT      O66286   1.788   7.357   1.540
22015WAT     H166287   1.877   7.398   1.521
22015WAT     H266288   1.759   7.382   1.632
22016WAT      O66289   8.602   7.741   9.253
22016WAT     H166290   8.538   7.781   9.318
22016WAT     H266291   8.578   7.769   9.160
22017WAT      O66292   2.328   3.906   0.506
22017WAT     H166293   2.387   3.840   0.552
22017WAT     H266294   2.240   3.863   0.486
22018WAT      O66295   8.909   5.107   1.232
22018WAT     H166296   8.979   5.064   1.289
22018WAT     H266297   8.917   5.207   1.240
22019WAT      O66298   0.618   0.891   5.411
22019WAT     H166299   0.554   0.814   5.419
22019WAT     H266300   0.577   0.972   5.454
22020WAT      O66301   6.968   5.744   6.013
22020WAT     H166302   6.907   5.723   6.090
22020WAT     H266303   7.028   5.666   5.996
22021WAT      O66304   3.091   2.954   6.277
22021WAT     H166305   3.056   2.920   6.190
22021WAT     H266306   3.067   2.890   6.351
22022WAT      O66307   8.341   3.430   4.659
22022WAT     H166308   8.399   3.433   4.578
22022WAT     H266309   8.369   3.354   4.717
22023WAT      O66310   0.107   0.988   7.867
22023WAT     H166311   0.053   0.926   7.810
22023WAT     H266312   0.076   0.984   7.962
22024WAT      O66313   0.566   3.546   6.490
22024WAT     H166314   0.662   3.545   6.461
22024WAT     H266315   0.556   3.488   6.571
22025WAT      O66316   6.512   0.460   4.994
22025WAT     H166317   6.561   0.383   5.034
22025WAT     H266318   6.495   0.529   5.064
22026WAT      O66319   4.806   0.373   0.437
22026WAT     H166320   4.726   0.353   0.380
22026WAT     H266321   4.817   0.472   0.447
22027WAT      O66322   8.852   7.602   0.913
22027WAT     H166323   8.814   7.515   0.882
22027WAT     H266324   8.930   7.627   0.855
22028WAT      O66325   1.278   6.563   3.226
22028WAT     H166326   1.354   6.518   3.273
22028WAT     H266327   1.192   6.537   3.269
22029WAT      O66328   6.445   2.547   9.827
22029WAT     H166329   6.439   2.636   9.872
22029WAT     H266330   6.352   2.517   9.803
22030WAT      O66331   2.815   0.021   6.846
22030WAT     H166332   2.897   0.067   6.879
22030WAT     H266333   2.742   0.029   6.914
22031WAT      O66334   0.229   8.372   7.935
22031WAT     H166335   0.241   8.428   7.853
22031WAT     H266336   0.255   8.278   7.916
22032WAT      O66337   3.635   0.891   9.052
22032WAT     H166338   3.635   0.919   8.956
22032WAT     H266339   3.667   0.967   9.109
22033WAT      O66340   0.674   6.333   2.133
22033WAT     H166341   0.633   6.415   2.173
22033WAT     H266342   0.716   6.278   2.205
22034WAT      O66343   5.877   6.209   6.021
22034WAT     H166344   5.840   6.212   5.928
22034WAT     H266345   5.977   6.217   6.017
22035WAT      O66346   6.547   8.494   3.475
22035WAT     H166347   6.540   8.394   3.480
22035WAT     H266348   6.468   8.532   3.428
22036WAT      O66349   2.413   5.533   7.811
22036WAT     H166350   2.404   5.436   7.790
22036WAT     H266351   2.434   5.584   7.728
22037WAT      O66352   0.778   0.795   0.817
22037WAT     H166353   0.749   0.716   0.763
22037WAT     H266354   0.699   0.835   0.863
22038WAT      O66355   1.833   2.670   7.144
22038WAT     H166356   1.879   2.584   7.124
22038WAT     H266357   1.790   2.665   7.235
22039WAT      O66358   7.285   8.769   3.046
22039WAT     H166359   7.233   8.853   3.035
22039WAT     H266360   7.223   8.690   3.042
22040WAT      O66361   3.900   1.060   2.760
22040WAT     H166362   3.964   0.988   2.787
22040WAT     H266363   3.873   1.112   2.840
22041WAT      O66364   4.307   9.632   5.865
22041WAT     H166365   4.319   9.705   5.797
22041WAT     H266366   4.212   9.629   5.894
22042WAT      O66367   7.951   8.064   8.988
22042WAT     H166368   7.866   8.024   9.020
22042WAT     H266369   8.017   7.991   8.968
22043WAT      O66370   9.248   7.206   5.262
22043WAT     H166371   9.214   7.285   5.314
22043WAT     H266372   9.197   7.125   5.289
22044WAT      O66373   8.785   7.914   4.641
22044WAT     H166374   8.875   7.954   4.656
22044WAT     H266375   8.774   7.890   4.545
22045WAT      O66376   3.991   7.123   7.523
22045WAT     H166377   4.048   7.056   7.476
22045WAT     H266378   3.985   7.100   7.620
22046WAT      O66379   5.563   3.671   6.768
22046WAT     H166380   5.489   3.616   6.730
22046WAT     H266381   5.587   3.743   6.703
22047WAT      O66382   0.566   0.895   4.242
22047WAT     H166383   0.530   0.801   4.248
22047WAT     H266384   0.507   0.950   4.183
22048WAT      O66385   4.252   5.611   6.460
22048WAT     H166386   4.260   5.662   6.546
22048WAT     H266387   4.178   5.544   6.468
22049WAT      O66388   5.642   3.105   6.177
22049WAT     H166389   5.617   3.035   6.111
22049WAT     H266390   5.628   3.196   6.136
22050WAT      O66391   0.039   0.384   0.516
22050WAT     H166392   0.133   0.411   0.494
22050WAT     H266393  -0.023   0.461   0.501
22051WAT      O66394   6.755   0.980   6.642
22051WAT     H166395   6.763   0.935   6.731
22051WAT     H266396   6.845   1.011   6.611
22052WAT      O66397   8.533   5.302   5.748
22052WAT     H166398   8.462   5.251   5.798
22052WAT     H266399   8.608   5.240   5.724
22053WAT      O66400   7.686   6.546   4.778
22053WAT     H166401   7.620   6.558   4.704
22053WAT     H266402   7.646   6.488   4.850
22054WAT      O66403   5.881   8.740   8.446
22054WAT     H166404   5.940   8.672   8.488
22054WAT     H266405   5.869   8.817   8.509
22055WAT      O66406   9.366   0.163   2.183
22055WAT     H166407   9.453   0.160   2.232
22055WAT     H266408   9.334   0.070   2.166
22056WAT      O66409   1.502   9.766   0.398
22056WAT     H166410   1.537   9.735   0.487
22056WAT     H266411   1.575   9.758   0.330
22057WAT      O66412   9.711   2.905   5.836
22057WAT     H166413   9.709   2.812   5.797
22057WAT     H266414   9.632   2.956   5.803
22058WAT      O66415   9.247   3.878   6.303
22058WAT     H166416   9.297   3.965   6.307
22058WAT     H266417   9.273   3.821   6.381
22059WAT      O66418   9.797   4.549   8.114
22059WAT     H166419   9.784   4.560   8.212
22059WAT     H266420   9.717   4.503   8.075
22060WAT      O66421   0.923   1.585   5.604
22060WAT     H166422   0.838   1.534   5.619
22060WAT     H266423   0.910   1.650   5.529
22061WAT      O66424   8.538   2.600   2.068
22061WAT     H166425   8.532   2.642   1.978
22061WAT     H266426   8.458   2.541   2.083
22062WAT      O66427   9.166   5.507   0.768
22062WAT     H166428   9.265   5.498   0.760
22062WAT     H266429   9.123   5.468   0.686
22063WAT      O66430   0.248   5.063   3.748
22063WAT     H166431   0.264   5.051   3.651
22063WAT     H266432   0.312   5.130   3.785
22064WAT      O66433   0.916   8.478   7.873
22064WAT     H166434   0.860   8.413   7.925
22064WAT     H266435   0.985   8.518   7.933
22065WAT      O66436   4.767   9.356   1.254
22065WAT     H166437   4.799   9.412   1.178
22065WAT     H266438   4.801   9.262   1.243
22066WAT      O66439   4.705   8.398   2.628
22066WAT     H166440   4.746   8.477   2.582
22066WAT     H266441   4.777   8.347   2.676
22067WAT      O66442   5.917   1.804   2.185
22067WAT     H166443   5.834   1.860   2.189
22067WAT     H266444   5.983   1.838   2.253
22068WAT      O66445   6.562   6.670   3.683
22068WAT     H166446   6.632   6.729   3.722
22068WAT     H266447   6.494   6.648   3.752
22069WAT      O66448   6.935   5.058   3.566
22069WAT     H166449   6.981   5.037   3.652
22069WAT     H266450   6.837   5.044   3.575
22070WAT      O66451   0.748   9.561   8.963
22070WAT     H166452   0.793   9.473   8.944
22070WAT     H266453   0.735   9.611   8.877
22071WAT      O66454   0.252   0.971   4.742
22071WAT     H166455   0.286   0.879   4.720
22071WAT     H266456   0.243   0.980   4.842
22072WAT      O66457   3.897   6.925   3.581
22072WAT     H166458   3.901   6.857   3.655
22072WAT     H266459   3.851   6.885   3.502
22073WAT      O66460   9.161   8.391   9.211
22073WAT     H166461   9.149   8.487   9.233
22073WAT     H266462   9.241   8.355   9.259
22074WAT      O66463   8.911   4.331   2.202
22074WAT     H166464   8.969   4.294   2.130
22074WAT     H266465   8.930   4.429   2.213
22075WAT      O66466   9.291   0.551   2.195
22075WAT     H166467   9.378   0.506   2.213
22075WAT     H266468   9.223   0.523   2.264
22076WAT      O66469   5.177   3.878   7.318
22076WAT     H166470   5.188   3.880   7.219
22076WAT     H266471   5.262   3.845   7.360
22077WAT      O66472   7.469   0.774   0.754
22077WAT     H166473   7.485   0.867   0.719
22077WAT     H266474   7.414   0.723   0.688
22078WAT      O66475   6.412   7.530   9.407
22078WAT     H166476   6.337   7.487   9.457
22078WAT     H266477   6.489   7.466   9.400
22079WAT      O66478   0.936   4.579   1.920
22079WAT     H166479   0.862   4.545   1.861
22079WAT     H266480   0.999   4.634   1.865
22080WAT      O66481   2.192   9.009   6.228
22080WAT     H166482   2.196   9.015   6.128
22080WAT     H266483   2.271   9.056   6.267
22081WAT      O66484   0.046   8.203   6.208
22081WAT     H166485  -0.010   8.216   6.290
22081WAT     H266486   0.141   8.186   6.234
22082WAT      O66487   8.792   6.885   1.111
22082WAT     H166488   8.741   6.963   1.149
22082WAT     H266489   8.748   6.800   1.140
22083WAT      O66490   7.251   1.625   3.784
22083WAT     H166491   7.210   1.548   3.735
22083WAT     H266492   7.310   1.676   3.721
22084WAT      O66493   3.572   1.459   0.272
22084WAT     H166494   3.643   1.399   0.235
22084WAT     H266495   3.487   1.408   0.281
22085WAT      O66496   9.126   1.840   9.857
22085WAT     H166497   9.077   1.800   9.779
22085WAT     H266498   9.065   1.903   9.905
22086WAT      O66499   8.335   2.305   8.545
22086WAT     H166500   8.348   2.295   8.644
22086WAT     H266501   8.391   2.236   8.498
22087WAT      O66502   7.925   7.154   5.926
22087WAT     H166503   7.999   7.127   5.988
22087WAT     H266504   7.844   7.099   5.946
22088WAT      O66505   9.622   0.950   6.033
22088WAT     H166506   9.551   0.996   6.086
22088WAT     H266507   9.600   0.853   6.023
22089WAT      O66508   5.157   0.787   2.534
22089WAT     H166509   5.091   0.838   2.479
22089WAT     H266510   5.195   0.847   2.604
22090WAT      O66511   0.948   9.365   5.254
22090WAT     H166512   0.998   9.374   5.168
22090WAT     H266513   0.928   9.456   5.291
22091WAT      O66514   3.173   9.553   6.310
22091WAT     H166515   3.215   9.639   6.280
22091WAT     H266516   3.074   9.556   6.293
22092WAT      O66517   8.281   6.111   6.285
22092WAT     H166518   8.273   6.167   6.203
22092WAT     H266519   8.194   6.066   6.304
22093WAT      O66520   2.213   2.726   6.335
22093WAT     H166521   2.307   2.719   6.299
22093WAT     H266522   2.206   2.674   6.420
22094WAT      O66523   1.139   3.058   9.511
22094WAT     H166524   1.081   2.979   9.489
22094WAT     H266525   1.132   3.126   9.439
22095WAT      O66526   8.077   1.529   7.077
22095WAT     H166527   8.063   1.557   6.982
22095WAT     H266528   8.028   1.444   7.094
22096WAT      O66529   1.597   0.718   8.411
22096WAT     H166530   1.558   0.628   8.392
22096WAT     H266531   1.665   0.741   8.341
22097WAT      O66532   7.665   4.596   7.417
22097WAT     H166533   7.734   4.642   7.361
22097WAT     H266534   7.699   4.589   7.511
22098WAT      O66535   3.421   2.662   6.119
22098WAT     H166536   3.485   2.720   6.069
22098WAT     H266537   3.428   2.568   6.084
22099WAT      O66538   2.249   3.811   7.306
22099WAT     H166539   2.181   3.753   7.351
22099WAT     H266540   2.204   3.894   7.271
22100WAT      O66541   8.295   5.117   3.192
22100WAT     H166542   8.390   5.105   3.220
22100WAT     H266543   8.259   5.201   3.232
22101WAT      O66544   8.668   3.569   6.628
22101WAT     H166545   8.740   3.611   6.572
22101WAT     H266546   8.617   3.641   6.675
22102WAT      O66547   3.889   7.773   4.064
22102WAT     H166548   3.895   7.872   4.071
22102WAT     H266549   3.912   7.745   3.971
22103WAT      O66550   6.021   2.683   5.485
22103WAT     H166551   6.070   2.665   5.400
22103WAT     H266552   5.957   2.759   5.471
22104WAT      O66553   7.444   4.418   9.732
22104WAT     H166554   7.486   4.411   9.641
22104WAT     H266555   7.453   4.512   9.766
22105WAT      O66556   4.759   6.337   4.671
22105WAT     H166557   4.774   6.432   4.701
22105WAT     H266558   4.798   6.325   4.580
22106WAT      O66559   4.675   2.495   3.137
22106WAT     H166560   4.599   2.469   3.078
22106WAT     H266561   4.676   2.437   3.218
22107WAT      O66562   8.886   0.317   3.771
22107WAT     H166563   8.894   0.401   3.825
22107WAT     H266564   8.881   0.238   3.832
22108WAT      O66565   3.199   7.148   1.719
22108WAT     H166566   3.189   7.062   1.668
22108WAT     H266567   3.283   7.193   1.690
22109WAT      O66568   4.561   8.798   4.126
22109WAT     H166569   4.526   8.877   4.177
22109WAT     H266570   4.507   8.717   4.148
22110WAT      O66571   1.184   5.842   0.628
22110WAT     H166572   1.220   5.934   0.645
22110WAT     H266573   1.172   5.793   0.714
22111WAT      O66574   3.648   0.553   3.111
22111WAT     H166575   3.565   0.544   3.165
22111WAT     H266576   3.685   0.645   3.121
22112WAT      O66577   7.964   2.699   4.652
22112WAT     H166578   8.012   2.754   4.721
22112WAT     H266579   8.019   2.619   4.628
22113WAT      O66580   5.362   0.515   0.130
22113WAT     H166581   5.346   0.510   0.032
22113WAT     H266582   5.342   0.427   0.173
22114WAT      O66583   1.121   1.549   1.707
22114WAT     H166584   1.088   1.455   1.703
22114WAT     H266585   1.199   1.554   1.770
22115WAT      O66586   8.913   1.053   2.119
22115WAT     H166587   8.941   1.025   2.027
22115WAT     H266588   8.885   0.973   2.172
22116WAT      O66589   4.370   7.546   5.020
22116WAT     H166590   4.406   7.454   5.035
22116WAT     H266591   4.394   7.605   5.097
22117WAT      O66592   8.217   2.479   0.321
22117WAT     H166593   8.174   2.488   0.231
22117WAT     H266594   8.316   2.468   0.309
22118WAT      O66595   4.696   0.791   4.942
22118WAT     H166596   4.661   0.883   4.933
22118WAT     H266597   4.772   0.790   5.009
22119WAT      O66598   6.920   3.233   3.437
22119WAT     H166599   6.843   3.187   3.392
22119WAT     H266600   6.940   3.318   3.389
22120WAT      O66601   2.816   2.408   7.202
22120WAT     H166602   2.788   2.317   7.173
22120WAT     H266603   2.798   2.474   7.129
22121WAT      O66604   6.362   8.507   0.910
22121WAT     H166605   6.336   8.420   0.868
22121WAT     H266606   6.383   8.492   1.007
22122WAT      O66607   4.031   9.303   3.983
22122WAT     H166608   3.974   9.237   3.934
22122WAT     H266609   3.978   9.386   4.001
22123WAT      O66610   0.900   8.689   9.394
22123WAT     H166611   0.879   8.600   9.436
22123WAT     H266612   0.960   8.741   9.455
22124WAT      O66613   9.368   4.125   7.352
22124WAT     H166614   9.466   4.111   7.334
22124WAT     H266615   9.352   4.122   7.451
22125WAT      O66616   0.368   2.691   6.623
22125WAT     H166617   0.398   2.635   6.546
22125WAT     H266618   0.402   2.651   6.709
22126WAT      O66619   6.639   8.716   2.700
22126WAT     H166620   6.692   8.769   2.634
22126WAT     H266621   6.555   8.683   2.656
22127WAT      O66622   6.096   0.329   8.944
22127WAT     H166623   6.067   0.263   8.876
22127WAT     H266624   6.041   0.412   8.935
22128WAT      O66625   3.094   6.244   8.114
22128WAT     H166626   3.074   6.250   8.016
22128WAT     H266627   3.184   6.202   8.127
22129WAT      O66628   8.726   5.456   2.443
22129WAT     H166629   8.815   5.483   2.408
22129WAT     H266630   8.688   5.384   2.384
22130WAT      O66631   4.949   9.465   2.664
22130WAT     H166632   4.949   9.462   2.564
22130WAT     H266633   5.036   9.501   2.697
22131WAT      O66634   8.190   0.214   6.152
22131WAT     H166635   8.132   0.186   6.076
22131WAT     H266636   8.259   0.279   6.120
22132WAT      O66637   1.942   4.667   3.794
22132WAT     H166638   1.927   4.586   3.850
22132WAT     H266639   1.858   4.689   3.744
22133WAT      O66640   6.944   5.907   3.197
22133WAT     H166641   6.935   5.816   3.237
22133WAT     H266642   7.016   5.958   3.245
22134WAT      O66643   1.411   5.666   6.552
22134WAT     H166644   1.432   5.679   6.455
22134WAT     H266645   1.494   5.679   6.606
22135WAT      O66646   1.038   9.123   7.827
22135WAT     H166647   0.939   9.140   7.825
22135WAT     H266648   1.057   9.044   7.886
22136WAT      O66649   5.820   7.004   3.532
22136WAT     H166650   5.859   6.995   3.440
22136WAT     H266651   5.740   6.944   3.540
22137WAT      O66652   1.048   5.823   4.694
22137WAT     H166653   1.072   5.784   4.605
22137WAT     H266654   1.131   5.832   4.750
22138WAT      O66655   0.829   7.072   4.076
22138WAT     H166656   0.854   7.059   4.172
22138WAT     H266657   0.900   7.032   4.017
22139WAT      O66658   9.231   6.902   6.359
22139WAT     H166659   9.313   6.902   6.417
22139WAT     H266660   9.168   6.972   6.391
22140WAT      O66661   0.885   3.799   7.626
22140WAT     H166662   0.937   3.781   7.709
22140WAT     H266663   0.816   3.870   7.645
22141WAT      O66664   7.596   0.354   4.404
22141WAT     H166665   7.679   0.331   4.353
22141WAT     H266666   7.587   0.292   4.483
22142WAT      O66667   3.976   6.956   8.495
22142WAT     H166668   3.916   6.882   8.466
22142WAT     H266669   4.021   6.997   8.416
22143WAT      O66670   1.011   1.014   9.487
22143WAT     H166671   0.922   0.968   9.485
22143WAT     H266672   1.012   1.082   9.560
22144WAT      O66673   5.314   6.172   6.048
22144WAT     H166674   5.340   6.219   5.964
22144WAT     H266675   5.276   6.237   6.114
22145WAT      O66676   9.153   8.863   7.404
22145WAT     H166677   9.226   8.878   7.338
22145WAT     H266678   9.181   8.793   7.470
22146WAT      O66679   5.410   9.807   2.374
22146WAT     H166680   5.315   9.827   2.350
22146WAT     H266681   5.439   9.723   2.328
22147WAT      O66682   8.826   0.538   2.211
22147WAT     H166683   8.728   0.529   2.196
22147WAT     H266684   8.876   0.494   2.136
22148WAT      O66685   6.246   8.895   0.301
22148WAT     H166686   6.326   8.866   0.250
22148WAT     H266687   6.274   8.958   0.374
22149WAT      O66688   3.872   4.338   3.752
22149WAT     H166689   3.901   4.386   3.669
22149WAT     H266690   3.785   4.376   3.784
22150WAT      O66691   3.389   6.097   2.386
22150WAT     H166692   3.395   6.168   2.316
22150WAT     H266693   3.332   6.021   2.352
22151WAT      O66694   1.557   0.919   0.851
22151WAT     H166695   1.640   0.913   0.795
22151WAT     H266696   1.557   0.845   0.918
22152WAT      O66697   6.586   4.923   7.628
22152WAT     H166698   6.570   4.935   7.726
22152WAT     H266699   6.549   5.002   7.578
22153WAT      O66700   7.059   0.111   0.029
22153WAT     H166701   7.006   0.036  -0.011
22153WAT     H266702   7.052   0.192  -0.030
22154WAT      O66703   2.278   8.674   4.514
22154WAT     H166704   2.223   8.734   4.456
22154WAT     H266705   2.314   8.598   4.459
22155WAT      O66706   2.763   9.384   2.787
22155WAT     H166707   2.698   9.320   2.827
22155WAT     H266708   2.764   9.374   2.688
22156WAT      O66709   9.155   3.640   1.021
22156WAT     H166710   9.173   3.727   1.067
22156WAT     H266711   9.127   3.657   0.927
22157WAT      O66712   4.241   3.546   1.720
22157WAT     H166713   4.257   3.626   1.661
22157WAT     H266714   4.213   3.577   1.811
22158WAT      O66715   2.861   8.201   0.860
22158WAT     H166716   2.834   8.104   0.862
22158WAT     H266717   2.886   8.226   0.766
22159WAT      O66718   5.262   8.121   2.570
22159WAT     H166719   5.298   8.197   2.517
22159WAT     H266720   5.326   8.045   2.567
22160WAT      O66721   7.856   9.072   1.120
22160WAT     H166722   7.920   9.074   1.197
22160WAT     H266723   7.848   9.164   1.081
22161WAT      O66724   2.463   6.525   6.316
22161WAT     H166725   2.481   6.427   6.319
22161WAT     H266726   2.425   6.555   6.403
22162WAT      O66727   1.034   6.749   6.170
22162WAT     H166728   0.972   6.671   6.163
22162WAT     H266729   1.100   6.746   6.095
22163WAT      O66730   3.474   4.169   7.215
22163WAT     H166731   3.574   4.158   7.213
22163WAT     H266732   3.431   4.094   7.166
22164WAT      O66733   3.037   3.008   2.738
22164WAT     H166734   2.999   2.941   2.802
22164WAT     H266735   3.097   3.071   2.787
22165WAT      O66736   0.202   2.823   9.408
22165WAT     H166737   0.166   2.826   9.502
22165WAT     H266738   0.298   2.848   9.409
22166WAT      O66739   7.593   2.469   0.428
22166WAT     H166740   7.572   2.557   0.385
22166WAT     H266741   7.684   2.473   0.469
22167WAT      O66742   3.238   8.921   7.222
22167WAT     H166743   3.301   8.847   7.247
22167WAT     H266744   3.151   8.882   7.192
22168WAT      O66745   3.190   1.834   6.640
22168WAT     H166746   3.258   1.825   6.568
22168WAT     H266747   3.118   1.896   6.609
22169WAT      O66748   6.338   7.287   7.216
22169WAT     H166749   6.257   7.346   7.209
22169WAT     H266750   6.351   7.239   7.130
22170WAT      O66751   0.379   9.717   4.946
22170WAT     H166752   0.424   9.648   5.003
22170WAT     H266753   0.282   9.696   4.938
22171WAT      O66754   5.275   0.149   4.491
22171WAT     H166755   5.330   0.136   4.407
22171WAT     H266756   5.336   0.155   4.570
22172WAT      O66757   5.134   6.713   6.088
22172WAT     H166758   5.087   6.802   6.092
22172WAT     H266759   5.070   6.641   6.113
22173WAT      O66760   2.718   7.623   7.130
22173WAT     H166761   2.735   7.657   7.038
22173WAT     H266762   2.623   7.638   7.155
22174WAT      O66763   6.522   1.291   9.545
22174WAT     H166764   6.525   1.275   9.446
22174WAT     H266765   6.446   1.239   9.585
22175WAT      O66766   8.932   7.729   1.805
22175WAT     H166767   8.946   7.768   1.896
22175WAT     H266768   8.837   7.699   1.796
22176WAT      O66769   0.772   0.644   9.343
22176WAT     H166770   0.869   0.624   9.356
22176WAT     H266771   0.757   0.675   9.249
22177WAT      O66772   0.929   0.586   7.009
22177WAT     H166773   0.946   0.490   6.985
22177WAT     H266774   0.859   0.590   7.080
22178WAT      O66775   0.177   0.280   9.579
22178WAT     H166776   0.195   0.326   9.666
22178WAT     H266777   0.123   0.197   9.596
22179WAT      O66778   7.323   1.519   0.390
22179WAT     H166779   7.247   1.530   0.453
22179WAT     H266780   7.307   1.574   0.308
22180WAT      O66781   6.199   1.692   8.699
22180WAT     H166782   6.127   1.675   8.766
22180WAT     H266783   6.288   1.681   8.744
22181WAT      O66784   9.349   0.503   6.449
22181WAT     H166785   9.294   0.559   6.387
22181WAT     H266786   9.289   0.455   6.513
22182WAT      O66787   6.933   1.578   7.512
22182WAT     H166788   7.016   1.558   7.564
22182WAT     H266789   6.882   1.494   7.497
22183WAT      O66790   7.566   8.424   8.640
22183WAT     H166791   7.554   8.359   8.565
22183WAT     H266792   7.481   8.429   8.693
22184WAT      O66793   3.056   8.571   0.776
22184WAT     H166794   3.056   8.645   0.842
22184WAT     H266795   2.964   8.559   0.738
22185WAT      O66796   3.774   9.142   0.036
22185WAT     H166797   3.798   9.221   0.092
22185WAT     H266798   3.745   9.172  -0.055
22186WAT      O66799   2.268   9.729   2.229
22186WAT     H166800   2.340   9.693   2.289
22186WAT     H266801   2.295   9.819   2.195
22187WAT      O66802   3.928   7.282   0.325
22187WAT     H166803   3.951   7.260   0.230
22187WAT     H266804   3.906   7.380   0.331
22188WAT      O66805   2.666   7.932   8.842
22188WAT     H166806   2.698   7.841   8.867
22188WAT     H266807   2.702   7.957   8.752
22189WAT      O66808   1.842   5.733   8.776
22189WAT     H166809   1.881   5.705   8.865
22189WAT     H266810   1.916   5.759   8.715
22190WAT      O66811   5.511   4.809   9.402
22190WAT     H166812   5.600   4.831   9.364
22190WAT     H266813   5.510   4.829   9.500
22191WAT      O66814   2.963   3.750   3.608
22191WAT     H166815   2.883   3.805   3.630
22191WAT     H266816   3.001   3.780   3.520
22192WAT      O66817   6.635   9.478   0.961
22192WAT     H166818   6.732   9.495   0.941
22192WAT     H266819   6.625   9.385   0.995
22193WAT      O66820   9.766   4.284   7.180
22193WAT     H166821   9.762   4.203   7.122
22193WAT     H266822   9.673   4.320   7.193
22194WAT      O66823   5.518   5.166   7.182
22194WAT     H166824   5.455   5.096   7.215
22194WAT     H266825   5.556   5.137   7.094
22195WAT      O66826   5.933   2.460   2.237
22195WAT     H166827   6.018   2.436   2.285
22195WAT     H266828   5.908   2.554   2.259
22196WAT      O66829   7.367   9.610   5.192
22196WAT     H166830   7.444   9.640   5.248
22196WAT     H266831   7.288   9.669   5.210
22197WAT      O66832   8.538   3.716   9.474
22197WAT     H166833   8.589   3.701   9.389
22197WAT     H266834   8.447   3.677   9.465
22198WAT      O66835   3.069   1.140   2.868
22198WAT     H166836   3.087   1.159   2.964
22198WAT     H266837   2.983   1.091   2.859
22199WAT      O66838   3.241   5.134   2.144
22199WAT     H166839   3.294   5.157   2.226
22199WAT     H266840   3.258   5.202   2.073
22200WAT      O66841   6.662   7.159   8.010
22200WAT     H166842   6.660   7.211   8.095
22200WAT     H266843   6.662   7.223   7.932
22201WAT      O66844   4.708   5.747   6.223
22201WAT     H166845   4.652   5.830   6.219
22201WAT     H266846   4.657   5.675   6.271
22202WAT      O66847   7.308   9.466   4.189
22202WAT     H166848   7.256   9.493   4.108
22202WAT     H266849   7.251   9.480   4.270
22203WAT      O66850   8.405   8.630   6.297
22203WAT     H166851   8.444   8.543   6.329
22203WAT     H266852   8.478   8.697   6.288
22204WAT      O66853   7.369   5.183   6.668
22204WAT     H166854   7.288   5.136   6.704
22204WAT     H266855   7.415   5.123   6.603
22205WAT      O66856   2.053   7.277   4.214
22205WAT     H166857   2.038   7.223   4.297
22205WAT     H266858   2.151   7.290   4.199
22206WAT      O66859   5.553   6.227   8.739
22206WAT     H166860   5.590   6.319   8.734
22206WAT     H266861   5.470   6.221   8.684
22207WAT      O66862   6.382   2.932   0.696
22207WAT     H166863   6.371   2.975   0.785
22207WAT     H266864   6.479   2.920   0.675
22208WAT      O66865   6.069   2.375   4.755
22208WAT     H166866   5.996   2.350   4.691
22208WAT     H266867   6.124   2.449   4.715
22209WAT      O66868   9.379   3.213   0.337
22209WAT     H166869   9.475   3.185   0.336
22209WAT     H266870   9.355   3.251   0.247
22210WAT      O66871   5.895   7.769   0.047
22210WAT     H166872   5.838   7.728   0.118
22210WAT     H266873   5.902   7.868   0.064
22211WAT      O66874   7.539   1.222   3.697
22211WAT     H166875   7.630   1.181   3.706
22211WAT     H266876   7.548   1.322   3.690
22212WAT      O66877   0.139   6.436   7.530
22212WAT     H166878   0.124   6.392   7.618
22212WAT     H266879   0.222   6.398   7.488
22213WAT      O66880   6.467   0.193   2.268
22213WAT     H166881   6.424   0.104   2.275
22213WAT     H266882   6.526   0.208   2.348
22214WAT      O66883   4.712   5.881   1.509
22214WAT     H166884   4.713   5.961   1.568
22214WAT     H266885   4.620   5.840   1.509
22215WAT      O66886   9.110   0.221   2.814
22215WAT     H166887   9.173   0.143   2.809
22215WAT     H266888   9.099   0.249   2.910
22216WAT      O66889   6.856   8.613   4.532
22216WAT     H166890   6.807   8.551   4.471
22216WAT     H266891   6.922   8.667   4.480
22217WAT      O66892   0.571   1.632   4.300
22217WAT     H166893   0.486   1.593   4.264
22217WAT     H266894   0.605   1.574   4.374
22218WAT      O66895   3.690   8.895   2.251
22218WAT     H166896   3.724   8.806   2.221
22218WAT     H266897   3.669   8.892   2.349
22219WAT      O66898   1.718   5.301   5.979
22219WAT     H166899   1.770   5.350   6.049
22219WAT     H266900   1.626   5.342   5.972
22220WAT      O66901   4.818   2.135   1.506
22220WAT     H166902   4.770   2.219   1.480
22220WAT     H266903   4.777   2.057   1.457
22221WAT      O66904   5.656   2.031   2.577
22221WAT     H166905   5.621   1.957   2.636
22221WAT     H266906   5.734   1.997   2.525
22222WAT      O66907   2.548   4.548   1.020
22222WAT     H166908   2.448   4.548   1.019
22222WAT     H266909   2.580   4.628   1.071
22223WAT      O66910   6.280   2.382   5.582
22223WAT     H166911   6.267   2.390   5.483
22223WAT     H266912   6.202   2.335   5.623
22224WAT      O66913   9.471   9.294   7.603
22224WAT     H166914   9.457   9.245   7.517
22224WAT     H266915   9.526   9.237   7.664
22225WAT      O66916   9.154   8.946   8.661
22225WAT     H166917   9.076   9.004   8.683
22225WAT     H266918   9.136   8.853   8.693
22226WAT      O66919   0.332   4.145   7.556
22226WAT     H166920   0.233   4.136   7.547
22226WAT     H266921   0.357   4.160   7.651
22227WAT      O66922   5.360   4.465   2.877
22227WAT     H166923   5.300   4.523   2.822
22227WAT     H266924   5.453   4.468   2.840
22228WAT      O66925   1.414   8.166   7.071
22228WAT     H166926   1.455   8.092   7.018
22228WAT     H266927   1.395   8.134   7.164
22229WAT      O66928   6.603   9.254   1.816
22229WAT     H166929   6.614   9.328   1.750
22229WAT     H266930   6.511   9.257   1.855
22230WAT      O66931   9.784   5.059   6.592
22230WAT     H166932   9.748   4.972   6.627
22230WAT     H266933   9.760   5.133   6.654
22231WAT      O66934   5.202   1.078   3.173
22231WAT     H166935   5.220   1.175   3.156
22231WAT     H266936   5.270   1.042   3.236
22232WAT      O66937   6.535   5.667   4.805
22232WAT     H166938   6.545   5.759   4.844
22232WAT     H266939   6.497   5.673   4.713
22233WAT      O66940   7.511   2.534   2.490
22233WAT     H166941   7.476   2.473   2.561
22233WAT     H266942   7.520   2.484   2.404
22234WAT      O66943   6.307   4.455   2.312
22234WAT     H166944   6.307   4.496   2.220
22234WAT     H266945   6.376   4.383   2.316
22235WAT      O66946   3.440   5.756   0.139
22235WAT     H166947   3.404   5.846   0.162
22235WAT     H266948   3.401   5.687   0.201
22236WAT      O66949   9.196   8.943   0.963
22236WAT     H166950   9.113   8.924   1.015
22236WAT     H266951   9.266   8.982   1.023
22237WAT      O66952   6.004   8.177   0.007
22237WAT     H166953   5.991   8.254   0.070
22237WAT     H266954   6.101   8.156   0.000
22238WAT      O66955   8.337   0.562   8.378
22238WAT     H166956   8.366   0.506   8.300
22238WAT     H266957   8.285   0.641   8.344
22239WAT      O66958   4.831   3.964   5.846
22239WAT     H166959   4.818   4.051   5.893
22239WAT     H266960   4.747   3.938   5.799
22240WAT      O66961   7.904   9.775   0.435
22240WAT     H166962   7.854   9.861   0.432
22240WAT     H266963   7.883   9.728   0.521
22241WAT      O66964   3.713   4.111   6.199
22241WAT     H166965   3.801   4.114   6.151
22241WAT     H266966   3.640   4.136   6.136
22242WAT      O66967   5.223   8.884   2.737
22242WAT     H166968   5.274   8.964   2.770
22242WAT     H266969   5.288   8.813   2.712
22243WAT      O66970   0.180   2.674   4.763
22243WAT     H166971   0.279   2.671   4.749
22243WAT     H266972   0.158   2.643   4.855
22244WAT      O66973   9.019   1.407   1.152
22244WAT     H166974   9.081   1.444   1.083
22244WAT     H266975   9.072   1.381   1.233
22245WAT      O66976   6.833   2.948   2.791
22245WAT     H166977   6.893   2.870   2.771
22245WAT     H266978   6.883   3.033   2.779
22246WAT      O66979   7.884   1.459   0.163
22246WAT     H166980   7.964   1.476   0.107
22246WAT     H266981   7.878   1.529   0.235
22247WAT      O66982   8.616   2.675   9.457
22247WAT     H166983   8.594   2.656   9.361
22247WAT     H266984   8.554   2.625   9.516
22248WAT      O66985   3.725   0.060   0.237
22248WAT     H166986   3.809   0.057   0.182
22248WAT     H266987   3.750   0.071   0.333
22249WAT      O66988   6.194   8.095   2.175
22249WAT     H166989   6.278   8.107   2.228
22249WAT     H266990   6.122   8.060   2.235
22250WAT      O66991   2.089   1.635   2.774
22250WAT     H166992   2.039   1.560   2.818
22250WAT     H266993   2.187   1.624   2.790
22251WAT      O66994   3.914   1.678   3.486
22251WAT     H166995   3.876   1.639   3.569
22251WAT     H266996   3.898   1.617   3.409
22252WAT      O66997   8.077   7.889   1.304
22252WAT     H166998   8.131   7.825   1.248
22252WAT     H266999   8.099   7.983   1.276
22253WAT      O67000   2.216   8.006   2.211
22253WAT     H167001   2.141   8.028   2.149
22253WAT     H267002   2.195   7.920   2.258
22254WAT      O67003   4.007   2.178   5.341
22254WAT     H167004   3.909   2.194   5.335
22254WAT     H267005   4.056   2.254   5.298
22255WAT      O67006   7.163   3.673   6.749
22255WAT     H167007   7.246   3.719   6.782
22255WAT     H267008   7.145   3.700   6.655
22256WAT      O67009   0.998   6.572   3.247
22256WAT     H167010   0.948   6.489   3.222
22256WAT     H267011   0.937   6.635   3.296
22257WAT      O67012   7.590   9.369   3.178
22257WAT     H167013   7.660   9.299   3.163
22257WAT     H267014   7.503   9.339   3.137
22258WAT      O67015   3.136   9.831   8.808
22258WAT     H167016   3.203   9.864   8.874
22258WAT     H267017   3.183   9.792   8.728
22259WAT      O67018   0.511   1.344   6.253
22259WAT     H167019   0.490   1.428   6.202
22259WAT     H267020   0.605   1.348   6.286
22260WAT      O67021   4.811   5.741   4.283
22260WAT     H167022   4.909   5.753   4.266
22260WAT     H267023   4.786   5.645   4.268
22261WAT      O67024   8.646   2.979   8.061
22261WAT     H167025   8.580   2.913   8.025
22261WAT     H267026   8.734   2.933   8.074
22262WAT      O67027   3.359   4.371   5.781
22262WAT     H167028   3.337   4.374   5.683
22262WAT     H267029   3.424   4.443   5.802
22263WAT      O67030   3.448   5.481   9.785
22263WAT     H167031   3.478   5.424   9.861
22263WAT     H267032   3.525   5.536   9.752
22264WAT      O67033   3.342   4.430   8.800
22264WAT     H167034   3.414   4.360   8.802
22264WAT     H267035   3.255   4.390   8.827
22265WAT      O67036   5.746   0.802   0.785
22265WAT     H167037   5.735   0.892   0.742
22265WAT     H267038   5.712   0.806   0.879
22266WAT      O67039   2.762   3.123   9.319
22266WAT     H167040   2.715   3.157   9.238
22266WAT     H267041   2.720   3.038   9.349
22267WAT      O67042   8.210   3.563   0.189
22267WAT     H167043   8.308   3.558   0.166
22267WAT     H267044   8.199   3.620   0.271
22268WAT      O67045   8.111   0.143   8.615
22268WAT     H167046   8.135   0.109   8.524
22268WAT     H267047   8.176   0.108   8.682
22269WAT      O67048   3.710   2.176   7.010
22269WAT     H167049   3.612   2.190   7.004
22269WAT     H267050   3.730   2.080   7.029
22270WAT      O67051   3.840   1.998   1.730
22270WAT     H167052   3.813   2.092   1.705
22270WAT     H267053   3.939   1.989   1.721
22271WAT      O67054   2.065   0.398   5.617
22271WAT     H167055   2.120   0.482   5.611
22271WAT     H267056   2.021   0.394   5.707
22272WAT      O67057   8.683   7.191   2.333
22272WAT     H167058   8.690   7.221   2.428
22272WAT     H267059   8.738   7.251   2.275
22273WAT      O67060   4.838   3.042   4.441
22273WAT     H167061   4.882   2.986   4.372
22273WAT     H267062   4.900   3.115   4.470
22274WAT      O67063   4.659   1.796   9.626
22274WAT     H167064   4.712   1.847   9.693
22274WAT     H267065   4.660   1.845   9.538
22275WAT      O67066   6.271   7.394   9.810
22275WAT     H167067   6.280   7.297   9.834
22275WAT     H267068   6.362   7.433   9.796
22276WAT      O67069   7.406   2.330   4.409
22276WAT     H167070   7.498   2.343   4.445
22276WAT     H267071   7.388   2.398   4.338
22277WAT      O67072   1.677   8.180   0.388
22277WAT     H167073   1.640   8.258   0.336
22277WAT     H267074   1.669   8.198   0.486
22278WAT      O67075   1.214   7.561   9.080
22278WAT     H167076   1.300   7.512   9.071
22278WAT     H267077   1.222   7.630   9.151
22279WAT      O67078   3.763   8.273   4.957
22279WAT     H167079   3.717   8.362   4.958
22279WAT     H267080   3.768   8.237   5.051
22280WAT      O67081   3.744   7.563   4.128
22280WAT     H167082   3.797   7.643   4.101
22280WAT     H267083   3.729   7.564   4.227
22281WAT      O67084   4.796   7.352   7.387
22281WAT     H167085   4.699   7.376   7.388
22281WAT     H267086   4.814   7.287   7.313
22282WAT      O67087   2.360   6.503   8.608
22282WAT     H167088   2.386   6.447   8.686
22282WAT     H267089   2.260   6.503   8.599
22283WAT      O67090   7.621   7.987   3.112
22283WAT     H167091   7.594   8.012   3.205
22283WAT     H267092   7.550   8.017   3.048
22284WAT      O67093   7.542   8.454   5.453
22284WAT     H167094   7.449   8.421   5.435
22284WAT     H267095   7.563   8.530   5.391
22285WAT      O67096   2.773   4.104   1.067
22285WAT     H167097   2.694   4.163   1.083
22285WAT     H267098   2.825   4.095   1.152
22286WAT      O67099   9.051   3.258   9.715
22286WAT     H167100   9.060   3.175   9.770
22286WAT     H267101   9.101   3.247   9.629
22287WAT      O67102   1.608   7.325   2.525
22287WAT     H167103   1.643   7.397   2.585
22287WAT     H267104   1.648   7.237   2.554
22288WAT      O67105   4.692   3.803   0.465
22288WAT     H167106   4.658   3.728   0.522
22288WAT     H267107   4.758   3.767   0.398
22289WAT      O67108   3.226   6.818   4.954
22289WAT     H167109   3.244   6.721   4.970
22289WAT     H267110   3.212   6.833   4.856
22290WAT      O67111   5.858   7.990   5.045
22290WAT     H167112   5.771   7.959   5.083
22290WAT     H267113   5.884   8.077   5.087
22291WAT      O67114   3.403   1.476   9.838
22291WAT     H167115   3.356   1.532   9.906
22291WAT     H267116   3.444   1.397   9.883
22292WAT      O67117   5.115   8.339   6.817
22292WAT     H167118   5.053   8.388   6.879
22292WAT     H267119   5.198   8.394   6.803
22293WAT      O67120   9.762   4.113   8.651
22293WAT     H167121   9.786   4.182   8.582
22293WAT     H267122   9.821   4.125   8.731
22294WAT      O67123   4.706   3.302   9.858
22294WAT     H167124   4.691   3.215   9.903
22294WAT     H267125   4.707   3.376   9.926
22295WAT      O67126   7.047   1.709   0.171
22295WAT     H167127   6.976   1.753   0.227
22295WAT     H267128   7.006   1.676   0.086
22296WAT      O67129   3.995   6.658   0.916
22296WAT     H167130   3.917   6.717   0.938
22296WAT     H267131   3.992   6.576   0.974
22297WAT      O67132   0.313   9.117   0.276
22297WAT     H167133   0.385   9.177   0.241
22297WAT     H267134   0.339   9.022   0.261
22298WAT      O67135   3.475   4.270   2.341
22298WAT     H167136   3.540   4.273   2.266
22298WAT     H267137   3.471   4.178   2.379
22299WAT      O67138   0.091   1.567   6.727
22299WAT     H167139   0.160   1.602   6.663
22299WAT     H267140   0.027   1.640   6.749
22300WAT      O67141   7.571   5.221   4.206
22300WAT     H167142   7.631   5.218   4.126
22300WAT     H267143   7.577   5.134   4.255
22301WAT      O67144   9.495   3.559   6.038
22301WAT     H167145   9.457   3.480   5.991
22301WAT     H267146   9.510   3.633   5.971
22302WAT      O67147   7.683   6.121   8.696
22302WAT     H167148   7.599   6.172   8.713
22302WAT     H267149   7.759   6.185   8.685
22303WAT      O67150   7.850   1.732   4.126
22303WAT     H167151   7.752   1.744   4.108
22303WAT     H267152   7.887   1.663   4.064
22304WAT      O67153   2.312   0.205   0.442
22304WAT     H167154   2.370   0.282   0.416
22304WAT     H267155   2.217   0.225   0.419
22305WAT      O67156   8.884   7.844   2.734
22305WAT     H167157   8.869   7.795   2.819
22305WAT     H267158   8.835   7.932   2.737
22306WAT      O67159   2.079   0.582   6.755
22306WAT     H167160   2.039   0.673   6.743
22306WAT     H267161   2.020   0.528   6.815
22307WAT      O67162   9.786   8.167   4.897
22307WAT     H167163   9.869   8.126   4.935
22307WAT     H267164   9.754   8.240   4.957
22308WAT      O67165   1.488   4.195   4.858
22308WAT     H167166   1.491   4.162   4.952
22308WAT     H267167   1.544   4.277   4.850
22309WAT      O67168   1.053   4.829   5.160
22309WAT     H167169   1.022   4.734   5.154
22309WAT     H267170   1.116   4.848   5.085
22310WAT      O67171   3.422   8.161   7.269
22310WAT     H167172   3.504   8.106   7.248
22310WAT     H267173   3.407   8.227   7.195
22311WAT      O67174   3.279   2.103   8.583
22311WAT     H167175   3.240   2.015   8.556
22311WAT     H267176   3.347   2.089   8.655
22312WAT      O67177   4.123   4.068   9.816
22312WAT     H167178   4.208   4.074   9.868
22312WAT     H267179   4.144   4.065   9.718
22313WAT      O67180   0.689   7.566   7.340
22313WAT     H167181   0.598   7.538   7.312
22313WAT     H267182   0.756   7.539   7.270
22314WAT      O67183   8.542   8.872   6.066
22314WAT     H167184   8.587   8.869   6.155
22314WAT     H267185   8.467   8.938   6.069
22315WAT      O67186   9.030   1.752   6.567
22315WAT     H167187   8.971   1.702   6.630
22315WAT     H267188   9.007   1.849   6.571
22316WAT      O67189   5.985   9.769   1.388
22316WAT     H167190   6.021   9.757   1.481
22316WAT     H267191   6.024   9.699   1.328
22317WAT      O67192   7.627   4.366   7.830
22317WAT     H167193   7.723   4.339   7.838
22317WAT     H267194   7.621   4.462   7.802
22318WAT      O67195   5.657   0.346   7.872
22318WAT     H167196   5.614   0.345   7.782
22318WAT     H267197   5.757   0.341   7.860
22319WAT      O67198   2.139   5.943   8.911
22319WAT     H167199   2.114   5.917   8.818
22319WAT     H267200   2.218   5.890   8.941
22320WAT      O67201   8.125   7.567   8.002
22320WAT     H167202   8.136   7.469   8.020
22320WAT     H267203   8.044   7.581   7.944
22321WAT      O67204   9.475   0.765   1.398
22321WAT     H167205   9.468   0.687   1.460
22321WAT     H267206   9.395   0.769   1.339
22322WAT      O67207   1.403   1.498   8.461
22322WAT     H167208   1.337   1.477   8.533
22322WAT     H267209   1.404   1.424   8.394
22323WAT      O67210   3.120   5.958   6.309
22323WAT     H167211   3.206   5.998   6.342
22323WAT     H267212   3.050   6.030   6.304
22324WAT      O67213   5.595   0.914   1.243
22324WAT     H167214   5.541   0.863   1.310
22324WAT     H267215   5.567   1.010   1.244
22325WAT      O67216   0.289   8.211   3.907
22325WAT     H167217   0.292   8.229   3.809
22325WAT     H267218   0.355   8.140   3.930
22326WAT      O67219   2.423   9.458   2.349
22326WAT     H167220   2.405   9.428   2.255
22326WAT     H267221   2.339   9.496   2.388
22327WAT      O67222   4.559   2.734   2.489
22327WAT     H167223   4.558   2.669   2.413
22327WAT     H267224   4.548   2.827   2.453
22328WAT      O67225   4.503   8.618   2.712
22328WAT     H167226   4.519   8.686   2.783
22328WAT     H267227   4.584   8.560   2.703
22329WAT      O67228   8.526   6.282   1.729
22329WAT     H167229   8.471   6.297   1.647
22329WAT     H267230   8.618   6.320   1.716
22330WAT      O67231   4.604   6.647   6.387
22330WAT     H167232   4.625   6.696   6.303
22330WAT     H267233   4.519   6.682   6.426
22331WAT      O67234   9.107   3.719   5.057
22331WAT     H167235   9.157   3.703   4.971
22331WAT     H267236   9.023   3.663   5.056
22332WAT      O67237   4.480   2.197   6.661
22332WAT     H167238   4.442   2.105   6.669
22332WAT     H267239   4.519   2.209   6.569
22333WAT      O67240   3.261   1.262   8.896
22333WAT     H167241   3.218   1.298   8.813
22333WAT     H267242   3.218   1.303   8.976
22334WAT      O67243   4.459   4.246   7.236
22334WAT     H167244   4.557   4.260   7.254
22334WAT     H267245   4.435   4.289   7.149
22335WAT      O67246   9.160   7.078   8.105
22335WAT     H167247   9.080   7.075   8.165
22335WAT     H267248   9.222   7.003   8.128
22336WAT      O67249   8.880   5.123   2.177
22336WAT     H167250   8.935   5.123   2.261
22336WAT     H267251   8.788   5.156   2.198
22337WAT      O67252   7.984   4.332   2.405
22337WAT     H167253   7.972   4.233   2.412
22337WAT     H267254   7.898   4.378   2.426
22338WAT      O67255   5.257   2.660   0.907
22338WAT     H167256   5.220   2.711   0.830
22338WAT     H267257   5.196   2.584   0.929
22339WAT      O67258   5.807   5.369   1.326
22339WAT     H167259   5.837   5.314   1.404
22339WAT     H267260   5.730   5.324   1.281
22340WAT      O67261   0.102   8.508   3.773
22340WAT     H167262   0.180   8.490   3.833
22340WAT     H267263   0.102   8.442   3.698
22341WAT      O67264   9.325   7.539   0.245
22341WAT     H167265   9.287   7.483   0.318
22341WAT     H267266   9.267   7.533   0.164
22342WAT      O67267   0.016   3.167   2.079
22342WAT     H167268   0.005   3.265   2.097
22342WAT     H267269   0.105   3.136   2.114
22343WAT      O67270   7.893   9.106   0.371
22343WAT     H167271   7.948   9.182   0.406
22343WAT     H267272   7.884   9.036   0.442
22344WAT      O67273   5.543   1.067   3.000
22344WAT     H167274   5.618   1.133   3.013
22344WAT     H267275   5.549   0.996   3.070
22345WAT      O67276   8.897   3.504   6.830
22345WAT     H167277   8.971   3.487   6.766
22345WAT     H267278   8.809   3.486   6.785
22346WAT      O67279   9.040   2.790   4.108
22346WAT     H167280   9.102   2.815   4.034
22346WAT     H267281   9.093   2.750   4.183
22347WAT      O67282   5.834   3.849   0.633
22347WAT     H167283   5.739   3.821   0.626
22347WAT     H267284   5.893   3.779   0.591
22348WAT      O67285   9.742   5.130   0.328
22348WAT     H167286   9.659   5.176   0.359
22348WAT     H267287   9.753   5.144   0.229
22349WAT      O67288   9.096   0.665   7.949
22349WAT     H167289   9.084   0.735   7.879
22349WAT     H267290   9.101   0.575   7.906
22350WAT      O67291   6.020   3.043   0.751
22350WAT     H167292   5.992   3.069   0.659
22350WAT     H267293   6.065   2.953   0.749
22351WAT      O67294   4.507   8.368   9.084
22351WAT     H167295   4.480   8.449   9.032
22351WAT     H267296   4.437   8.349   9.153
22352WAT      O67297   1.139   7.725   6.729
22352WAT     H167298   1.044   7.735   6.702
22352WAT     H267299   1.146   7.724   6.829
22353WAT      O67300   8.498   8.263   8.705
22353WAT     H167301   8.482   8.345   8.761
22353WAT     H267302   8.450   8.271   8.618
22354WAT      O67303   6.501   7.145   0.793
22354WAT     H167304   6.562   7.224   0.778
22354WAT     H267305   6.522   7.074   0.726
22355WAT      O67306   1.581   6.967   9.770
22355WAT     H167307   1.662   7.007   9.727
22355WAT     H267308   1.610   6.905   9.844
22356WAT      O67309   5.018   9.676   1.742
22356WAT     H167310   5.066   9.741   1.684
22356WAT     H267311   4.931   9.715   1.770
22357WAT      O67312   6.563   7.061   3.793
22357WAT     H167313   6.604   7.152   3.780
22357WAT     H267314   6.635   6.994   3.808
22358WAT      O67315   6.552   4.176   1.576
22358WAT     H167316   6.506   4.088   1.568
22358WAT     H267317   6.566   4.198   1.673
22359WAT      O67318   5.423   8.911   8.335
22359WAT     H167319   5.452   8.958   8.252
22359WAT     H267320   5.502   8.891   8.392
22360WAT      O67321   4.740   3.071   8.444
22360WAT     H167322   4.701   2.986   8.408
22360WAT     H267323   4.666   3.136   8.464
22361WAT      O67324   1.147   5.425   5.976
22361WAT     H167325   1.156   5.424   5.877
22361WAT     H267326   1.051   5.438   6.002
22362WAT      O67327   9.610   1.421   6.196
22362WAT     H167328   9.679   1.392   6.263
22362WAT     H267329   9.637   1.510   6.158
22363WAT      O67330   3.687   5.281   2.376
22363WAT     H167331   3.680   5.378   2.397
22363WAT     H267332   3.734   5.234   2.451
22364WAT      O67333   1.169   0.732   1.970
22364WAT     H167334   1.202   0.680   1.891
22364WAT     H267335   1.105   0.676   2.022
22365WAT      O67336   3.352   5.425   8.661
22365WAT     H167337   3.258   5.406   8.688
22365WAT     H267338   3.409   5.438   8.742
22366WAT      O67339   0.796   7.564   6.485
22366WAT     H167340   0.789   7.661   6.463
22366WAT     H267341   0.884   7.529   6.453
22367WAT      O67342   8.026   2.843   6.150
22367WAT     H167343   8.005   2.941   6.143
22367WAT     H267344   8.064   2.823   6.241
22368WAT      O67345   4.321   9.779   3.465
22368WAT     H167346   4.236   9.735   3.496
22368WAT     H267347   4.300   9.844   3.391
22369WAT      O67348   3.613   5.796   6.058
22369WAT     H167349   3.544   5.727   6.081
22369WAT     H267350   3.703   5.753   6.053
22370WAT      O67351   4.603   9.112   7.154
22370WAT     H167352   4.638   9.028   7.197
22370WAT     H267353   4.535   9.088   7.085
22371WAT      O67354   5.846   9.263   0.346
22371WAT     H167355   5.815   9.168   0.333
22371WAT     H267356   5.885   9.272   0.437
22372WAT      O67357   8.889   8.463   6.006
22372WAT     H167358   8.953   8.512   5.947
22372WAT     H267359   8.821   8.416   5.950
22373WAT      O67360   7.886   1.333   7.526
22373WAT     H167361   7.799   1.344   7.477
22373WAT     H267362   7.961   1.364   7.468
22374WAT      O67363   4.008   4.481   9.513
22374WAT     H167364   4.012   4.529   9.425
22374WAT     H267365   4.000   4.383   9.496
22375WAT      O67366   3.985   6.508   8.470
22375WAT     H167367   3.967   6.415   8.503
22375WAT     H267368   3.963   6.574   8.542
22376WAT      O67369   1.032   8.411   9.260
22376WAT     H167370   1.008   8.436   9.354
22376WAT     H267371   1.065   8.316   9.259
22377WAT      O67372   9.106   2.391   0.365
22377WAT     H167373   9.009   2.390   0.389
22377WAT     H267374   9.143   2.483   0.380
22378WAT      O67375   4.694   9.504   3.732
22378WAT     H167376   4.733   9.429   3.678
22378WAT     H267377   4.605   9.530   3.695
22379WAT      O67378   3.687   8.276   0.302
22379WAT     H167379   3.760   8.249   0.365
22379WAT     H267380   3.715   8.359   0.253
22380WAT      O67381   2.542   1.708   5.012
22380WAT     H167382   2.444   1.695   5.025
22380WAT     H267383   2.588   1.705   5.101
22381WAT      O67384   5.366   4.569   9.798
22381WAT     H167385   5.435   4.545   9.730
22381WAT     H267386   5.277   4.579   9.753
22382WAT      O67387   5.239   5.148   7.954
22382WAT     H167388   5.262   5.238   7.992
22382WAT     H267389   5.282   5.076   8.008
22383WAT      O67390   1.724   4.188   2.869
22383WAT     H167391   1.636   4.182   2.916
22383WAT     H267392   1.713   4.162   2.773
22384WAT      O67393   2.516   0.281   8.928
22384WAT     H167394   2.599   0.252   8.975
22384WAT     H267395   2.457   0.330   8.992
22385WAT      O67396   2.203   1.490   6.234
22385WAT     H167397   2.278   1.534   6.185
22385WAT     H267398   2.235   1.461   6.324
22386WAT      O67399   5.213   6.346   3.946
22386WAT     H167400   5.284   6.411   3.974
22386WAT     H267401   5.178   6.298   4.027
22387WAT      O67402   1.408   3.923   1.020
22387WAT     H167403   1.363   3.834   1.027
22387WAT     H267404   1.453   3.944   1.107
22388WAT      O67405   2.086   5.465   3.217
22388WAT     H167406   2.067   5.421   3.129
22388WAT     H267407   2.145   5.406   3.272
22389WAT      O67408   6.116   0.029   0.172
22389WAT     H167409   6.075  -0.037   0.109
22389WAT     H267410   6.085   0.009   0.265
22390WAT      O67411   2.422   2.987   2.135
22390WAT     H167412   2.464   3.068   2.094
22390WAT     H267413   2.446   2.906   2.081
22391WAT      O67414   9.164   4.771   8.425
22391WAT     H167415   9.140   4.725   8.511
22391WAT     H267416   9.089   4.831   8.397
22392WAT      O67417   8.632   0.814   8.846
22392WAT     H167418   8.627   0.911   8.821
22392WAT     H267419   8.627   0.758   8.763
22393WAT      O67420   7.780   4.426   9.024
22393WAT     H167421   7.761   4.496   9.092
22393WAT     H267422   7.853   4.457   8.963
22394WAT      O67423   6.588   7.247   8.280
22394WAT     H167424   6.630   7.334   8.309
22394WAT     H267425   6.618   7.174   8.340
22395WAT      O67426   7.199   7.465   5.462
22395WAT     H167427   7.228   7.391   5.523
22395WAT     H267428   7.126   7.432   5.402
22396WAT      O67429   0.847   7.535   9.591
22396WAT     H167430   0.921   7.497   9.646
22396WAT     H267431   0.796   7.602   9.645
22397WAT      O67432   3.111   9.375   2.860
22397WAT     H167433   3.032   9.422   2.821
22397WAT     H267434   3.112   9.387   2.959
22398WAT      O67435   2.014   1.099   7.648
22398WAT     H167436   2.081   1.066   7.581
22398WAT     H267437   2.054   1.097   7.739
22399WAT      O67438   8.529   5.181   6.760
22399WAT     H167439   8.565   5.199   6.668
22399WAT     H267440   8.461   5.108   6.756
22400WAT      O67441   6.911   2.410   5.106
22400WAT     H167442   6.948   2.332   5.157
22400WAT     H267443   6.986   2.458   5.060
22401WAT      O67444   8.722   0.790   8.442
22401WAT     H167445   8.654   0.748   8.502
22401WAT     H267446   8.681   0.807   8.352
22402WAT      O67447   0.216   2.756   8.761
22402WAT     H167448   0.181   2.767   8.854
22402WAT     H267449   0.259   2.666   8.752
22403WAT      O67450   6.002   6.257   0.623
22403WAT     H167451   5.962   6.214   0.704
22403WAT     H267452   5.936   6.322   0.584
22404WAT      O67453   7.892   6.854   0.781
22404WAT     H167454   7.822   6.880   0.847
22404WAT     H267455   7.982   6.870   0.820
22405WAT      O67456   5.468   0.997   4.672
22405WAT     H167457   5.524   1.044   4.740
22405WAT     H267458   5.374   0.988   4.705
22406WAT      O67459   6.182   3.911   4.683
22406WAT     H167460   6.109   3.972   4.713
22406WAT     H267461   6.244   3.961   4.622
22407WAT      O67462   0.828   3.510   6.388
22407WAT     H167463   0.846   3.600   6.347
22407WAT     H267464   0.895   3.444   6.354
22408WAT      O67465   4.027   2.797   0.821
22408WAT     H167466   4.006   2.726   0.754
22408WAT     H267467   3.979   2.881   0.797
22409WAT      O67468   1.400   8.405   3.844
22409WAT     H167469   1.386   8.318   3.891
22409WAT     H267470   1.418   8.476   3.912
22410WAT      O67471   2.267   0.829   1.216
22410WAT     H167472   2.366   0.844   1.214
22410WAT     H267473   2.228   0.853   1.127
22411WAT      O67474   1.446   6.111   4.427
22411WAT     H167475   1.377   6.136   4.360
22411WAT     H267476   1.412   6.035   4.483
22412WAT      O67477   8.332   5.032   4.946
22412WAT     H167478   8.332   4.968   4.868
22412WAT     H267479   8.263   5.005   5.012
22413WAT      O67480   0.491   7.407   0.919
22413WAT     H167481   0.498   7.355   0.833
22413WAT     H267482   0.434   7.488   0.904
22414WAT      O67483   6.556   4.444   1.733
22414WAT     H167484   6.539   4.365   1.792
22414WAT     H267485   6.545   4.417   1.637
22415WAT      O67486   7.276   1.454   6.583
22415WAT     H167487   7.221   1.518   6.637
22415WAT     H267488   7.371   1.485   6.583
22416WAT      O67489   9.725   6.415   5.413
22416WAT     H167490   9.786   6.390   5.488
22416WAT     H267491   9.752   6.365   5.330
22417WAT      O67492   1.245   2.006   0.353
22417WAT     H167493   1.324   2.013   0.415
22417WAT     H267494   1.226   2.096   0.313
22418WAT      O67495   9.147   4.414   5.862
22418WAT     H167496   9.069   4.464   5.823
22418WAT     H267497   9.148   4.428   5.961
22419WAT      O67498   2.724   9.497   3.649
22419WAT     H167499   2.807   9.507   3.594
22419WAT     H267500   2.713   9.578   3.707
22420WAT      O67501   4.423   9.362   8.510
22420WAT     H167502   4.349   9.377   8.577
22420WAT     H267503   4.421   9.436   8.442
22421WAT      O67504   0.226   1.107   7.359
22421WAT     H167505   0.170   1.046   7.415
22421WAT     H267506   0.283   1.054   7.298
22422WAT      O67507   2.465   6.579   7.826
22422WAT     H167508   2.458   6.606   7.730
22422WAT     H267509   2.387   6.521   7.850
22423WAT      O67510   0.424   0.283   9.440
22423WAT     H167511   0.338   0.292   9.490
22423WAT     H267512   0.482   0.362   9.461
22424WAT      O67513   8.305   0.840   7.460
22424WAT     H167514   8.321   0.771   7.390
22424WAT     H267515   8.321   0.799   7.550
22425WAT      O67516   9.849   8.372   8.012
22425WAT     H167517   9.937   8.345   7.972
22425WAT     H267518   9.828   8.466   7.984
22426WAT      O67519   5.797   2.582   3.146
22426WAT     H167520   5.709   2.628   3.138
22426WAT     H267521   5.861   2.642   3.194
22427WAT      O67522   4.734   1.949   7.230
22427WAT     H167523   4.665   1.935   7.301
22427WAT     H267524   4.688   1.975   7.145
22428WAT      O67525   6.582   2.057   3.604
22428WAT     H167526   6.636   2.088   3.682
22428WAT     H267527   6.494   2.022   3.635
22429WAT      O67528   8.356   3.727   4.044
22429WAT     H167529   8.432   3.792   4.043
22429WAT     H267530   8.311   3.727   3.955
22430WAT      O67531   7.457   2.448   1.681
22430WAT     H167532   7.546   2.449   1.636
22430WAT     H267533   7.458   2.380   1.755
22431WAT      O67534   0.128   3.605   6.819
22431WAT     H167535   0.221   3.616   6.856
22431WAT     H267536   0.132   3.603   6.719
22432WAT      O67537   1.010   7.848   2.809
22432WAT     H167538   1.096   7.861   2.858
22432WAT     H267539   0.955   7.778   2.856
22433WAT      O67540   4.411   7.509   2.585
22433WAT     H167541   4.330   7.510   2.643
22433WAT     H267542   4.389   7.550   2.496
22434WAT      O67543   1.177   5.042   1.343
22434WAT     H167544   1.162   5.060   1.246
22434WAT     H267545   1.140   4.952   1.367
22435WAT      O67546   4.870   9.585   3.135
22435WAT     H167547   4.853   9.573   3.037
22435WAT     H267548   4.924   9.668   3.149
22436WAT      O67549   1.084   3.604   0.772
22436WAT     H167550   1.106   3.512   0.740
22436WAT     H267551   1.061   3.662   0.693
22437WAT      O67552   3.250   1.181   7.136
22437WAT     H167553   3.278   1.104   7.079
22437WAT     H267554   3.161   1.215   7.105
22438WAT      O67555   7.087   8.465   2.067
22438WAT     H167556   7.082   8.422   1.977
22438WAT     H267557   7.134   8.553   2.060
22439WAT      O67558   5.324   3.498   3.942
22439WAT     H167559   5.353   3.431   3.873
22439WAT     H267560   5.314   3.452   4.030
22440WAT      O67561   7.856   8.023   1.525
22440WAT     H167562   7.788   8.031   1.452
22440WAT     H267563   7.809   8.008   1.612
22441WAT      O67564   0.052   0.265   7.860
22441WAT     H167565   0.013   0.223   7.778
22441WAT     H267566   0.072   0.195   7.928
22442WAT      O67567   1.485   9.257   4.112
22442WAT     H167568   1.385   9.259   4.122
22442WAT     H267569   1.521   9.349   4.124
22443WAT      O67570   9.606   4.819   4.054
22443WAT     H167571   9.661   4.767   4.119
22443WAT     H267572   9.666   4.874   3.995
22444WAT      O67573   1.594   6.306   3.869
22444WAT     H167574   1.546   6.284   3.784
22444WAT     H267575   1.584   6.231   3.934
22445WAT      O67576   0.310   1.074   5.932
22445WAT     H167577   0.350   1.040   6.017
22445WAT     H267578   0.310   1.001   5.864
22446WAT      O67579   8.606   0.891   0.224
22446WAT     H167580   8.537   0.925   0.160
22446WAT     H267581   8.628   0.796   0.202
22447WAT      O67582   8.981   5.968   6.793
22447WAT     H167583   8.919   5.895   6.821
22447WAT     H267584   9.067   5.927   6.761
22448WAT      O67585   7.693   6.219   6.455
22448WAT     H167586   7.781   6.195   6.495
22448WAT     H267587   7.696   6.313   6.421
22449WAT      O67588   9.399   8.227   4.328
22449WAT     H167589   9.313   8.176   4.327
22449WAT     H267590   9.411   8.274   4.241
22450WAT      O67591   6.035   0.473   7.107
22450WAT     H167592   6.081   0.482   7.018
22450WAT     H267593   5.939   0.451   7.092
22451WAT      O67594   9.280   6.328   9.007
22451WAT     H167595   9.258   6.277   9.090
22451WAT     H267596   9.299   6.423   9.029
22452WAT      O67597   8.110   3.879   3.193
22452WAT     H167598   8.183   3.908   3.256
22452WAT     H267599   8.026   3.863   3.245
22453WAT      O67600   7.822   7.429   0.159
22453WAT     H167601   7.826   7.348   0.218
22453WAT     H267602   7.835   7.402   0.064
22454WAT      O67603   3.156   9.485   9.836
22454WAT     H167604   3.061   9.456   9.845
22454WAT     H267605   3.205   9.466   9.922
22455WAT      O67606   2.907   9.646   2.174
22455WAT     H167607   2.810   9.664   2.195
22455WAT     H267608   2.944   9.582   2.241
22456WAT      O67609   5.939   9.742   9.893
22456WAT     H167610   5.959   9.706   9.802
22456WAT     H267611   5.840   9.741   9.908
22457WAT      O67612   4.526   8.175   9.799
22457WAT     H167613   4.457   8.196   9.730
22457WAT     H267614   4.495   8.209   9.888
22458WAT      O67615   3.307   6.916   8.098
22458WAT     H167616   3.352   6.998   8.064
22458WAT     H267617   3.375   6.850   8.128
22459WAT      O67618   0.369   3.632   0.407
22459WAT     H167619   0.307   3.710   0.408
22459WAT     H267620   0.320   3.550   0.435
22460WAT      O67621   5.971   8.231   4.549
22460WAT     H167622   5.917   8.212   4.631
22460WAT     H267623   5.965   8.153   4.486
22461WAT      O67624   3.866   7.957   1.795
22461WAT     H167625   3.832   7.997   1.880
22461WAT     H267626   3.852   8.022   1.720
22462WAT      O67627   2.249   1.713   2.306
22462WAT     H167628   2.213   1.647   2.372
22462WAT     H267629   2.179   1.733   2.237
22463WAT      O67630   3.164   1.006   3.366
22463WAT     H167631   3.199   1.083   3.313
22463WAT     H267632   3.155   1.033   3.462
22464WAT      O67633   2.047   7.421   6.166
22464WAT     H167634   2.068   7.324   6.160
22464WAT     H267635   2.132   7.474   6.163
22465WAT      O67636   9.517   5.543   6.555
22465WAT     H167637   9.499   5.590   6.642
22465WAT     H267638   9.615   5.529   6.545
22466WAT      O67639   3.234   5.624   2.184
22466WAT     H167640   3.137   5.610   2.201
22466WAT     H267641   3.287   5.581   2.257
22467WAT      O67642   8.405   3.187   8.870
22467WAT     H167643   8.335   3.188   8.798
22467WAT     H267644   8.417   3.093   8.903
22468WAT      O67645   8.102   9.380   7.697
22468WAT     H167646   8.035   9.453   7.685
22468WAT     H267647   8.091   9.338   7.787
22469WAT      O67648   6.146   7.710   2.583
22469WAT     H167649   6.143   7.784   2.651
22469WAT     H267650   6.235   7.665   2.585
22470WAT      O67651   3.182   4.032   3.436
22470WAT     H167652   3.093   4.072   3.456
22470WAT     H267653   3.170   3.937   3.407
22471WAT      O67654   3.788   4.440   9.160
22471WAT     H167655   3.743   4.444   9.250
22471WAT     H267656   3.856   4.367   9.160
22472WAT      O67657   4.676   0.600   1.715
22472WAT     H167658   4.664   0.665   1.640
22472WAT     H267659   4.615   0.522   1.702
22473WAT      O67660   5.285   2.227   3.933
22473WAT     H167661   5.209   2.166   3.954
22473WAT     H267662   5.304   2.224   3.835
22474WAT      O67663   2.298   7.102   8.480
22474WAT     H167664   2.280   7.004   8.476
22474WAT     H267665   2.326   7.127   8.573
22475WAT      O67666   9.334   3.820   5.179
22475WAT     H167667   9.242   3.797   5.146
22475WAT     H267668   9.329   3.853   5.273
22476WAT      O67669   4.438   4.873   4.965
22476WAT     H167670   4.424   4.784   5.007
22476WAT     H267671   4.537   4.890   4.955
22477WAT      O67672   6.224   8.329   4.420
22477WAT     H167673   6.280   8.365   4.345
22477WAT     H267674   6.144   8.282   4.383
22478WAT      O67675   3.646   5.858   8.711
22478WAT     H167676   3.671   5.768   8.745
22478WAT     H267677   3.643   5.923   8.787
22479WAT      O67678   6.417   1.748   9.173
22479WAT     H167679   6.500   1.733   9.228
22479WAT     H267680   6.339   1.764   9.234
22480WAT      O67681   6.442   2.295   8.943
22480WAT     H167682   6.407   2.324   9.032
22480WAT     H267683   6.371   2.308   8.874
22481WAT      O67684   9.462   1.280   4.859
22481WAT     H167685   9.503   1.362   4.819
22481WAT     H267686   9.402   1.237   4.792
22482WAT      O67687   6.183   2.175   4.203
22482WAT     H167688   6.202   2.184   4.105
22482WAT     H267689   6.250   2.113   4.244
22483WAT      O67690   6.643   8.332   9.863
22483WAT     H167691   6.634   8.264   9.790
22483WAT     H267692   6.729   8.318   9.911
22484WAT      O67693   8.056   1.926   4.540
22484WAT     H167694   8.075   2.007   4.485
22484WAT     H267695   8.103   1.934   4.628
22485WAT      O67696   8.782   9.343   0.820
22485WAT     H167697   8.798   9.377   0.728
22485WAT     H267698   8.802   9.245   0.823
22486WAT      O67699   0.991   5.474   1.314
22486WAT     H167700   1.019   5.447   1.222
22486WAT     H267701   1.056   5.439   1.381
22487WAT      O67702   3.888   5.338   4.278
22487WAT     H167703   3.837   5.292   4.351
22487WAT     H267704   3.865   5.295   4.190
22488WAT      O67705   7.764   6.021   7.546
22488WAT     H167706   7.703   6.056   7.617
22488WAT     H267707   7.724   6.036   7.456
22489WAT      O67708   4.617   6.577   6.932
22489WAT     H167709   4.583   6.505   6.992
22489WAT     H267710   4.573   6.571   6.843
22490WAT      O67711   9.178   0.990   2.262
22490WAT     H167712   9.210   0.929   2.190
22490WAT     H267713   9.079   1.004   2.252
22491WAT      O67714   2.944   0.417   8.195
22491WAT     H167715   2.914   0.357   8.270
22491WAT     H267716   3.042   0.436   8.205
22492WAT      O67717   4.752   1.365   8.172
22492WAT     H167718   4.778   1.399   8.262
22492WAT     H267719   4.766   1.266   8.168
22493WAT      O67720   7.933   0.050   9.746
22493WAT     H167721   7.891  -0.003   9.820
22493WAT     H267722   8.010   0.104   9.783
22494WAT      O67723   6.310   7.759   1.812
22494WAT     H167724   6.269   7.826   1.873
22494WAT     H267725   6.409   7.756   1.828
22495WAT      O67726   1.136   3.218   2.835
22495WAT     H167727   1.215   3.237   2.893
22495WAT     H267728   1.076   3.298   2.834
22496WAT      O67729   2.930   1.740   7.597
22496WAT     H167730   2.886   1.676   7.535
22496WAT     H267731   2.894   1.832   7.582
22497WAT      O67732   4.080   8.972   7.436
22497WAT     H167733   3.988   8.950   7.469
22497WAT     H267734   4.086   8.952   7.338
22498WAT      O67735   0.999   9.179   1.381
22498WAT     H167736   0.939   9.159   1.303
22498WAT     H267737   1.061   9.102   1.396
22499WAT      O67738   1.802   3.483   8.486
22499WAT     H167739   1.860   3.434   8.550
22499WAT     H267740   1.711   3.441   8.484
22500WAT      O67741   0.826   8.707   0.741
22500WAT     H167742   0.807   8.696   0.838
22500WAT     H267743   0.820   8.804   0.716
22501WAT      O67744   3.708   1.945   5.614
22501WAT     H167745   3.638   1.956   5.685
22501WAT     H267746   3.780   1.885   5.647
22502WAT      O67747   0.051   5.184   1.736
22502WAT     H167748   0.092   5.137   1.814
22502WAT     H267749   0.068   5.282   1.744
22503WAT      O67750   1.971   6.912   9.046
22503WAT     H167751   1.993   6.833   9.102
22503WAT     H267752   2.055   6.958   9.019
22504WAT      O67753   0.483   4.790   9.462
22504WAT     H167754   0.554   4.854   9.491
22504WAT     H267755   0.511   4.697   9.484
22505WAT      O67756   9.645   4.680   2.951
22505WAT     H167757   9.589   4.597   2.943
22505WAT     H267758   9.594   4.750   3.002
22506WAT      O67759   0.241   5.530   7.179
22506WAT     H167760   0.229   5.617   7.227
22506WAT     H267761   0.333   5.528   7.138
22507WAT      O67762   1.528   6.209   3.260
22507WAT     H167763   1.593   6.136   3.282
22507WAT     H267764   1.446   6.168   3.218
22508WAT      O67765   3.815   9.143   3.771
22508WAT     H167766   3.905   9.103   3.754
22508WAT     H267767   3.809   9.232   3.725
22509WAT      O67768   2.817   1.459   2.501
22509WAT     H167769   2.758   1.530   2.461
22509WAT     H267770   2.900   1.449   2.446
22510WAT      O67771   3.192   5.235   6.371
22510WAT     H167772   3.267   5.177   6.405
22510WAT     H267773   3.194   5.323   6.419
22511WAT      O67774   4.395   6.242   7.692
22511WAT     H167775   4.422   6.269   7.785
22511WAT     H267776   4.322   6.174   7.697
22512WAT      O67777   0.333   2.156   6.413
22512WAT     H167778   0.382   2.178   6.329
22512WAT     H267779   0.287   2.238   6.447
22513WAT      O67780   4.704   0.539   6.551
22513WAT     H167781   4.694   0.631   6.513
22513WAT     H267782   4.801   0.515   6.556
22514WAT      O67783   2.283   6.635   9.313
22514WAT     H167784   2.381   6.638   9.292
22514WAT     H267785   2.265   6.690   9.395
22515WAT      O67786   5.772   9.600   7.630
22515WAT     H167787   5.847   9.642   7.579
22515WAT     H267788   5.806   9.565   7.717
22516WAT      O67789   7.638   7.615   2.352
22516WAT     H167790   7.548   7.644   2.384
22516WAT     H267791   7.668   7.675   2.277
22517WAT      O67792   8.378   0.056   6.287
22517WAT     H167793   8.373  -0.035   6.246
22517WAT     H267794   8.338   0.123   6.225
22518WAT      O67795   3.485   3.069   8.636
22518WAT     H167796   3.522   3.013   8.562
22518WAT     H267797   3.386   3.057   8.640
22519WAT      O67798   0.648   4.807   6.170
22519WAT     H167799   0.688   4.772   6.255
22519WAT     H267800   0.559   4.764   6.155
22520WAT      O67801   7.061   0.858   5.087
22520WAT     H167802   6.986   0.806   5.047
22520WAT     H267803   7.146   0.808   5.076
22521WAT      O67804   6.601   3.520   3.564
22521WAT     H167805   6.524   3.460   3.589
22521WAT     H267806   6.566   3.608   3.534
22522WAT      O67807   2.215   2.297   6.558
22522WAT     H167808   2.301   2.254   6.587
22522WAT     H267809   2.175   2.244   6.484
22523WAT      O67810   2.425   4.009   9.126
22523WAT     H167811   2.522   4.013   9.101
22523WAT     H267812   2.370   3.995   9.044
22524WAT      O67813   7.650   0.519   2.847
22524WAT     H167814   7.717   0.519   2.773
22524WAT     H267815   7.634   0.425   2.878
22525WAT      O67816   6.266   4.949   2.135
22525WAT     H167817   6.197   4.973   2.203
22525WAT     H267818   6.356   4.975   2.168
22526WAT      O67819   2.809   1.082   6.164
22526WAT     H167820   2.783   1.020   6.237
22526WAT     H267821   2.736   1.085   6.095
22527WAT      O67822   2.086   2.185   9.507
22527WAT     H167823   2.119   2.273   9.540
22527WAT     H267824   2.123   2.111   9.564
22528WAT      O67825   8.541   6.673   6.814
22528WAT     H167826   8.478   6.747   6.835
22528WAT     H267827   8.495   6.585   6.826
22529WAT      O67828   1.285   5.287   6.639
22529WAT     H167829   1.286   5.294   6.540
22529WAT     H267830   1.296   5.191   6.666
22530WAT      O67831   4.954   2.730   7.579
22530WAT     H167832   5.029   2.738   7.513
22530WAT     H267833   4.890   2.806   7.566
22531WAT      O67834   3.000   7.636   5.901
22531WAT     H167835   2.975   7.540   5.905
22531WAT     H267836   2.970   7.676   5.814
22532WAT      O67837   2.851   5.872   7.270
22532WAT     H167838   2.948   5.864   7.294
22532WAT     H267839   2.813   5.954   7.312
22533WAT      O67840   0.444   4.351   1.283
22533WAT     H167841   0.382   4.426   1.306
22533WAT     H267842   0.442   4.283   1.356
22534WAT      O67843   3.113   5.219   7.404
22534WAT     H167844   3.203   5.198   7.442
22534WAT     H267845   3.118   5.216   7.304
22535WAT      O67846   2.066   0.034   1.940
22535WAT     H167847   2.127   0.104   1.976
22535WAT     H267848   2.075  -0.049   1.994
22536WAT      O67849   3.933   8.605   3.665
22536WAT     H167850   4.009   8.591   3.601
22536WAT     H267851   3.846   8.594   3.617
22537WAT      O67852   4.687   6.857   0.960
22537WAT     H167853   4.762   6.836   0.898
22537WAT     H267854   4.611   6.794   0.944
22538WAT      O67855   1.904   4.468   6.940
22538WAT     H167856   2.004   4.471   6.934
22538WAT     H267857   1.865   4.494   6.852
22539WAT      O67858   1.033   5.667   5.556
22539WAT     H167859   1.012   5.759   5.589
22539WAT     H267860   0.974   5.644   5.479
22540WAT      O67861   0.840   8.614   9.786
22540WAT     H167862   0.858   8.644   9.880
22540WAT     H267863   0.766   8.669   9.747
22541WAT      O67864   0.338   0.416   7.806
22541WAT     H167865   0.250   0.382   7.840
22541WAT     H267866   0.334   0.516   7.799
22542WAT      O67867   6.429   6.423   1.549
22542WAT     H167868   6.356   6.442   1.615
22542WAT     H267869   6.397   6.444   1.457
22543WAT      O67870   5.448   4.741   1.975
22543WAT     H167871   5.542   4.739   1.941
22543WAT     H267872   5.433   4.826   2.027
22544WAT      O67873   9.029   1.032   3.767
22544WAT     H167874   9.010   0.936   3.744
22544WAT     H267875   8.983   1.092   3.701
22545WAT      O67876   3.815   6.516   3.395
22545WAT     H167877   3.744   6.445   3.398
22545WAT     H267878   3.898   6.481   3.439
22546WAT      O67879   8.657   8.029   0.886
22546WAT     H167880   8.640   8.122   0.919
22546WAT     H267881   8.750   8.023   0.850
22547WAT      O67882   5.415   2.992   3.618
22547WAT     H167883   5.510   2.968   3.638
22547WAT     H267884   5.412   3.071   3.558
22548WAT      O67885   9.015   2.510   9.853
22548WAT     H167886   8.979   2.429   9.806
22548WAT     H267887   8.957   2.531   9.932
22549WAT      O67888   7.159   7.090   5.824
22549WAT     H167889   7.112   7.078   5.737
22549WAT     H267890   7.217   7.011   5.842
22550WAT      O67891   2.073   5.915   7.232
22550WAT     H167892   2.045   5.821   7.250
22550WAT     H267893   2.168   5.916   7.200
22551WAT      O67894   5.586   7.740   1.861
22551WAT     H167895   5.585   7.659   1.920
22551WAT     H267896   5.678   7.755   1.827
22552WAT      O67897   8.289   0.050   0.933
22552WAT     H167898   8.241   0.101   1.004
22552WAT     H267899   8.359   0.107   0.891
22553WAT      O67900   0.767   6.094   8.290
22553WAT     H167901   0.865   6.074   8.287
22553WAT     H267902   0.735   6.095   8.385
22554WAT      O67903   3.370   8.674   9.269
22554WAT     H167904   3.282   8.633   9.245
22554WAT     H267905   3.384   8.668   9.368
22555WAT      O67906   5.965   9.832   9.472
22555WAT     H167907   6.030   9.908   9.474
22555WAT     H267908   5.895   9.849   9.403
22556WAT      O67909   9.216   3.917   0.303
22556WAT     H167910   9.156   3.965   0.367
22556WAT     H267911   9.212   3.962   0.214
22557WAT      O67912   9.771   8.308   8.288
22557WAT     H167913   9.811   8.317   8.196
22557WAT     H267914   9.840   8.329   8.357
22558WAT      O67915   2.964   7.312   5.861
22558WAT     H167916   3.062   7.332   5.863
22558WAT     H267917   2.949   7.226   5.812
22559WAT      O67918   0.521   6.089   7.399
22559WAT     H167919   0.612   6.112   7.364
22559WAT     H267920   0.494   5.999   7.366
22560WAT      O67921   3.463   6.868   1.285
22560WAT     H167922   3.459   6.868   1.385
22560WAT     H267923   3.540   6.923   1.254
22561WAT      O67924   2.374   5.915   0.051
22561WAT     H167925   2.399   5.933  -0.044
22561WAT     H267926   2.281   5.949   0.068
22562WAT      O67927   3.324   9.467   9.117
22562WAT     H167928   3.314   9.370   9.095
22562WAT     H267929   3.341   9.519   9.033
22563WAT      O67930   4.896   6.657   8.052
22563WAT     H167931   4.941   6.615   8.130
22563WAT     H267932   4.806   6.616   8.038
22564WAT      O67933   5.689   5.608   4.402
22564WAT     H167934   5.648   5.693   4.366
22564WAT     H267935   5.756   5.573   4.337
22565WAT      O67936   7.825   5.362   4.753
22565WAT     H167937   7.826   5.416   4.669
22565WAT     H267938   7.812   5.422   4.831
22566WAT      O67939   3.179   0.422   8.029
22566WAT     H167940   3.276   0.442   8.015
22566WAT     H267941   3.126   0.506   8.021
22567WAT      O67942   1.388   2.978   9.832
22567WAT     H167943   1.369   2.880   9.845
22567WAT     H267944   1.328   3.031   9.891
22568WAT      O67945   1.631   0.470   0.000
22568WAT     H167946   1.696   0.458   0.076
22568WAT     H267947   1.570   0.391  -0.005
22569WAT      O67948   4.445   0.726   9.543
22569WAT     H167949   4.464   0.797   9.610
22569WAT     H267950   4.355   0.742   9.502
22570WAT      O67951   2.050   1.101   2.294
22570WAT     H167952   2.081   1.008   2.314
22570WAT     H267953   1.977   1.098   2.226
22571WAT      O67954   7.490   4.027   2.865
22571WAT     H167955   7.508   3.959   2.937
22571WAT     H267956   7.569   4.031   2.803
22572WAT      O67957   5.314   7.904   2.971
22572WAT     H167958   5.218   7.908   2.946
22572WAT     H267959   5.363   7.842   2.910
22573WAT      O67960   9.020   5.313   3.956
22573WAT     H167961   8.988   5.377   4.026
22573WAT     H267962   8.991   5.220   3.980
22574WAT      O67963   7.705   5.429   0.852
22574WAT     H167964   7.713   5.384   0.763
22574WAT     H267965   7.718   5.528   0.841
22575WAT      O67966   2.609   1.538   3.897
22575WAT     H167967   2.629   1.464   3.961
22575WAT     H267968   2.675   1.612   3.909
22576WAT      O67969   0.173   5.895   0.611
22576WAT     H167970   0.195   5.842   0.693
22576WAT     H267971   0.096   5.955   0.631
22577WAT      O67972   6.734   8.299   6.230
22577WAT     H167973   6.723   8.355   6.148
22577WAT     H267974   6.816   8.244   6.222
22578WAT      O67975   8.995   3.799   2.210
22578WAT     H167976   8.904   3.788   2.170
22578WAT     H267977   9.057   3.839   2.143
22579WAT      O67978   7.349   1.409   1.236
22579WAT     H167979   7.256   1.426   1.202
22579WAT     H267980   7.394   1.496   1.255
22580WAT      O67981   8.834   4.460   3.227
22580WAT     H167982   8.856   4.557   3.241
22580WAT     H267983   8.830   4.413   3.315
22581WAT      O67984   4.386   7.219   5.875
22581WAT     H167985   4.356   7.159   5.949
22581WAT     H267986   4.430   7.165   5.804
22582WAT      O67987   3.144   9.045   5.181
22582WAT     H167988   3.226   9.025   5.235
22582WAT     H267989   3.120   9.142   5.191
22583WAT      O67990   5.816   3.859   6.565
22583WAT     H167991   5.768   3.944   6.542
22583WAT     H267992   5.890   3.880   6.629
22584WAT      O67993   3.560   6.889   6.838
22584WAT     H167994   3.634   6.901   6.905
22584WAT     H267995   3.537   6.978   6.799
22585WAT      O67996   1.234   6.972   5.485
22585WAT     H167997   1.307   6.981   5.553
22585WAT     H267998   1.274   6.964   5.394
22586WAT      O67999   1.293   2.395   9.172
22586WAT     H168000   1.389   2.405   9.144
22586WAT     H268001   1.252   2.318   9.124
22587WAT      O68002   3.261   8.891   9.476
22587WAT     H168003   3.306   8.802   9.467
22587WAT     H268004   3.164   8.881   9.454
22588WAT      O68005   1.182   7.767   6.999
22588WAT     H168006   1.271   7.783   7.042
22588WAT     H268007   1.112   7.821   7.045
22589WAT      O68008   1.195   2.552   0.110
22589WAT     H168009   1.155   2.467   0.074
22589WAT     H268010   1.122   2.609   0.147
22590WAT      O68011   6.703   6.752   1.827
22590WAT     H168012   6.796   6.766   1.861
22590WAT     H268013   6.706   6.697   1.743
22591WAT      O68014   4.872   5.495   1.587
22591WAT     H168015   4.906   5.583   1.620
22591WAT     H268016   4.910   5.421   1.642
22592WAT      O68017   1.475   8.529   7.427
22592WAT     H168018   1.469   8.498   7.522
22592WAT     H268019   1.564   8.572   7.412
22593WAT      O68020   9.282   1.051   9.356
22593WAT     H168021   9.324   1.091   9.438
22593WAT     H268022   9.201   1.104   9.331
22594WAT      O68023   2.591   7.654   1.451
22594WAT     H168024   2.505   7.681   1.493
22594WAT     H268025   2.656   7.730   1.454
22595WAT      O68026   1.132   5.604   8.524
22595WAT     H168027   1.075   5.536   8.478
22595WAT     H268028   1.203   5.558   8.577
22596WAT      O68029   4.312   7.346   2.957
22596WAT     H168030   4.320   7.264   3.014
22596WAT     H268031   4.399   7.364   2.912
22597WAT      O68032   4.600   7.103   1.048
22597WAT     H168033   4.637   7.014   1.021
22597WAT     H268034   4.513   7.089   1.097
22598WAT      O68035   6.454   9.522   8.461
22598WAT     H168036   6.532   9.458   8.456
22598WAT     H268037   6.393   9.506   8.384
22599WAT      O68038   6.495   1.044   5.697
22599WAT     H168039   6.448   1.128   5.671
22599WAT     H268040   6.558   1.063   5.772
22600WAT      O68041   6.521   4.738   8.671
22600WAT     H168042   6.495   4.831   8.699
22600WAT     H268043   6.600   4.708   8.725
22601WAT      O68044   1.265   0.590   1.755
22601WAT     H168045   1.293   0.667   1.697
22601WAT     H268046   1.342   0.527   1.766
22602WAT      O68047   8.986   9.233   4.360
22602WAT     H168048   8.916   9.301   4.336
22602WAT     H268049   9.006   9.176   4.281
22603WAT      O68050   0.665   7.037   5.908
22603WAT     H168051   0.717   6.951   5.907
22603WAT     H268052   0.727   7.113   5.927
22604WAT      O68053   7.308   9.013   3.446
22604WAT     H168054   7.266   8.930   3.408
22604WAT     H268055   7.395   8.989   3.489
22605WAT      O68056   8.882   7.284   4.385
22605WAT     H168057   8.829   7.206   4.351
22605WAT     H268058   8.954   7.306   4.319
22606WAT      O68059   8.722   4.884   7.577
22606WAT     H168060   8.622   4.886   7.587
22606WAT     H268061   8.746   4.877   7.480
22607WAT      O68062   3.766   5.125   5.707
22607WAT     H168063   3.762   5.198   5.639
22607WAT     H268064   3.861   5.107   5.731
22608WAT      O68065   1.763   3.543   6.308
22608WAT     H168066   1.837   3.590   6.357
22608WAT     H268067   1.790   3.449   6.288
22609WAT      O68068   1.568   6.985   1.722
22609WAT     H168069   1.560   7.071   1.772
22609WAT     H268070   1.556   6.909   1.785
22610WAT      O68071   8.805   7.653   7.612
22610WAT     H168072   8.896   7.693   7.602
22610WAT     H268073   8.737   7.726   7.617
22611WAT      O68074   1.747   2.385   8.935
22611WAT     H168075   1.756   2.354   8.841
22611WAT     H268076   1.835   2.418   8.969
22612WAT      O68077   1.730   9.714   2.067
22612WAT     H168078   1.730   9.767   2.151
22612WAT     H268079   1.818   9.724   2.021
22613WAT      O68080   2.907   5.985   9.279
22613WAT     H168081   2.851   6.062   9.247
22613WAT     H268082   2.969   6.017   9.351
22614WAT      O68083   4.605   3.721   9.700
22614WAT     H168084   4.578   3.816   9.686
22614WAT     H268085   4.560   3.686   9.782
22615WAT      O68086   5.924   1.075   4.043
22615WAT     H168087   5.914   1.095   4.140
22615WAT     H268088   5.892   0.983   4.024
22616WAT      O68089   6.735   1.395   8.656
22616WAT     H168090   6.646   1.397   8.701
22616WAT     H268091   6.743   1.472   8.594
22617WAT      O68092   5.756   4.719   1.024
22617WAT     H168093   5.777   4.664   1.105
22617WAT     H268094   5.795   4.675   0.943
22618WAT      O68095   5.954   1.171   6.668
22618WAT     H168096   5.886   1.179   6.741
22618WAT     H268097   5.949   1.252   6.609
22619WAT      O68098   1.437   3.434   4.646
22619WAT     H168099   1.395   3.521   4.672
22619WAT     H268100   1.501   3.450   4.570
22620WAT      O68101   3.904   8.837   0.803
22620WAT     H168102   3.846   8.883   0.870
22620WAT     H268103   3.923   8.899   0.727
22621WAT      O68104   8.664   0.057   1.233
22621WAT     H168105   8.568   0.053   1.259
22621WAT     H268106   8.721   0.026   1.309
22622WAT      O68107   0.804   6.651   5.081
22622WAT     H168108   0.889   6.628   5.033
22622WAT     H268109   0.760   6.728   5.036
22623WAT      O68110   2.567   3.000   5.933
22623WAT     H168111   2.613   3.078   5.977
22623WAT     H268112   2.499   3.035   5.868
22624WAT      O68113   9.277   4.176   4.603
22624WAT     H168114   9.347   4.109   4.576
22624WAT     H268115   9.269   4.178   4.702
22625WAT      O68116   4.729   7.129   7.939
22625WAT     H168117   4.662   7.146   7.867
22625WAT     H268118   4.779   7.045   7.919
22626WAT      O68119   3.460   7.142   0.984
22626WAT     H168120   3.524   7.139   1.061
22626WAT     H268121   3.508   7.117   0.900
22627WAT      O68122   4.835   7.159   4.110
22627WAT     H168123   4.808   7.256   4.115
22627WAT     H268124   4.931   7.150   4.138
22628WAT      O68125   9.437   0.996   7.198
22628WAT     H168126   9.350   1.045   7.193
22628WAT     H268127   9.502   1.050   7.252
22629WAT      O68128   1.254   7.874   3.752
22629WAT     H168129   1.318   7.897   3.826
22629WAT     H268130   1.288   7.911   3.666
22630WAT      O68131   2.954   2.346   4.339
22630WAT     H168132   2.933   2.444   4.336
22630WAT     H268133   3.021   2.324   4.268
22631WAT      O68134   3.987   0.449   7.070
22631WAT     H168135   3.973   0.366   7.123
22631WAT     H268136   3.920   0.518   7.098
22632WAT      O68137   1.941   4.964   6.210
22632WAT     H168138   1.979   5.003   6.126
22632WAT     H268139   1.848   4.932   6.192
22633WAT      O68140   6.916   5.438   2.803
22633WAT     H168141   7.008   5.445   2.765
22633WAT     H268142   6.885   5.528   2.832
22634WAT      O68143   9.845   4.989   6.922
22634WAT     H168144   9.800   5.006   7.010
22634WAT     H268145   9.776   4.973   6.852
22635WAT      O68146   0.728   0.782   5.140
22635WAT     H168147   0.765   0.816   5.227
22635WAT     H268148   0.801   0.775   5.073
22636WAT      O68149   7.782   7.708   8.322
22636WAT     H168150   7.879   7.686   8.311
22636WAT     H268151   7.770   7.807   8.320
22637WAT      O68152   1.632   7.001   0.980
22637WAT     H168153   1.562   6.929   0.981
22637WAT     H268154   1.704   6.976   0.916
22638WAT      O68155   4.112   4.118   2.195
22638WAT     H168156   4.066   4.029   2.197
22638WAT     H268157   4.180   4.122   2.267
22639WAT      O68158   3.407   1.849   1.739
22639WAT     H168159   3.465   1.852   1.821
22639WAT     H268160   3.431   1.924   1.678
22640WAT      O68161   3.334   7.884   3.632
22640WAT     H168162   3.322   7.941   3.551
22640WAT     H268163   3.426   7.845   3.632
22641WAT      O68164   6.516   5.884   0.169
22641WAT     H168165   6.582   5.923   0.232
22641WAT     H268166   6.553   5.885   0.076
22642WAT      O68167   7.660   6.079   6.802
22642WAT     H168168   7.711   6.027   6.734
22642WAT     H268169   7.573   6.108   6.764
22643WAT      O68170   8.953   5.767   3.593
22643WAT     H168171   8.893   5.696   3.557
22643WAT     H268172   8.987   5.739   3.683
22644WAT      O68173   3.357   5.130   7.515
22644WAT     H168174   3.351   5.039   7.556
22644WAT     H268175   3.453   5.153   7.499
22645WAT      O68176   0.139   8.344   1.224
22645WAT     H168177   0.141   8.427   1.169
22645WAT     H268178   0.083   8.359   1.306
22646WAT      O68179   1.652   5.442   2.942
22646WAT     H168180   1.703   5.524   2.968
22646WAT     H268181   1.554   5.459   2.949
22647WAT      O68182   2.842   4.498   4.207
22647WAT     H168183   2.829   4.582   4.260
22647WAT     H268184   2.903   4.437   4.256
22648WAT      O68185   2.242   7.978   7.235
22648WAT     H168186   2.176   7.960   7.308
22648WAT     H268187   2.286   7.892   7.208
22649WAT      O68188   2.105   1.990   3.177
22649WAT     H168189   2.006   1.990   3.164
22649WAT     H268190   2.125   1.980   3.275
22650WAT      O68191   5.916   1.202   1.368
22650WAT     H168192   5.985   1.139   1.404
22650WAT     H268193   5.830   1.189   1.417
22651WAT      O68194   8.367   3.651   5.997
22651WAT     H168195   8.449   3.678   6.047
22651WAT     H268196   8.378   3.557   5.962
22652WAT      O68197   4.566   2.107   0.208
22652WAT     H168198   4.512   2.038   0.160
22652WAT     H268199   4.505   2.174   0.249
22653WAT      O68200   0.970   8.695   8.456
22653WAT     H168201   0.914   8.628   8.407
22653WAT     H268202   0.989   8.661   8.548
22654WAT      O68203   6.526   4.654   6.758
22654WAT     H168204   6.521   4.634   6.660
22654WAT     H268205   6.516   4.570   6.810
22655WAT      O68206   7.479   5.263   3.421
22655WAT     H168207   7.459   5.196   3.493
22655WAT     H268208   7.503   5.351   3.463
22656WAT      O68209   5.296   2.322   2.565
22656WAT     H168210   5.332   2.352   2.653
22656WAT     H268211   5.367   2.270   2.516
22657WAT      O68212   7.840   7.212   4.964
22657WAT     H168213   7.813   7.122   4.929
22657WAT     H268214   7.930   7.205   5.006
22658WAT      O68215   9.169   8.675   7.026
22658WAT     H168216   9.078   8.715   7.032
22658WAT     H268217   9.162   8.576   7.018
22659WAT      O68218   1.827   4.561   0.179
22659WAT     H168219   1.787   4.600   0.095
22659WAT     H268220   1.852   4.635   0.241
22660WAT      O68221   1.624   8.396   4.680
22660WAT     H168222   1.540   8.445   4.660
22660WAT     H268223   1.696   8.462   4.706
22661WAT      O68224   3.111   2.883   3.748
22661WAT     H168225   3.012   2.894   3.738
22661WAT     H268226   3.155   2.896   3.659
22662WAT      O68227   3.873   3.089   5.244
22662WAT     H168228   3.972   3.093   5.232
22662WAT     H268229   3.837   3.181   5.257
22663WAT      O68230   9.152   8.218   5.872
22663WAT     H168231   9.103   8.149   5.925
22663WAT     H268232   9.087   8.269   5.816
22664WAT      O68233   3.589   3.825   6.540
22664WAT     H168234   3.635   3.741   6.511
22664WAT     H268235   3.498   3.829   6.500
22665WAT      O68236   5.096   3.649   3.076
22665WAT     H168237   5.022   3.712   3.055
22665WAT     H268238   5.094   3.572   3.012
22666WAT      O68239   1.556   4.687   8.531
22666WAT     H168240   1.511   4.611   8.578
22666WAT     H268241   1.591   4.655   8.443
22667WAT      O68242   8.533   6.707   6.526
22667WAT     H168243   8.551   6.720   6.624
22667WAT     H268244   8.466   6.776   6.496
22668WAT      O68245   6.950   0.195   3.378
22668WAT     H168246   6.974   0.275   3.323
22668WAT     H268247   6.898   0.131   3.322
22669WAT      O68248   0.979   5.107   5.046
22669WAT     H168249   0.946   5.151   5.130
22669WAT     H268250   0.982   5.008   5.060
22670WAT      O68251   6.644   3.049   5.644
22670WAT     H168252   6.611   3.006   5.728
22670WAT     H268253   6.580   3.121   5.616
22671WAT      O68254   6.760   4.480   6.923
22671WAT     H168255   6.828   4.479   6.995
22671WAT     H268256   6.681   4.535   6.952
22672WAT      O68257   8.082   0.939   1.953
22672WAT     H168258   8.130   0.941   1.866
22672WAT     H268259   8.146   0.917   2.026
22673WAT      O68260   6.899   1.262   8.483
22673WAT     H168261   6.843   1.302   8.556
22673WAT     H268262   6.966   1.330   8.451
22674WAT      O68263   9.262   7.431   7.044
22674WAT     H168264   9.321   7.351   7.039
22674WAT     H268265   9.311   7.511   7.009
22675WAT      O68266   3.430   6.472   8.383
22675WAT     H168267   3.377   6.475   8.298
22675WAT     H268268   3.415   6.556   8.434
22676WAT      O68269   7.656   2.956   3.633
22676WAT     H168270   7.660   2.861   3.665
22676WAT     H268271   7.561   2.987   3.631
22677WAT      O68272   3.584   9.086   9.291
22677WAT     H168273   3.538   9.027   9.358
22677WAT     H268274   3.681   9.065   9.289
22678WAT      O68275   7.296   3.692   1.754
22678WAT     H168276   7.235   3.764   1.786
22678WAT     H268277   7.245   3.607   1.744
22679WAT      O68278   1.162   7.945   4.731
22679WAT     H168279   1.260   7.926   4.731
22679WAT     H268280   1.141   8.012   4.660
22680WAT      O68281   1.011   0.711   1.290
22680WAT     H168282   1.051   0.703   1.199
22680WAT     H268283   1.055   0.785   1.341
22681WAT      O68284   2.952   4.195   3.875
22681WAT     H168285   2.862   4.151   3.883
22681WAT     H268286   3.023   4.125   3.871
22682WAT      O68287   9.479   1.214   8.711
22682WAT     H168288   9.559   1.181   8.762
22682WAT     H268289   9.435   1.288   8.762
22683WAT      O68290   2.241   4.488   6.251
22683WAT     H168291   2.229   4.399   6.207
22683WAT     H268292   2.321   4.534   6.211
22684WAT      O68293   3.104   1.509   6.806
22684WAT     H168294   3.150   1.550   6.727
22684WAT     H268295   3.171   1.462   6.863
22685WAT      O68296   3.157   1.262   1.319
22685WAT     H168297   3.188   1.318   1.396
22685WAT     H268298   3.236   1.213   1.280
22686WAT      O68299   9.115   1.345   6.389
22686WAT     H168300   9.124   1.431   6.440
22686WAT     H268301   9.037   1.351   6.327
22687WAT      O68302   1.846   3.021   2.300
22687WAT     H168303   1.882   3.098   2.249
22687WAT     H268304   1.855   2.937   2.246
22688WAT      O68305   1.048   0.960   1.840
22688WAT     H168306   1.026   1.034   1.904
22688WAT     H268307   1.060   0.875   1.891
22689WAT      O68308   0.023   9.551   4.306
22689WAT     H168309   0.010   9.647   4.279
22689WAT     H268310  -0.015   9.537   4.398
22690WAT      O68311   5.781   8.693   2.391
22690WAT     H168312   5.844   8.640   2.448
22690WAT     H268313   5.770   8.784   2.429
22691WAT      O68314   2.834   1.434   6.664
22691WAT     H168315   2.921   1.424   6.714
22691WAT     H268316   2.795   1.343   6.648
22692WAT      O68317   8.297   4.698   4.943
22692WAT     H168318   8.275   4.600   4.942
22692WAT     H268319   8.336   4.724   4.855
22693WAT      O68320   2.753   5.626   9.023
22693WAT     H168321   2.835   5.651   9.075
22693WAT     H268322   2.757   5.529   8.999
22694WAT      O68323   9.774   8.535   8.800
22694WAT     H168324   9.719   8.610   8.837
22694WAT     H268325   9.773   8.459   8.864
22695WAT      O68326   5.016   0.170   8.719
22695WAT     H168327   4.952   0.217   8.658
22695WAT     H268328   5.077   0.236   8.761
22696WAT      O68329   6.369   2.715   0.498
22696WAT     H168330   6.394   2.795   0.553
22696WAT     H268331   6.392   2.632   0.549
22697WAT      O68332   2.750   3.913   2.004
22697WAT     H168333   2.666   3.903   2.058
22697WAT     H268334   2.826   3.937   2.065
22698WAT      O68335   1.479   5.468   9.387
22698WAT     H168336   1.504   5.557   9.426
22698WAT     H268337   1.462   5.478   9.289
22699WAT      O68338   1.867   9.790   7.776
22699WAT     H168339   1.884   9.811   7.680
22699WAT     H268340   1.815   9.705   7.783
22700WAT      O68341   0.573   1.461   3.711
22700WAT     H168342   0.526   1.383   3.668
22700WAT     H268343   0.567   1.453   3.810
22701WAT      O68344   2.636   7.508   9.668
22701WAT     H168345   2.556   7.559   9.699
22701WAT     H268346   2.655   7.530   9.572
22702WAT      O68347   7.748   0.421   6.338
22702WAT     H168348   7.743   0.484   6.260
22702WAT     H268349   7.744   0.327   6.305
22703WAT      O68350   2.946   4.400   7.063
22703WAT     H168351   2.977   4.439   7.149
22703WAT     H268352   2.846   4.407   7.057
22704WAT      O68353   0.068   2.889   9.661
22704WAT     H168354   0.000   2.962   9.647
22704WAT     H268355   0.028   2.801   9.634
22705WAT      O68356   1.897   9.594   2.335
22705WAT     H168357   1.893   9.495   2.347
22705WAT     H268358   1.935   9.616   2.245
22706WAT      O68359   6.741   1.621   5.698
22706WAT     H168360   6.649   1.599   5.665
22706WAT     H268361   6.764   1.715   5.673
22707WAT      O68362   8.839   7.646   4.359
22707WAT     H168363   8.794   7.734   4.344
22707WAT     H268364   8.938   7.660   4.361
22708WAT      O68365   4.016   7.361   5.244
22708WAT     H168366   3.945   7.400   5.186
22708WAT     H268367   3.980   7.280   5.291
22709WAT      O68368   9.287   7.798   3.371
22709WAT     H168369   9.233   7.860   3.428
22709WAT     H268370   9.367   7.767   3.422
22710WAT      O68371   4.768   4.656   4.333
22710WAT     H168372   4.692   4.615   4.383
22710WAT     H268373   4.796   4.595   4.259
22711WAT      O68374   7.359   6.973   6.608
22711WAT     H168375   7.379   7.065   6.643
22711WAT     H268376   7.363   6.907   6.683
22712WAT      O68377   3.006   6.649   2.053
22712WAT     H168378   3.006   6.737   2.004
22712WAT     H268379   2.950   6.583   2.003
22713WAT      O68380   8.205   2.657   2.235
22713WAT     H168381   8.147   2.641   2.314
22713WAT     H268382   8.151   2.699   2.162
22714WAT      O68383   7.256   5.768   5.543
22714WAT     H168384   7.266   5.674   5.575
22714WAT     H268385   7.250   5.829   5.622
22715WAT      O68386   4.141   5.813   4.831
22715WAT     H168387   4.113   5.733   4.778
22715WAT     H268388   4.062   5.851   4.879
22716WAT      O68389   8.751   8.799   7.452
22716WAT     H168390   8.755   8.812   7.551
22716WAT     H268391   8.832   8.748   7.423
22717WAT      O68392   7.990   8.194   9.270
22717WAT     H168393   8.085   8.190   9.301
22717WAT     H268394   7.980   8.140   9.186
22718WAT      O68395   8.116   6.198   1.356
22718WAT     H168396   8.048   6.147   1.303
22718WAT     H268397   8.076   6.227   1.443
22719WAT      O68398   7.409   0.303   1.379
22719WAT     H168399   7.427   0.306   1.281
22719WAT     H268400   7.460   0.376   1.424
22720WAT      O68401   0.879   3.910   4.815
22720WAT     H168402   0.950   3.872   4.874
22720WAT     H268403   0.794   3.921   4.866
22721WAT      O68404   3.755   7.502   2.140
22721WAT     H168405   3.837   7.486   2.194
22721WAT     H268406   3.686   7.433   2.163
22722WAT      O68407   9.691   6.381   0.897
22722WAT     H168408   9.754   6.409   0.825
22722WAT     H268409   9.715   6.427   0.982
22723WAT      O68410   6.731   6.882   5.512
22723WAT     H168411   6.785   6.853   5.434
22723WAT     H268412   6.668   6.955   5.484
22724WAT      O68413   2.750   7.370   3.199
22724WAT     H168414   2.660   7.332   3.218
22724WAT     H268415   2.798   7.388   3.285
22725WAT      O68416   1.824   4.169   6.385
22725WAT     H168417   1.775   4.097   6.433
22725WAT     H268418   1.767   4.251   6.379
22726WAT      O68419   8.748   5.904   5.651
22726WAT     H168420   8.781   5.930   5.560
22726WAT     H268421   8.648   5.902   5.650
22727WAT      O68422   6.919   0.501   6.930
22727WAT     H168423   6.878   0.503   6.838
22727WAT     H268424   6.967   0.414   6.943
22728WAT      O68425   2.492   7.088   7.618
22728WAT     H168426   2.499   7.159   7.688
22728WAT     H268427   2.471   7.129   7.530
22729WAT      O68428   3.833   9.767   7.249
22729WAT     H168429   3.915   9.771   7.307
22729WAT     H268430   3.763   9.713   7.295
22730WAT      O68431   7.799   8.815   1.099
22730WAT     H168432   7.809   8.913   1.114
22730WAT     H268433   7.874   8.766   1.144
22731WAT      O68434   9.864   9.392   7.868
22731WAT     H168435   9.911   9.481   7.867
22731WAT     H268436   9.915   9.327   7.813
22732WAT      O68437   2.823   9.779   8.424
22732WAT     H168438   2.847   9.753   8.330
22732WAT     H268439   2.723   9.788   8.431
22733WAT      O68440   1.509   3.945   5.299
22733WAT     H168441   1.557   3.857   5.292
22733WAT     H268442   1.506   3.973   5.395
22734WAT      O68443   1.441   5.058   3.798
22734WAT     H168444   1.398   5.123   3.861
22734WAT     H268445   1.538   5.081   3.788
22735WAT      O68446   6.397   7.691   5.201
22735WAT     H168447   6.305   7.678   5.237
22735WAT     H268448   6.411   7.788   5.179
22736WAT      O68449   6.401   5.881   1.284
22736WAT     H168450   6.413   5.979   1.270
22736WAT     H268451   6.314   5.864   1.331
22737WAT      O68452   4.958   6.055   8.102
22737WAT     H168453   5.009   6.128   8.055
22737WAT     H268454   4.971   6.063   8.201
22738WAT      O68455   6.066   7.365   4.061
22738WAT     H168456   6.166   7.376   4.060
22738WAT     H268457   6.044   7.272   4.090
22739WAT      O68458   4.581   9.821   8.963
22739WAT     H168459   4.592   9.902   8.906
22739WAT     H268460   4.603   9.739   8.910
22740WAT      O68461   0.307   4.777   7.644
22740WAT     H168462   0.247   4.757   7.566
22740WAT     H268463   0.370   4.701   7.658
22741WAT      O68464   3.082   7.580   4.211
22741WAT     H168465   3.018   7.613   4.142
22741WAT     H268466   3.040   7.506   4.264
22742WAT      O68467   5.186   9.234   6.321
22742WAT     H168468   5.185   9.181   6.236
22742WAT     H268469   5.214   9.328   6.302
22743WAT      O68470   0.782   6.135   2.309
22743WAT     H168471   0.881   6.142   2.296
22743WAT     H268472   0.760   6.047   2.350
22744WAT      O68473   8.156   4.526   2.261
22744WAT     H168474   8.134   4.430   2.278
22744WAT     H268475   8.192   4.568   2.344
22745WAT      O68476   7.445   2.482   4.726
22745WAT     H168477   7.412   2.568   4.688
22745WAT     H268478   7.368   2.432   4.767
22746WAT      O68479   7.427   8.375   9.208
22746WAT     H168480   7.445   8.342   9.115
22746WAT     H268481   7.480   8.321   9.274
22747WAT      O68482   1.365   7.781   0.371
22747WAT     H168483   1.441   7.826   0.323
22747WAT     H268484   1.397   7.695   0.410
22748WAT      O68485   4.873   8.434   5.871
22748WAT     H168486   4.783   8.392   5.859
22748WAT     H268487   4.944   8.369   5.844
22749WAT      O68488   5.611   3.702   4.501
22749WAT     H168489   5.662   3.617   4.514
22749WAT     H268490   5.656   3.776   4.551
22750WAT      O68491   3.073   7.471   7.015
22750WAT     H168492   2.984   7.504   6.982
22750WAT     H268493   3.088   7.504   7.108
22751WAT      O68494   8.035   0.275   7.390
22751WAT     H168495   8.127   0.240   7.371
22751WAT     H268496   7.995   0.313   7.307
22752WAT      O68497   0.498   8.620   9.024
22752WAT     H168498   0.469   8.548   9.087
22752WAT     H268499   0.473   8.709   9.062
22753WAT      O68500   3.183   8.481   4.948
22753WAT     H168501   3.251   8.424   4.900
22753WAT     H268502   3.107   8.423   4.977
22754WAT      O68503   2.670   2.452   6.714
22754WAT     H168504   2.696   2.548   6.716
22754WAT     H268505   2.714   2.407   6.636
22755WAT      O68506   0.376   3.476   5.381
22755WAT     H168507   0.442   3.440   5.447
22755WAT     H268508   0.425   3.523   5.307
22756WAT      O68509   9.233   1.893   1.686
22756WAT     H168510   9.253   1.919   1.781
22756WAT     H268511   9.305   1.928   1.626
22757WAT      O68512   1.287   3.160   6.090
22757WAT     H168513   1.297   3.234   6.023
22757WAT     H268514   1.233   3.086   6.050
22758WAT      O68515   0.216   1.262   2.613
22758WAT     H168516   0.195   1.287   2.708
22758WAT     H268517   0.314   1.273   2.596
22759WAT      O68518   0.153   3.397   2.340
22759WAT     H168519   0.079   3.401   2.272
22759WAT     H268520   0.226   3.459   2.314
22760WAT      O68521   8.513   6.464   0.908
22760WAT     H168522   8.499   6.411   0.992
22760WAT     H268523   8.463   6.551   0.915
22761WAT      O68524   7.247   1.011   4.556
22761WAT     H168525   7.290   0.921   4.568
22761WAT     H268526   7.152   0.999   4.528
22762WAT      O68527   9.147   2.723   1.949
22762WAT     H168528   9.076   2.747   2.015
22762WAT     H268529   9.218   2.792   1.949
22763WAT      O68530   0.810   7.965   6.118
22763WAT     H168531   0.879   7.946   6.049
22763WAT     H268532   0.740   7.894   6.116
22764WAT      O68533   1.931   3.644   1.158
22764WAT     H168534   1.909   3.623   1.063
22764WAT     H268535   1.986   3.570   1.196
22765WAT      O68536   1.336   5.060   0.540
22765WAT     H168537   1.409   5.102   0.487
22765WAT     H268538   1.277   5.131   0.578
22766WAT      O68539   2.428   5.181   0.075
22766WAT     H168540   2.492   5.256   0.060
22766WAT     H268541   2.362   5.209   0.145
22767WAT      O68542   1.022   3.027   0.472
22767WAT     H168543   1.092   2.988   0.412
22767WAT     H268544   1.036   3.126   0.480
22768WAT      O68545   4.889   4.441   1.549
22768WAT     H168546   4.943   4.503   1.491
22768WAT     H268547   4.793   4.448   1.525
22769WAT      O68548   5.805   8.892   8.200
22769WAT     H168549   5.863   8.909   8.279
22769WAT     H268550   5.764   8.977   8.169
22770WAT      O68551   5.824   2.129   4.890
22770WAT     H168552   5.852   2.147   4.984
22770WAT     H268553   5.891   2.070   4.846
22771WAT      O68554   0.290   0.797   7.469
22771WAT     H168555   0.311   0.839   7.557
22771WAT     H268556   0.192   0.805   7.450
22772WAT      O68557   7.013   4.910   7.185
22772WAT     H168558   6.933   4.859   7.155
22772WAT     H268559   7.069   4.852   7.244
22773WAT      O68560   1.207   2.570   8.471
22773WAT     H168561   1.246   2.483   8.500
22773WAT     H268562   1.216   2.637   8.545
22774WAT      O68563   4.677   5.253   7.388
22774WAT     H168564   4.675   5.293   7.296
22774WAT     H268565   4.744   5.302   7.444
22775WAT      O68566   5.607   1.434   0.371
22775WAT     H168567   5.586   1.532   0.374
22775WAT     H268568   5.613   1.405   0.275
22776WAT      O68569   8.724   0.367   2.577
22776WAT     H168570   8.793   0.336   2.512
22776WAT     H268571   8.703   0.464   2.559
22777WAT      O68572   0.120   9.669   7.840
22777WAT     H168573   0.186   9.605   7.800
22777WAT     H268574   0.159   9.709   7.923
22778WAT      O68575   0.397   1.015   4.073
22778WAT     H168576   0.323   0.949   4.082
22778WAT     H268577   0.439   1.005   3.982
22779WAT      O68578   2.700   0.677   6.426
22779WAT     H168579   2.663   0.652   6.337
22779WAT     H268580   2.625   0.684   6.492
22780WAT      O68581   6.735   3.885   1.767
22780WAT     H168582   6.782   3.814   1.714
22780WAT     H268583   6.640   3.857   1.783
22781WAT      O68584   0.494   4.863   3.727
22781WAT     H168585   0.492   4.896   3.821
22781WAT     H268586   0.514   4.765   3.727
22782WAT      O68587   5.131   3.265   6.722
22782WAT     H168588   5.229   3.254   6.709
22782WAT     H268589   5.101   3.351   6.679
22783WAT      O68590   8.759   2.962   4.403
22783WAT     H168591   8.748   2.934   4.307
22783WAT     H268592   8.853   2.992   4.418
22784WAT      O68593   4.084   7.371   7.496
22784WAT     H168594   4.025   7.290   7.505
22784WAT     H268595   4.125   7.372   7.405
22785WAT      O68596   5.312   8.684   3.309
22785WAT     H168597   5.218   8.717   3.320
22785WAT     H268598   5.374   8.743   3.361
22786WAT      O68599   5.625   7.620   4.923
22786WAT     H168600   5.631   7.628   5.022
22786WAT     H268601   5.714   7.598   4.885
22787WAT      O68602   8.986   8.922   1.765
22787WAT     H168603   8.986   8.823   1.783
22787WAT     H268604   9.079   8.957   1.776
22788WAT      O68605   5.671   1.594   7.763
22788WAT     H168606   5.668   1.495   7.777
22788WAT     H268607   5.614   1.640   7.830
22789WAT      O68608   2.911   4.830   2.162
22789WAT     H168609   2.839   4.856   2.226
22789WAT     H268610   2.929   4.731   2.170
22790WAT      O68611   4.245   8.725   6.682
22790WAT     H168612   4.259   8.705   6.779
22790WAT     H268613   4.161   8.778   6.672
22791WAT      O68614   7.494   7.174   4.300
22791WAT     H168615   7.459   7.092   4.255
22791WAT     H268616   7.418   7.226   4.339
22792WAT      O68617   4.978   8.963   0.201
22792WAT     H168618   4.947   9.057   0.213
22792WAT     H268619   4.917   8.901   0.250
22793WAT      O68620   8.960   8.012   8.744
22793WAT     H168621   8.926   7.938   8.801
22793WAT     H268622   8.885   8.048   8.688
22794WAT      O68623   6.875   1.502   0.680
22794WAT     H168624   6.936   1.475   0.754
22794WAT     H268625   6.802   1.561   0.716
22795WAT      O68626   7.588   6.380   4.975
22795WAT     H168627   7.575   6.439   5.055
22795WAT     H268628   7.507   6.321   4.965
22796WAT      O68629   4.322   3.073   9.284
22796WAT     H168630   4.285   3.132   9.212
22796WAT     H268631   4.414   3.104   9.308
22797WAT      O68632   0.899   7.518   5.157
22797WAT     H168633   0.875   7.460   5.080
22797WAT     H268634   0.993   7.552   5.145
22798WAT      O68635   5.380   7.015   1.317
22798WAT     H168636   5.398   7.109   1.286
22798WAT     H268637   5.282   7.002   1.328
22799WAT      O68638   0.847   7.155   8.408
22799WAT     H168639   0.762   7.208   8.416
22799WAT     H268640   0.824   7.059   8.397
22800WAT      O68641   5.573   0.513   1.268
22800WAT     H168642   5.541   0.601   1.303
22800WAT     H268643   5.669   0.500   1.292
22801WAT      O68644   7.674   6.889   0.578
22801WAT     H168645   7.699   6.870   0.483
22801WAT     H268646   7.737   6.840   0.639
22802WAT      O68647   0.819   0.347   3.734
22802WAT     H168648   0.800   0.313   3.642
22802WAT     H268649   0.758   0.424   3.754
22803WAT      O68650   5.219   0.456   9.804
22803WAT     H168651   5.182   0.538   9.761
22803WAT     H268652   5.256   0.395   9.734
22804WAT      O68653   0.599   9.688   0.985
22804WAT     H168654   0.655   9.634   0.922
22804WAT     H268655   0.508   9.646   0.993
22805WAT      O68656   7.846   2.300   6.093
22805WAT     H168657   7.747   2.312   6.082
22805WAT     H268658   7.894   2.352   6.023
22806WAT      O68659   4.103   4.927   1.621
22806WAT     H168660   4.051   4.911   1.537
22806WAT     H268661   4.047   4.903   1.700
22807WAT      O68662   2.249   7.009   5.129
22807WAT     H168663   2.299   6.923   5.140
22807WAT     H268664   2.290   7.062   5.055
22808WAT      O68665   4.844   8.265   8.548
22808WAT     H168666   4.940   8.255   8.522
22808WAT     H268667   4.810   8.179   8.584
22809WAT      O68668   8.635   4.703   7.911
22809WAT     H168669   8.598   4.725   8.002
22809WAT     H268670   8.724   4.747   7.900
22810WAT      O68671   3.534   0.758   5.140
22810WAT     H168672   3.486   0.707   5.211
22810WAT     H268673   3.575   0.840   5.180
22811WAT      O68674   4.629   2.570   4.698
22811WAT     H168675   4.579   2.616   4.772
22811WAT     H268676   4.639   2.633   4.621
22812WAT      O68677   4.779   2.049   0.811
22812WAT     H168678   4.807   1.970   0.757
22812WAT     H268679   4.788   2.029   0.908
22813WAT      O68680   7.386   5.903   7.699
22813WAT     H168681   7.328   5.917   7.779
22813WAT     H268682   7.362   5.816   7.655
22814WAT      O68683   4.016   7.260   9.356
22814WAT     H168684   3.971   7.180   9.395
22814WAT     H268685   3.987   7.271   9.261
22815WAT      O68686   4.578   3.588   7.617
22815WAT     H168687   4.603   3.591   7.520
22815WAT     H268688   4.582   3.493   7.649
22816WAT      O68689   2.302   6.204   8.189
22816WAT     H168690   2.221   6.218   8.246
22816WAT     H268691   2.376   6.263   8.221
22817WAT      O68692   4.471   9.176   5.897
22817WAT     H168693   4.393   9.145   5.843
22817WAT     H268694   4.449   9.263   5.940
22818WAT      O68695   6.763   9.320   9.669
22818WAT     H168696   6.815   9.398   9.635
22818WAT     H268697   6.741   9.258   9.594
22819WAT      O68698   2.594   5.918   6.833
22819WAT     H168699   2.633   5.933   6.742
22819WAT     H268700   2.534   5.838   6.831
22820WAT      O68701   9.370   3.796   7.523
22820WAT     H168702   9.278   3.826   7.497
22820WAT     H268703   9.393   3.831   7.613
22821WAT      O68704   9.122   1.899   9.206
22821WAT     H168705   9.083   1.807   9.205
22821WAT     H268706   9.106   1.941   9.295
22822WAT      O68707   3.329   4.698   1.843
22822WAT     H168708   3.311   4.775   1.903
22822WAT     H268709   3.417   4.656   1.868
22823WAT      O68710   6.450   3.229   5.604
22823WAT     H168711   6.381   3.158   5.617
22823WAT     H268712   6.426   3.285   5.524
22824WAT      O68713   8.201   5.482   5.285
22824WAT     H168714   8.175   5.568   5.242
22824WAT     H268715   8.205   5.410   5.217
22825WAT      O68716   0.835   6.472   1.984
22825WAT     H168717   0.770   6.518   1.923
22825WAT     H268718   0.788   6.399   2.034
22826WAT      O68719   6.217   3.366   6.324
22826WAT     H168720   6.279   3.344   6.400
22826WAT     H268721   6.261   3.345   6.237
22827WAT      O68722   5.511   7.418   2.725
22827WAT     H168723   5.518   7.324   2.691
22827WAT     H268724   5.571   7.478   2.671
22828WAT      O68725   0.051   4.644   9.151
22828WAT     H168726  -0.045   4.672   9.152
22828WAT     H268727   0.104   4.709   9.206
22829WAT      O68728   6.214   6.124   9.441
22829WAT     H168729   6.125   6.164   9.418
22829WAT     H268730   6.226   6.124   9.540
22830WAT      O68731   8.470   5.112   5.966
22830WAT     H168732   8.463   5.078   6.060
22830WAT     H268733   8.393   5.077   5.913
22831WAT      O68734   8.697   1.236   9.501
22831WAT     H168735   8.604   1.226   9.466
22831WAT     H268736   8.746   1.150   9.490
22832WAT      O68737   2.965   2.556   3.619
22832WAT     H168738   2.924   2.575   3.708
22832WAT     H268739   2.961   2.458   3.600
22833WAT      O68740   1.688   1.416   7.073
22833WAT     H168741   1.661   1.425   6.977
22833WAT     H268742   1.708   1.320   7.092
22834WAT      O68743   1.257   6.254   7.356
22834WAT     H168744   1.355   6.248   7.378
22834WAT     H268745   1.218   6.336   7.399
22835WAT      O68746   3.635   3.446   4.574
22835WAT     H168747   3.635   3.536   4.619
22835WAT     H268748   3.727   3.424   4.543
22836WAT      O68749   2.234   1.257   6.822
22836WAT     H168750   2.159   1.294   6.767
22836WAT     H268751   2.321   1.270   6.773
22837WAT      O68752   3.009   9.492   7.067
22837WAT     H168753   3.061   9.441   7.136
22837WAT     H268754   2.945   9.431   7.021
22838WAT      O68755   0.676   0.848   2.036
22838WAT     H168756   0.595   0.907   2.034
22838WAT     H268757   0.684   0.800   1.948
22839WAT      O68758   9.084   1.437   5.416
22839WAT     H168759   9.053   1.507   5.351
22839WAT     H268760   9.173   1.402   5.388
22840WAT      O68761   6.570   8.342   8.074
22840WAT     H168762   6.486   8.309   8.030
22840WAT     H268763   6.555   8.433   8.112
22841WAT      O68764   2.427   2.686   1.186
22841WAT     H168765   2.418   2.591   1.214
22841WAT     H268766   2.489   2.692   1.108
22842WAT      O68767   4.122   8.118   9.585
22842WAT     H168768   4.054   8.131   9.513
22842WAT     H268769   4.102   8.035   9.637
22843WAT      O68770   7.406   0.483   5.306
22843WAT     H168771   7.434   0.535   5.387
22843WAT     H268772   7.488   0.459   5.252
22844WAT      O68773   9.069   1.676   5.248
22844WAT     H168774   9.145   1.686   5.184
22844WAT     H268775   8.985   1.657   5.197
22845WAT      O68776   0.240   1.753   1.728
22845WAT     H168777   0.239   1.670   1.673
22845WAT     H268778   0.169   1.816   1.696
22846WAT      O68779   6.339   4.456   2.847
22846WAT     H168780   6.321   4.389   2.919
22846WAT     H268781   6.409   4.520   2.878
22847WAT      O68782   5.821   6.164   2.102
22847WAT     H168783   5.882   6.171   2.181
22847WAT     H268784   5.731   6.130   2.131
22848WAT      O68785   1.031   3.778   7.847
22848WAT     H168786   0.989   3.769   7.937
22848WAT     H268787   1.057   3.873   7.831
22849WAT      O68788   0.417   7.405   7.659
22849WAT     H168789   0.480   7.329   7.642
22849WAT     H268790   0.455   7.489   7.622
22850WAT      O68791   9.453   2.788   8.336
22850WAT     H168792   9.369   2.738   8.319
22850WAT     H268793   9.462   2.806   8.434
22851WAT      O68794   6.620   0.453   1.314
22851WAT     H168795   6.537   0.491   1.274
22851WAT     H268796   6.598   0.401   1.397
22852WAT      O68797   9.445   4.801   8.071
22852WAT     H168798   9.432   4.898   8.093
22852WAT     H268799   9.369   4.748   8.108
22853WAT      O68800   3.435   8.414   2.360
22853WAT     H168801   3.513   8.361   2.392
22853WAT     H268802   3.456   8.512   2.368
22854WAT      O68803   6.118   8.785   1.805
22854WAT     H168804   6.202   8.769   1.857
22854WAT     H268805   6.076   8.698   1.781
22855WAT      O68806   5.044   9.579   7.541
22855WAT     H168807   5.110   9.505   7.528
22855WAT     H268808   4.962   9.543   7.585
22856WAT      O68809   2.488   5.156   2.568
22856WAT     H168810   2.567   5.177   2.625
22856WAT     H268811   2.496   5.205   2.481
22857WAT      O68812   0.498   0.086   6.294
22857WAT     H168813   0.466   0.168   6.247
22857WAT     H268814   0.596   0.073   6.276
22858WAT      O68815   1.372   2.202   4.613
22858WAT     H168816   1.383   2.279   4.676
22858WAT     H268817   1.288   2.152   4.636
22859WAT      O68818   0.738   8.274   6.363
22859WAT     H168819   0.720   8.232   6.274
22859WAT     H268820   0.836   8.267   6.384
22860WAT      O68821   1.357   6.619   0.755
22860WAT     H168822   1.414   6.553   0.706
22860WAT     H268823   1.404   6.707   0.760
22861WAT      O68824   5.371   9.153   2.329
22861WAT     H168825   5.399   9.193   2.242
22861WAT     H268826   5.432   9.185   2.402
22862WAT      O68827   5.182   7.501   6.944
22862WAT     H168828   5.191   7.404   6.968
22862WAT     H268829   5.272   7.543   6.935
22863WAT      O68830   1.054   6.071   9.384
22863WAT     H168831   1.071   5.979   9.421
22863WAT     H268832   1.125   6.093   9.317
22864WAT      O68833   8.701   6.047   1.985
22864WAT     H168834   8.784   6.061   1.931
22864WAT     H268835   8.715   5.970   2.048
22865WAT      O68836   3.263   3.907   8.055
22865WAT     H168837   3.333   3.979   8.063
22865WAT     H268838   3.306   3.823   8.023
22866WAT      O68839   0.400   2.559   8.315
22866WAT     H168840   0.331   2.614   8.269
22866WAT     H268841   0.490   2.579   8.276
22867WAT      O68842   0.865   3.076   1.759
22867WAT     H168843   0.935   3.005   1.754
22867WAT     H268844   0.813   3.065   1.844
22868WAT      O68845   9.002   8.944   7.938
22868WAT     H168846   9.096   8.957   7.907
22868WAT     H268847   8.963   8.864   7.894
22869WAT      O68848   6.162   0.986   1.344
22869WAT     H168849   6.110   0.919   1.291
22869WAT     H268850   6.133   0.984   1.439
22870WAT      O68851   1.247   6.613   4.427
22870WAT     H168852   1.258   6.636   4.330
22870WAT     H268853   1.298   6.530   4.447
22871WAT      O68854   2.867   6.772   9.098
22871WAT     H168855   2.947   6.729   9.139
22871WAT     H268856   2.815   6.704   9.046
22872WAT      O68857   5.264   9.781   1.186
22872WAT     H168858   5.227   9.694   1.156
22872WAT     H268859   5.193   9.851   1.181
22873WAT      O68860   6.230   6.715   9.823
22873WAT     H168861   6.229   6.628   9.872
22873WAT     H268862   6.180   6.704   9.737
22874WAT      O68863   0.972   9.659   2.252
22874WAT     H168864   0.963   9.560   2.268
22874WAT     H268865   0.881   9.698   2.235
22875WAT      O68866   6.723   2.836   9.626
22875WAT     H168867   6.778   2.822   9.708
22875WAT     H268868   6.761   2.782   9.551
22876WAT      O68869   1.080   6.326   2.546
22876WAT     H168870   1.129   6.331   2.633
22876WAT     H268871   1.099   6.238   2.502
22877WAT      O68872   4.101   0.005   4.297
22877WAT     H168873   4.022   0.053   4.336
22877WAT     H268874   4.180   0.066   4.298
22878WAT      O68875   4.889   3.697   5.912
22878WAT     H168876   4.864   3.792   5.894
22878WAT     H268877   4.857   3.640   5.837
22879WAT      O68878   9.804   8.952   0.378
22879WAT     H168879   9.787   8.872   0.320
22879WAT     H268880   9.862   8.925   0.456
22880WAT      O68881   6.694   7.212   6.815
22880WAT     H168882   6.697   7.113   6.825
22880WAT     H268883   6.602   7.240   6.786
22881WAT      O68884   5.944   7.895   7.045
22881WAT     H168885   5.988   7.922   7.131
22881WAT     H268886   5.928   7.977   6.990
22882WAT      O68887   6.187   5.209   4.083
22882WAT     H168888   6.223   5.232   4.173
22882WAT     H268889   6.262   5.180   4.023
22883WAT      O68890   8.558   4.130   4.381
22883WAT     H168891   8.631   4.078   4.336
22883WAT     H268892   8.476   4.128   4.324
22884WAT      O68893   0.370   2.888   0.850
22884WAT     H168894   0.443   2.847   0.795
22884WAT     H268895   0.410   2.930   0.931
22885WAT      O68896   5.355   9.606   2.603
22885WAT     H168897   5.436   9.565   2.644
22885WAT     H268898   5.380   9.692   2.557
22886WAT      O68899   9.396   5.358   2.408
22886WAT     H168900   9.460   5.411   2.463
22886WAT     H268901   9.396   5.393   2.315
22887WAT      O68902   0.650   8.363   7.513
22887WAT     H168903   0.688   8.397   7.599
22887WAT     H268904   0.687   8.272   7.494
22888WAT      O68905   2.165   6.103   0.078
22888WAT     H168906   2.233   6.176   0.071
22888WAT     H268907   2.079   6.142   0.111
22889WAT      O68908   7.727   1.510   8.719
22889WAT     H168909   7.737   1.572   8.642
22889WAT     H268910   7.756   1.556   8.803
22890WAT      O68911   2.744   4.626   2.438
22890WAT     H168912   2.707   4.619   2.346
22890WAT     H268913   2.824   4.687   2.437
22891WAT      O68914   7.409   8.948   5.231
22891WAT     H168915   7.447   8.894   5.307
22891WAT     H268916   7.409   8.892   5.148
22892WAT      O68917   6.064   8.946   2.183
22892WAT     H168918   6.066   8.977   2.087
22892WAT     H268919   6.015   9.013   2.238
22893WAT      O68920   9.376   9.052   0.326
22893WAT     H168921   9.357   9.007   0.239
22893WAT     H268922   9.343   8.995   0.401
22894WAT      O68923   4.594   6.582   5.090
22894WAT     H168924   4.630   6.667   5.128
22894WAT     H268925   4.508   6.559   5.137
22895WAT      O68926   9.129   8.461   2.801
22895WAT     H168927   9.181   8.521   2.861
22895WAT     H268928   9.061   8.411   2.854
22896WAT      O68929   4.536   3.260   8.411
22896WAT     H168930   4.467   3.321   8.450
22896WAT     H268931   4.607   3.314   8.366
22897WAT      O68932   6.428   4.544   9.871
22897WAT     H168933   6.465   4.483   9.800
22897WAT     H268934   6.336   4.572   9.846
22898WAT      O68935   4.886   7.174   9.441
22898WAT     H168936   4.944   7.237   9.493
22898WAT     H268937   4.844   7.109   9.504
22899WAT      O68938   3.421   7.963   9.187
22899WAT     H168939   3.457   7.967   9.281
22899WAT     H268940   3.326   7.995   9.187
22900WAT      O68941   2.404   6.994   8.031
22900WAT     H168942   2.498   7.007   8.063
22900WAT     H268943   2.348   7.072   8.061
22901WAT      O68944   1.626   2.114   3.591
22901WAT     H168945   1.586   2.023   3.584
22901WAT     H268946   1.716   2.109   3.634
22902WAT      O68947   7.587   8.625   4.026
22902WAT     H168948   7.641   8.609   4.109
22902WAT     H268949   7.600   8.719   3.996
22903WAT      O68950   7.092   1.647   6.640
22903WAT     H168951   7.134   1.729   6.677
22903WAT     H268952   6.993   1.657   6.640
22904WAT      O68953   4.944   4.762   0.608
22904WAT     H168954   4.877   4.710   0.661
22904WAT     H268955   5.034   4.720   0.617
22905WAT      O68956   7.259   6.489   0.906
22905WAT     H168957   7.190   6.504   0.836
22905WAT     H268958   7.274   6.390   0.917
22906WAT      O68959   0.930   7.330   3.042
22906WAT     H168960   0.837   7.348   3.074
22906WAT     H268961   0.936   7.236   3.006
22907WAT      O68962   4.063   4.453   5.291
22907WAT     H168963   4.092   4.514   5.364
22907WAT     H268964   4.011   4.377   5.330
22908WAT      O68965   7.166   8.004   6.528
22908WAT     H168966   7.066   7.999   6.523
22908WAT     H268967   7.194   8.100   6.530
22909WAT      O68968   4.073   5.463   3.924
22909WAT     H168969   3.977   5.479   3.905
22909WAT     H268970   4.130   5.523   3.868
22910WAT      O68971   8.174   6.275   8.001
22910WAT     H168972   8.132   6.283   8.092
22910WAT     H268973   8.153   6.186   7.962
22911WAT      O68974   0.565   4.270   0.191
22911WAT     H168975   0.600   4.266   0.097
22911WAT     H268976   0.547   4.178   0.224
22912WAT      O68977   8.685   4.089   6.243
22912WAT     H168978   8.619   4.106   6.170
22912WAT     H268979   8.772   4.135   6.221
22913WAT      O68980   2.162   0.778   5.884
22913WAT     H168981   2.076   0.753   5.840
22913WAT     H268982   2.234   0.717   5.852
22914WAT      O68983   4.014   1.633   1.464
22914WAT     H168984   4.029   1.540   1.498
22914WAT     H268985   4.094   1.662   1.411
22915WAT      O68986   3.403   7.868   8.920
22915WAT     H168987   3.435   7.922   8.998
22915WAT     H268988   3.476   7.862   8.852
22916WAT      O68989   8.963   7.454   9.769
22916WAT     H168990   8.873   7.498   9.761
22916WAT     H268991   8.971   7.383   9.700
22917WAT      O68992   4.890   4.224   1.310
22917WAT     H168993   4.862   4.139   1.267
22917WAT     H268994   4.810   4.281   1.329
22918WAT      O68995   3.878   2.746   1.997
22918WAT     H168996   3.782   2.748   2.023
22918WAT     H268997   3.888   2.780   1.904
22919WAT      O68998   2.556   9.262   4.313
22919WAT     H168999   2.529   9.358   4.315
22919WAT     H269000   2.656   9.255   4.312
22920WAT      O69001   8.520   6.341   3.725
22920WAT     H169002   8.537   6.436   3.754
22920WAT     H269003   8.512   6.339   3.626
22921WAT      O69004   1.502   8.969   2.632
22921WAT     H169005   1.447   9.051   2.642
22921WAT     H269006   1.575   8.984   2.565
22922WAT      O69007   2.891   3.712   4.444
22922WAT     H169008   2.847   3.648   4.382
22922WAT     H269009   2.989   3.692   4.449
22923WAT      O69010   7.475   0.687   7.606
22923WAT     H169011   7.500   0.737   7.523
22923WAT     H269012   7.395   0.630   7.587
22924WAT      O69013   6.059   4.999   2.302
22924WAT     H169014   5.973   5.035   2.266
22924WAT     H269015   6.041   4.919   2.359
22925WAT      O69016   1.545   5.338   2.513
22925WAT     H169017   1.455   5.295   2.516
22925WAT     H269018   1.573   5.351   2.418
22926WAT      O69019   2.725   7.092   6.816
22926WAT     H169020   2.785   7.030   6.765
22926WAT     H269021   2.679   7.041   6.889
22927WAT      O69022   2.089   2.352   6.807
22927WAT     H169023   2.101   2.341   6.708
22927WAT     H269024   2.178   2.372   6.849
22928WAT      O69025   6.245   7.012   8.306
22928WAT     H169026   6.215   6.953   8.381
22928WAT     H269027   6.282   7.097   8.343
22929WAT      O69028   2.687   7.371   0.118
22929WAT     H169029   2.741   7.446   0.081
22929WAT     H269030   2.597   7.404   0.145
22930WAT      O69031   4.568   4.117   1.523
22930WAT     H169032   4.665   4.091   1.522
22930WAT     H269033   4.527   4.093   1.435
22931WAT      O69034   0.529   2.109   4.585
22931WAT     H169035   0.595   2.114   4.660
22931WAT     H269036   0.542   2.187   4.524
22932WAT      O69037   4.950   6.238   0.797
22932WAT     H169038   4.905   6.150   0.811
22932WAT     H269039   4.913   6.282   0.715
22933WAT      O69040   2.197   8.309   2.555
22933WAT     H169041   2.120   8.306   2.619
22933WAT     H269042   2.272   8.361   2.596
22934WAT      O69043   6.999   9.515   0.670
22934WAT     H169044   7.029   9.426   0.636
22934WAT     H269045   6.944   9.561   0.600
22935WAT      O69046   2.526   9.504   7.635
22935WAT     H169047   2.527   9.552   7.723
22935WAT     H269048   2.433   9.507   7.597
22936WAT      O69049   6.872   5.618   4.428
22936WAT     H169050   6.872   5.675   4.510
22936WAT     H269051   6.963   5.619   4.387
22937WAT      O69052   0.780   5.755   3.411
22937WAT     H169053   0.802   5.659   3.422
22937WAT     H269054   0.764   5.775   3.314
22938WAT      O69055   0.247   3.182   5.559
22938WAT     H169056   0.207   3.234   5.635
22938WAT     H269057   0.282   3.095   5.593
22939WAT      O69058   8.136   9.043   5.492
22939WAT     H169059   8.209   9.069   5.555
22939WAT     H269060   8.056   9.102   5.506
22940WAT      O69061   3.360   0.180   8.645
22940WAT     H169062   3.438   0.231   8.682
22940WAT     H269063   3.381   0.150   8.552
22941WAT      O69064   7.257   0.127   5.122
22941WAT     H169065   7.188   0.056   5.134
22941WAT     H269066   7.301   0.146   5.209
22942WAT      O69067   8.028   3.238  -0.000
22942WAT     H169068   8.109   3.269  -0.051
22942WAT     H269069   8.019   3.293   0.083
22943WAT      O69070   6.622   3.940   9.553
22943WAT     H169071   6.644   3.894   9.639
22943WAT     H269072   6.524   3.960   9.550
22944WAT      O69073   9.271   6.626   2.206
22944WAT     H169074   9.191   6.675   2.239
22944WAT     H269075   9.261   6.609   2.107
22945WAT      O69076   5.449   1.930   6.378
22945WAT     H169077   5.440   2.004   6.311
22945WAT     H269078   5.371   1.868   6.370
22946WAT      O69079   8.549   7.350   0.462
22946WAT     H169080   8.629   7.371   0.518
22946WAT     H269081   8.561   7.259   0.422
22947WAT      O69082   2.841   7.989   9.775
22947WAT     H169083   2.781   7.964   9.851
22947WAT     H269084   2.823   7.929   9.697
22948WAT      O69085   0.809   2.665   2.962
22948WAT     H169086   0.882   2.708   3.015
22948WAT     H269087   0.720   2.701   2.993
22949WAT      O69088   8.673   6.285   5.273
22949WAT     H169089   8.617   6.357   5.314
22949WAT     H269090   8.722   6.236   5.345
22950WAT      O69091   2.487   6.856   9.168
22950WAT     H169092   2.494   6.766   9.212
22950WAT     H269093   2.533   6.924   9.225
22951WAT      O69094   1.290   3.445   3.924
22951WAT     H169095   1.245   3.532   3.944
22951WAT     H269096   1.346   3.417   4.002
22952WAT      O69097   1.963   0.429   1.571
22952WAT     H169098   1.908   0.506   1.540
22952WAT     H269099   1.912   0.344   1.562
22953WAT      O69100   8.283   8.763   7.594
22953WAT     H169101   8.370   8.713   7.592
22953WAT     H269102   8.231   8.743   7.511
22954WAT      O69103   9.109   1.383   0.563
22954WAT     H169104   9.020   1.385   0.517
22954WAT     H269105   9.133   1.474   0.594
22955WAT      O69106   6.963   8.089   1.020
22955WAT     H169107   7.024   8.021   0.979
22955WAT     H269108   6.936   8.059   1.112
22956WAT      O69109   9.496   5.100   2.447
22956WAT     H169110   9.462   5.193   2.441
22956WAT     H269111   9.591   5.100   2.479
22957WAT      O69112   9.725   5.266   3.276
22957WAT     H169113   9.745   5.317   3.359
22957WAT     H269114   9.759   5.172   3.285
22958WAT      O69115   0.761   5.187   8.712
22958WAT     H169116   0.841   5.129   8.696
22958WAT     H269117   0.680   5.130   8.724
22959WAT      O69118   1.086   1.363   5.425
22959WAT     H169119   1.017   1.429   5.453
22959WAT     H269120   1.173   1.410   5.411
22960WAT      O69121   8.888   3.974   7.410
22960WAT     H169122   8.923   4.050   7.356
22960WAT     H269123   8.832   4.009   7.485
22961WAT      O69124   2.929   2.796   2.918
22961WAT     H169125   2.971   2.705   2.924
22961WAT     H269126   2.830   2.788   2.908
22962WAT      O69127   6.331   7.044   1.808
22962WAT     H169128   6.263   7.042   1.735
22962WAT     H269129   6.421   7.020   1.770
22963WAT      O69130   1.738   7.166   5.482
22963WAT     H169131   1.743   7.145   5.385
22963WAT     H269132   1.664   7.232   5.498
22964WAT      O69133   0.252   5.046   3.472
22964WAT     H169134   0.175   5.016   3.528
22964WAT     H269135   0.221   5.065   3.379
22965WAT      O69136   6.713   0.803   9.107
22965WAT     H169137   6.651   0.873   9.072
22965WAT     H269138   6.680   0.770   9.196
22966WAT      O69139   6.015   7.410   9.121
22966WAT     H169140   6.000   7.418   9.022
22966WAT     H269141   6.008   7.500   9.163
22967WAT      O69142   6.842   9.813   4.898
22967WAT     H169143   6.781   9.735   4.913
22967WAT     H269144   6.858   9.825   4.800
22968WAT      O69145   5.253   7.246   7.022
22968WAT     H169146   5.189   7.169   7.021
22968WAT     H269147   5.321   7.233   7.094
22969WAT      O69148   5.831   6.045   9.551
22969WAT     H169149   5.862   6.140   9.546
22969WAT     H269150   5.736   6.040   9.520
22970WAT      O69151   4.425   7.238   9.621
22970WAT     H169152   4.351   7.280   9.569
22970WAT     H269153   4.513   7.268   9.584
22971WAT      O69154   1.414   9.312   9.510
22971WAT     H169155   1.415   9.250   9.589
22971WAT     H269156   1.506   9.321   9.474
22972WAT      O69157   7.890   6.484   3.665
22972WAT     H169158   7.823   6.410   3.677
22972WAT     H269159   7.864   6.540   3.586
22973WAT      O69160   5.247   7.278   8.611
22973WAT     H169161   5.245   7.178   8.616
22973WAT     H269162   5.174   7.309   8.551
22974WAT      O69163   5.905   0.620   8.968
22974WAT     H169164   5.904   0.562   9.050
22974WAT     H269165   5.858   0.706   8.988
22975WAT      O69166   0.759   4.618   1.452
22975WAT     H169167   0.731   4.697   1.397
22975WAT     H269168   0.838   4.574   1.409
22976WAT      O69169   0.358   0.675   0.167
22976WAT     H169170   0.359   0.736   0.246
22976WAT     H269171   0.330   0.584   0.195
22977WAT      O69172   2.883   3.690   9.638
22977WAT     H169173   2.915   3.620   9.573
22977WAT     H269174   2.951   3.701   9.710
22978WAT      O69175   2.022   0.831   6.683
22978WAT     H169176   2.084   0.902   6.715
22978WAT     H269177   1.927   0.862   6.692
22979WAT      O69178   0.213   7.485   5.892
22979WAT     H169179   0.124   7.527   5.876
22979WAT     H269180   0.206   7.386   5.886
22980WAT      O69181   1.787   6.836   9.507
22980WAT     H169182   1.725   6.784   9.566
22980WAT     H269183   1.743   6.853   9.419
22981WAT      O69184   2.416   9.452   3.697
22981WAT     H169185   2.479   9.473   3.623
22981WAT     H269186   2.460   9.471   3.785
22982WAT      O69187   9.697   4.094   3.129
22982WAT     H169188   9.634   4.127   3.199
22982WAT     H269189   9.705   4.162   3.056
22983WAT      O69190   5.057   5.328   1.975
22983WAT     H169191   5.134   5.283   1.930
22983WAT     H269192   5.057   5.306   2.073
22984WAT      O69193   3.481   6.431   8.942
22984WAT     H169194   3.547   6.463   8.875
22984WAT     H269195   3.414   6.371   8.897
22985WAT      O69196   0.448   3.320   0.471
22985WAT     H169197   0.534   3.366   0.450
22985WAT     H269198   0.461   3.221   0.467
22986WAT      O69199   0.122   0.678   5.077
22986WAT     H169200   0.104   0.725   5.163
22986WAT     H269201   0.066   0.595   5.072
22987WAT      O69202   3.961   9.662   1.426
22987WAT     H169203   3.867   9.694   1.443
22987WAT     H269204   3.959   9.587   1.359
22988WAT      O69205   4.832   7.288   6.217
22988WAT     H169206   4.835   7.359   6.147
22988WAT     H269207   4.782   7.208   6.181
22989WAT      O69208   1.870   7.911   7.163
22989WAT     H169209   1.873   8.006   7.132
22989WAT     H269210   1.803   7.860   7.110
22990WAT      O69211   7.632   4.161   3.954
22990WAT     H169212   7.591   4.109   4.029
22990WAT     H269213   7.728   4.135   3.944
22991WAT      O69214   7.144   9.244   6.994
22991WAT     H169215   7.149   9.266   7.091
22991WAT     H269216   7.236   9.221   6.961
22992WAT      O69217   4.594   9.441   4.103
22992WAT     H169218   4.647   9.423   4.021
22992WAT     H269219   4.501   9.469   4.078
22993WAT      O69220   0.755   2.372   4.869
22993WAT     H169221   0.736   2.282   4.829
22993WAT     H269222   0.804   2.360   4.956
22994WAT      O69223   6.872   7.059   7.711
22994WAT     H169224   6.965   7.056   7.674
22994WAT     H269225   6.807   7.063   7.635
22995WAT      O69226   3.200   0.651   6.090
22995WAT     H169227   3.291   0.689   6.110
22995WAT     H269228   3.200   0.611   5.999
22996WAT      O69229   2.598   9.403   6.019
22996WAT     H169230   2.599   9.423   5.921
22996WAT     H269231   2.576   9.486   6.070
22997WAT      O69232   0.068   4.383   3.688
22997WAT     H169233   0.147   4.428   3.646
22997WAT     H269234   0.021   4.447   3.749
22998WAT      O69235   5.873   9.756   4.326
22998WAT     H169236   5.846   9.720   4.415
22998WAT     H269237   5.842   9.851   4.317
22999WAT      O69238   2.003   4.656   3.382
22999WAT     H169239   2.006   4.718   3.460
22999WAT     H269240   1.908   4.630   3.364
23000WAT      O69241   2.004   8.292   7.524
23000WAT     H169242   1.980   8.202   7.562
23000WAT     H269243   2.102   8.296   7.508
23001WAT      O69244   8.097   8.892   2.685
23001WAT     H169245   8.176   8.887   2.746
23001WAT     H269246   8.082   8.986   2.657
23002WAT      O69247   0.776   1.656   3.988
23002WAT     H169248   0.791   1.743   3.941
23002WAT     H269249   0.822   1.583   3.937
23003WAT      O69250   3.795   7.942   8.279
23003WAT     H169251   3.750   7.856   8.255
23003WAT     H269252   3.726   8.009   8.306
23004WAT      O69253   6.819   0.669   1.923
23004WAT     H169254   6.878   0.664   1.843
23004WAT     H269255   6.864   0.622   2.000
23005WAT      O69256   9.368   5.261   4.172
23005WAT     H169257   9.418   5.325   4.231
23005WAT     H269258   9.428   5.183   4.150
23006WAT      O69259   0.677   4.535   2.668
23006WAT     H169260   0.679   4.539   2.568
23006WAT     H269261   0.627   4.453   2.697
23007WAT      O69262   3.760   2.111   4.872
23007WAT     H169263   3.751   2.176   4.947
23007WAT     H269264   3.828   2.042   4.896
23008WAT      O69265   1.966   0.320   5.856
23008WAT     H169266   1.931   0.231   5.885
23008WAT     H269267   1.949   0.388   5.927
23009WAT      O69268   7.943   0.645   5.490
23009WAT     H169269   7.890   0.728   5.508
23009WAT     H269270   7.901   0.593   5.416
23010WAT      O69271   1.388   2.604   4.301
23010WAT     H169272   1.420   2.592   4.395
23010WAT     H269273   1.303   2.552   4.288
23011WAT      O69274   3.021   3.348   6.439
23011WAT     H169275   2.967   3.427   6.408
23011WAT     H269276   3.051   3.364   6.533
23012WAT      O69277   4.543   0.601   3.993
23012WAT     H169278   4.488   0.549   4.059
23012WAT     H269279   4.571   0.687   4.035
23013WAT      O69280   5.723   4.094   4.154
23013WAT     H169281   5.722   4.100   4.054
23013WAT     H269282   5.733   3.999   4.182
23014WAT      O69283   2.531   8.761   3.774
23014WAT     H169284   2.444   8.714   3.761
23014WAT     H269285   2.522   8.857   3.749
23015WAT      O69286   6.239   4.971   3.017
23015WAT     H169287   6.145   5.002   3.032
23015WAT     H269288   6.288   4.968   3.103
23016WAT      O69289   8.483   5.171   7.230
23016WAT     H169290   8.441   5.250   7.187
23016WAT     H269291   8.469   5.090   7.173
23017WAT      O69292   9.113   0.069   1.325
23017WAT     H169293   9.023   0.029   1.344
23017WAT     H269294   9.179   0.036   1.393
23018WAT      O69295   8.371   9.316   0.056
23018WAT     H169296   8.314   9.240   0.027
23018WAT     H269297   8.394   9.306   0.153
23019WAT      O69298   9.138   1.329   1.378
23019WAT     H169299   9.192   1.413   1.365
23019WAT     H269300   9.084   1.337   1.461
23020WAT      O69301   9.551   3.665   3.639
23020WAT     H169302   9.593   3.739   3.691
23020WAT     H269303   9.623   3.607   3.601
23021WAT      O69304   1.968   7.703   5.618
23021WAT     H169305   1.990   7.676   5.524
23021WAT     H269306   1.945   7.621   5.671
23022WAT      O69307   9.617   4.340   1.148
23022WAT     H169308   9.706   4.381   1.170
23022WAT     H269309   9.564   4.403   1.092
23023WAT      O69310   0.194   6.574   5.168
23023WAT     H169311   0.096   6.569   5.150
23023WAT     H269312   0.213   6.655   5.224
23024WAT      O69313   2.816   3.682   2.565
23024WAT     H169314   2.812   3.588   2.531
23024WAT     H269315   2.797   3.745   2.490
23025WAT      O69316   6.064   3.588   3.565
23025WAT     H169317   6.121   3.665   3.593
23025WAT     H269318   5.972   3.621   3.542
23026WAT      O69319   6.798   3.390   4.084
23026WAT     H169320   6.837   3.346   4.164
23026WAT     H269321   6.698   3.388   4.090
23027WAT      O69322   8.641   3.840   8.639
23027WAT     H169323   8.736   3.816   8.619
23027WAT     H269324   8.624   3.935   8.614
23028WAT      O69325   8.625   0.996   1.313
23028WAT     H169326   8.567   1.053   1.255
23028WAT     H269327   8.679   1.054   1.374
23029WAT      O69328   3.706   1.480   9.692
23029WAT     H169329   3.624   1.526   9.728
23029WAT     H269330   3.785   1.503   9.749
23030WAT      O69331   8.342   0.823   4.365
23030WAT     H169332   8.344   0.724   4.373
23030WAT     H269333   8.293   0.849   4.281
23031WAT      O69334   3.020   2.014   9.223
23031WAT     H169335   3.080   1.996   9.146
23031WAT     H269336   2.933   2.050   9.190
23032WAT      O69337   3.257   7.073   7.384
23032WAT     H169338   3.188   7.144   7.372
23032WAT     H269339   3.241   7.024   7.470
23033WAT      O69340   1.633   3.676   5.343
23033WAT     H169341   1.650   3.711   5.435
23033WAT     H269342   1.702   3.711   5.281
23034WAT      O69343   7.526   6.486   1.251
23034WAT     H169344   7.575   6.505   1.336
23034WAT     H269345   7.432   6.459   1.272
23035WAT      O69346   3.009   3.830   1.531
23035WAT     H169347   3.053   3.878   1.607
23035WAT     H269348   3.057   3.852   1.446
23036WAT      O69349   0.402   2.471   6.428
23036WAT     H169350   0.342   2.419   6.368
23036WAT     H269351   0.430   2.413   6.505
23037WAT      O69352   7.195   8.117   5.091
23037WAT     H169353   7.108   8.165   5.100
23037WAT     H269354   7.201   8.045   5.160
23038WAT      O69355   0.407   6.848   5.122
23038WAT     H169356   0.313   6.855   5.158
23038WAT     H269357   0.472   6.858   5.198
23039WAT      O69358   1.071   5.202   1.850
23039WAT     H169359   1.038   5.295   1.865
23039WAT     H269360   1.149   5.184   1.909
23040WAT      O69361   3.978   3.103   5.569
23040WAT     H169362   3.990   3.030   5.501
23040WAT     H269363   3.891   3.150   5.553
23041WAT      O69364   2.810   8.007   0.558
23041WAT     H169365   2.813   7.996   0.657
23041WAT     H269366   2.903   8.015   0.523
23042WAT      O69367   6.043   6.035   7.781
23042WAT     H169368   6.059   6.132   7.796
23042WAT     H269369   6.025   6.018   7.685
23043WAT      O69370   3.454   3.568   7.449
23043WAT     H169371   3.416   3.613   7.530
23043WAT     H269372   3.389   3.499   7.417
23044WAT      O69373   6.007   3.147   2.376
23044WAT     H169374   5.994   3.245   2.383
23044WAT     H269375   6.090   3.128   2.324
23045WAT      O69376   8.213   4.121   8.300
23045WAT     H169377   8.308   4.090   8.300
23045WAT     H269378   8.155   4.053   8.345
23046WAT      O69379   9.847   2.103   5.251
23046WAT     H169380   9.775   2.154   5.296
23046WAT     H269381   9.896   2.047   5.318
23047WAT      O69382   2.749   4.386   2.116
23047WAT     H169383   2.837   4.345   2.094
23047WAT     H269384   2.707   4.422   2.033
23048WAT      O69385   5.136   2.728   9.882
23048WAT     H169386   5.099   2.819   9.900
23048WAT     H269387   5.172   2.690   9.967
23049WAT      O69388   4.947   5.361   2.727
23049WAT     H169389   4.861   5.404   2.756
23049WAT     H269390   5.014   5.432   2.707
23050WAT      O69391   2.835   3.816   6.535
23050WAT     H169392   2.900   3.874   6.583
23050WAT     H269393   2.770   3.873   6.484
23051WAT      O69394   2.126   0.591   3.556
23051WAT     H169395   2.113   0.685   3.525
23051WAT     H269396   2.037   0.546   3.566
23052WAT      O69397   7.926   8.854   5.971
23052WAT     H169398   7.860   8.921   5.936
23052WAT     H269399   7.884   8.763   5.970
23053WAT      O69400   4.804   0.116   4.304
23053WAT     H169401   4.830   0.025   4.335
23053WAT     H269402   4.792   0.116   4.204
23054WAT      O69403   3.765   2.332   3.413
23054WAT     H169404   3.827   2.320   3.335
23054WAT     H269405   3.729   2.243   3.440
23055WAT      O69406   9.121   6.102   3.982
23055WAT     H169407   9.078   6.054   3.906
23055WAT     H269408   9.058   6.170   4.019
23056WAT      O69409   8.827   0.203   2.362
23056WAT     H169410   8.895   0.273   2.340
23056WAT     H269411   8.872   0.113   2.364
23057WAT      O69412   1.826   0.452   8.233
23057WAT     H169413   1.760   0.508   8.184
23057WAT     H269414   1.918   0.475   8.204
23058WAT      O69415   8.172   6.732   1.275
23058WAT     H169416   8.120   6.699   1.353
23058WAT     H269417   8.127   6.704   1.190
23059WAT      O69418   0.447   0.098   5.622
23059WAT     H169419   0.494   0.011   5.630
23059WAT     H269420   0.426   0.117   5.526
23060WAT      O69421   8.431   5.287   4.767
23060WAT     H169422   8.445   5.358   4.698
23060WAT     H269423   8.515   5.274   4.819
23061WAT      O69424   8.070   0.733   9.884
23061WAT     H169425   8.057   0.687   9.972
23061WAT     H269426   7.996   0.798   9.868
23062WAT      O69427   7.104   8.436   3.852
23062WAT     H169428   7.155   8.380   3.786
23062WAT     H269429   7.164   8.461   3.928
23063WAT      O69430   8.667   9.436   6.262
23063WAT     H169431   8.725   9.517   6.246
23063WAT     H269432   8.635   9.437   6.357
23064WAT      O69433   4.452   3.124   9.011
23064WAT     H169434   4.510   3.057   9.057
23064WAT     H269435   4.479   3.216   9.039
23065WAT      O69436   6.235   6.530   7.818
23065WAT     H169437   6.172   6.605   7.839
23065WAT     H269438   6.222   6.501   7.724
23066WAT      O69439   6.792   8.162   2.193
23066WAT     H169440   6.718   8.107   2.231
23066WAT     H269441   6.754   8.244   2.150
23067WAT      O69442   9.215   0.678   2.815
23067WAT     H169443   9.281   0.737   2.769
23067WAT     H269444   9.262   0.622   2.883
23068WAT      O69445   3.518   6.969   3.073
23068WAT     H169446   3.598   6.911   3.061
23068WAT     H269447   3.547   7.065   3.080
23069WAT      O69448   5.895   3.997   2.700
23069WAT     H169449   5.874   4.092   2.679
23069WAT     H269450   5.849   3.970   2.784
23070WAT      O69451   8.363   1.752   1.476
23070WAT     H169452   8.316   1.712   1.397
23070WAT     H269453   8.460   1.764   1.454
23071WAT      O69454   2.342   2.286   3.966
23071WAT     H169455   2.280   2.360   3.942
23071WAT     H269456   2.406   2.270   3.891
23072WAT      O69457   1.092   7.165   5.913
23072WAT     H169458   1.161   7.238   5.916
23072WAT     H269459   1.110   7.106   5.835
23073WAT      O69460   2.165   5.053   8.207
23073WAT     H169461   2.255   5.047   8.250
23073WAT     H269462   2.112   4.972   8.231
23074WAT      O69463   8.195   4.684   6.914
23074WAT     H169464   8.261   4.656   6.984
23074WAT     H269465   8.205   4.782   6.897
23075WAT      O69466   3.115   4.307   7.299
23075WAT     H169467   3.208   4.320   7.267
23075WAT     H269468   3.099   4.363   7.380
23076WAT      O69469   2.088   8.068   5.182
23076WAT     H169470   2.137   8.019   5.254
23076WAT     H269471   2.138   8.057   5.096
23077WAT      O69472   8.695   6.390   5.717
23077WAT     H169473   8.730   6.351   5.632
23077WAT     H269474   8.656   6.318   5.774
23078WAT      O69475   4.247   9.394   5.019
23078WAT     H169476   4.344   9.381   5.038
23078WAT     H269477   4.236   9.455   4.940
23079WAT      O69478   2.162   8.521   8.107
23079WAT     H169479   2.091   8.501   8.040
23079WAT     H269480   2.236   8.573   8.064
23080WAT      O69481   3.244   7.225   5.847
23080WAT     H169482   3.201   7.177   5.923
23080WAT     H269483   3.344   7.220   5.856
23081WAT      O69484   0.831   4.520   9.004
23081WAT     H169485   0.875   4.599   9.047
23081WAT     H269486   0.900   4.466   8.955
23082WAT      O69487   9.502   8.226   0.342
23082WAT     H169488   9.483   8.186   0.431
23082WAT     H269489   9.461   8.169   0.271
23083WAT      O69490   3.154   4.901   2.044
23083WAT     H169491   3.186   4.991   2.075
23083WAT     H269492   3.062   4.885   2.081
23084WAT      O69493   6.032   7.799   4.722
23084WAT     H169494   6.049   7.789   4.820
23084WAT     H269495   5.939   7.835   4.709
23085WAT      O69496   3.812   0.735   1.846
23085WAT     H169497   3.907   0.766   1.835
23085WAT     H269498   3.808   0.663   1.914
23086WAT      O69499   3.833   9.613   8.822
23086WAT     H169500   3.808   9.557   8.901
23086WAT     H269501   3.787   9.702   8.828
23087WAT      O69502   4.048   4.589   4.487
23087WAT     H169503   3.984   4.666   4.498
23087WAT     H269504   4.019   4.533   4.410
23088WAT      O69505   0.343   9.455   8.265
23088WAT     H169506   0.372   9.408   8.349
23088WAT     H269507   0.403   9.533   8.248
23089WAT      O69508   8.180   1.236   8.236
23089WAT     H169509   8.087   1.221   8.202
23089WAT     H269510   8.204   1.163   8.300
23090WAT      O69511   2.256   2.255   4.745
23090WAT     H169512   2.349   2.220   4.730
23090WAT     H269513   2.239   2.331   4.682
23091WAT      O69514   2.263   0.899   0.698
23091WAT     H169515   2.210   0.910   0.614
23091WAT     H269516   2.332   0.971   0.704
23092WAT      O69517   7.892   3.169   6.534
23092WAT     H169518   7.904   3.097   6.466
23092WAT     H269519   7.945   3.147   6.616
23093WAT      O69520   3.723   4.228   7.441
23093WAT     H169521   3.686   4.316   7.413
23093WAT     H269522   3.723   4.165   7.363
23094WAT      O69523   0.284   6.764   6.992
23094WAT     H169524   0.221   6.688   7.013
23094WAT     H269525   0.232   6.839   6.952
23095WAT      O69526   6.585   7.828   2.800
23095WAT     H169527   6.672   7.794   2.763
23095WAT     H269528   6.544   7.759   2.858
23096WAT      O69529   6.288   7.771   0.121
23096WAT     H169530   6.223   7.712   0.073
23096WAT     H269531   6.337   7.827   0.055
23097WAT      O69532   6.798   0.101   5.692
23097WAT     H169533   6.833   0.122   5.601
23097WAT     H269534   6.874   0.082   5.754
23098WAT      O69535   2.010   4.135   9.360
23098WAT     H169536   1.976   4.173   9.446
23098WAT     H269537   2.098   4.090   9.376
23099WAT      O69538   9.080   3.795   7.453
23099WAT     H169539   9.087   3.763   7.359
23099WAT     H269540   9.026   3.879   7.457
23100WAT      O69541   3.187   3.346   6.096
23100WAT     H169542   3.173   3.440   6.128
23100WAT     H269543   3.199   3.347   5.996
23101WAT      O69544   5.430   2.432   4.709
23101WAT     H169545   5.516   2.384   4.691
23101WAT     H269546   5.377   2.381   4.777
23102WAT      O69547   7.984   4.225   0.486
23102WAT     H169548   7.906   4.185   0.439
23102WAT     H269549   8.069   4.196   0.441
23103WAT      O69550   5.145   1.906   7.036
23103WAT     H169551   5.051   1.937   7.018
23103WAT     H269552   5.197   1.906   6.950
23104WAT      O69553   0.919   0.246   5.459
23104WAT     H169554   0.993   0.312   5.469
23104WAT     H269555   0.832   0.294   5.448
23105WAT      O69556   7.197   9.567   3.957
23105WAT     H169557   7.184   9.490   3.893
23105WAT     H269558   7.214   9.650   3.905
23106WAT      O69559   5.696   0.544   3.236
23106WAT     H169560   5.695   0.508   3.143
23106WAT     H269561   5.653   0.478   3.298
23107WAT      O69562   7.348   4.334   8.620
23107WAT     H169563   7.445   4.352   8.604
23107WAT     H269564   7.307   4.412   8.666
23108WAT      O69565   8.442   2.557   9.630
23108WAT     H169566   8.375   2.606   9.685
23108WAT     H269567   8.425   2.459   9.635
23109WAT      O69568   8.266   6.849   0.724
23109WAT     H169569   8.262   6.898   0.637
23109WAT     H269570   8.222   6.903   0.795
23110WAT      O69571   0.650   1.292   7.321
23110WAT     H169572   0.627   1.198   7.296
23110WAT     H269573   0.580   1.354   7.286
23111WAT      O69574   4.571   0.177   2.411
23111WAT     H169575   4.565   0.269   2.451
23111WAT     H269576   4.633   0.121   2.466
23112WAT      O69577   7.636   6.794   1.194
23112WAT     H169578   7.615   6.776   1.097
23112WAT     H269579   7.556   6.772   1.250
23113WAT      O69580   7.757   6.228   4.196
23113WAT     H169581   7.732   6.252   4.290
23113WAT     H269582   7.782   6.311   4.147
23114WAT      O69583   7.395   1.144   4.380
23114WAT     H169584   7.366   1.068   4.438
23114WAT     H269585   7.470   1.193   4.425
23115WAT      O69586   8.188   7.822   0.157
23115WAT     H169587   8.215   7.918   0.164
23115WAT     H269588   8.137   7.796   0.239
23116WAT      O69589   4.689   1.295   1.649
23116WAT     H169590   4.676   1.327   1.555
23116WAT     H269591   4.707   1.196   1.648
23117WAT      O69592   7.250   0.319   8.125
23117WAT     H169593   7.271   0.337   8.222
23117WAT     H269594   7.268   0.402   8.072
23118WAT      O69595   9.387   1.520   3.443
23118WAT     H169596   9.444   1.598   3.416
23118WAT     H269597   9.446   1.444   3.471
23119WAT      O69598   3.264   0.496   7.034
23119WAT     H169599   3.181   0.548   7.054
23119WAT     H269600   3.298   0.453   7.118
23120WAT      O69601   2.385   5.045   1.108
23120WAT     H169602   2.398   5.142   1.127
23120WAT     H269603   2.473   5.005   1.081
23121WAT      O69604   4.779   1.344   5.778
23121WAT     H169605   4.867   1.323   5.821
23121WAT     H269606   4.706   1.297   5.827
23122WAT      O69607   7.357   9.186   6.474
23122WAT     H169608   7.366   9.117   6.546
23122WAT     H269609   7.427   9.257   6.486
23123WAT      O69610   8.400   3.814   1.558
23123WAT     H169611   8.461   3.882   1.600
23123WAT     H269612   8.412   3.816   1.458
23124WAT      O69613   3.663   6.286   3.386
23124WAT     H169614   3.655   6.214   3.455
23124WAT     H269615   3.629   6.252   3.298
23125WAT      O69616   7.044   3.425   2.905
23125WAT     H169617   6.969   3.457   2.962
23125WAT     H269618   7.117   3.494   2.905
23126WAT      O69619   4.716   0.514   5.595
23126WAT     H169620   4.801   0.564   5.580
23126WAT     H269621   4.648   0.544   5.528
23127WAT      O69622   5.381   1.526   6.471
23127WAT     H169623   5.458   1.516   6.408
23127WAT     H269624   5.414   1.530   6.565
23128WAT      O69625   5.815   1.559   8.483
23128WAT     H169626   5.798   1.466   8.452
23128WAT     H269627   5.771   1.573   8.572
23129WAT      O69628   8.994   3.056   5.220
23129WAT     H169629   8.995   3.085   5.124
23129WAT     H269630   8.966   3.132   5.278
23130WAT      O69631   2.657   0.142   4.185
23130WAT     H169632   2.700   0.231   4.199
23130WAT     H269633   2.627   0.106   4.274
23131WAT      O69634   8.504   1.282   4.401
23131WAT     H169635   8.489   1.280   4.500
23131WAT     H269636   8.419   1.260   4.354
23132WAT      O69637   0.944   6.209   5.757
23132WAT     H169638   0.854   6.251   5.749
23132WAT     H269639   0.978   6.218   5.850
23133WAT      O69640   6.058   8.396   0.901
23133WAT     H169641   6.035   8.342   0.982
23133WAT     H269642   6.136   8.354   0.854
23134WAT      O69643   0.818   0.593   8.809
23134WAT     H169644   0.811   0.633   8.900
23134WAT     H269645   0.823   0.494   8.815
23135WAT      O69646   1.066   4.676   9.839
23135WAT     H169647   0.979   4.633   9.865
23135WAT     H269648   1.119   4.613   9.783
23136WAT      O69649   7.427   5.254   8.833
23136WAT     H169650   7.337   5.226   8.866
23136WAT     H269651   7.416   5.309   8.750
23137WAT      O69652   0.044   0.095   0.238
23137WAT     H169653   0.143   0.095   0.226
23137WAT     H269654   0.022   0.101   0.335
23138WAT      O69655   2.228   9.432   0.193
23138WAT     H169656   2.213   9.340   0.229
23138WAT     H269657   2.143   9.484   0.195
23139WAT      O69658   5.332   8.347   2.447
23139WAT     H169659   5.369   8.357   2.355
23139WAT     H269660   5.306   8.437   2.483
23140WAT      O69661   6.943   3.066   6.931
23140WAT     H169662   6.976   3.155   6.900
23140WAT     H269663   6.924   3.008   6.852
23141WAT      O69664   5.778   3.709   5.202
23141WAT     H169665   5.865   3.752   5.229
23141WAT     H269666   5.703   3.751   5.254
23142WAT      O69667   0.013   5.639   2.991
23142WAT     H169668  -0.052   5.707   3.025
23142WAT     H269669   0.014   5.560   3.053
23143WAT      O69670   7.019   7.308   2.641
23143WAT     H169671   6.986   7.325   2.548
23143WAT     H269672   7.015   7.209   2.659
23144WAT      O69673   4.898   8.763   1.267
23144WAT     H169674   4.811   8.805   1.241
23144WAT     H269675   4.910   8.770   1.366
23145WAT      O69676   9.885   6.957   4.406
23145WAT     H169677   9.890   6.987   4.311
23145WAT     H269678   9.863   6.859   4.408
23146WAT      O69679   1.668   0.609   3.684
23146WAT     H169680   1.664   0.629   3.586
23146WAT     H269681   1.607   0.533   3.706
23147WAT      O69682   0.666   6.091   0.733
23147WAT     H169683   0.762   6.116   0.723
23147WAT     H269684   0.622   6.091   0.643
23148WAT      O69685   3.926   7.536   9.478
23148WAT     H169686   3.990   7.459   9.480
23148WAT     H269687   3.907   7.560   9.383
23149WAT      O69688   8.112   9.795   0.733
23149WAT     H169689   8.149   9.827   0.821
23149WAT     H269690   8.168   9.721   0.698
23150WAT      O69691   5.742   6.032   1.654
23150WAT     H169692   5.703   6.111   1.607
23150WAT     H269693   5.684   5.952   1.638
23151WAT      O69694   3.063   2.013   7.262
23151WAT     H169695   2.966   1.988   7.265
23151WAT     H269696   3.084   2.071   7.341
23152WAT      O69697   4.911   6.249   8.328
23152WAT     H169698   4.852   6.234   8.407
23152WAT     H269699   4.891   6.339   8.288
23153WAT      O69700   3.428   6.512   1.931
23153WAT     H169701   3.374   6.548   2.007
23153WAT     H269702   3.367   6.466   1.866
23154WAT      O69703   7.960   5.064   9.652
23154WAT     H169704   7.932   5.151   9.612
23154WAT     H269705   7.893   4.994   9.629
23155WAT      O69706   9.750   8.180   3.663
23155WAT     H169707   9.742   8.092   3.617
23155WAT     H269708   9.818   8.237   3.616
23156WAT      O69709   8.006   2.560   0.895
23156WAT     H169710   7.986   2.649   0.855
23156WAT     H269711   7.921   2.518   0.927
23157WAT      O69712   1.226   6.105   1.799
23157WAT     H169713   1.127   6.120   1.812
23157WAT     H269714   1.265   6.185   1.753
23158WAT      O69715   9.542   5.949   2.681
23158WAT     H169716   9.642   5.953   2.684
23158WAT     H269717   9.508   6.010   2.610
23159WAT      O69718   0.555   5.327   7.103
23159WAT     H169719   0.486   5.289   7.165
23159WAT     H269720   0.596   5.253   7.050
23160WAT      O69721   1.229   3.962   5.275
23160WAT     H169722   1.329   3.960   5.282
23160WAT     H269723   1.191   3.893   5.335
23161WAT      O69724   2.270   8.975   9.539
23161WAT     H169725   2.240   9.070   9.531
23161WAT     H269726   2.354   8.961   9.487
23162WAT      O69727   9.636   3.241   9.647
23162WAT     H169728   9.546   3.250   9.690
23162WAT     H269729   9.647   3.148   9.612
23163WAT      O69730   5.156   6.468   7.629
23163WAT     H169731   5.091   6.469   7.553
23163WAT     H269732   5.178   6.373   7.652
23164WAT      O69733   5.968   4.615   6.533
23164WAT     H169734   6.026   4.618   6.451
23164WAT     H269735   5.887   4.673   6.519
23165WAT      O69736   5.985   1.330   3.486
23165WAT     H169737   5.910   1.395   3.504
23165WAT     H269738   6.073   1.376   3.498
23166WAT      O69739   0.507   5.756   5.147
23166WAT     H169740   0.544   5.664   5.158
23166WAT     H269741   0.486   5.772   5.050
23167WAT      O69742   7.643   2.715   0.321
23167WAT     H169743   7.737   2.699   0.352
23167WAT     H269744   7.645   2.763   0.233
23168WAT      O69745   6.177   4.666   3.255
23168WAT     H169746   6.152   4.759   3.280
23168WAT     H269747   6.233   4.668   3.171
23169WAT      O69748   6.320   8.887   2.965
23169WAT     H169749   6.363   8.969   2.928
23169WAT     H269750   6.388   8.815   2.976
23170WAT      O69751   1.856   9.363   2.631
23170WAT     H169752   1.831   9.376   2.536
23170WAT     H269753   1.866   9.265   2.650
23171WAT      O69754   1.379   3.225   0.509
23171WAT     H169755   1.356   3.322   0.505
23171WAT     H269756   1.466   3.213   0.557
23172WAT      O69757   0.600   4.051   8.514
23172WAT     H169758   0.603   4.150   8.523
23172WAT     H269759   0.670   4.010   8.572
23173WAT      O69760   9.466   8.372   8.611
23173WAT     H169761   9.434   8.398   8.519
23173WAT     H269762   9.484   8.274   8.614
23174WAT      O69763   9.343   6.883   5.195
23174WAT     H169764   9.360   6.955   5.129
23174WAT     H269765   9.416   6.815   5.190
23175WAT      O69766   7.952   3.485   3.611
23175WAT     H169767   7.987   3.404   3.564
23175WAT     H269768   7.853   3.477   3.622
23176WAT      O69769   6.074   0.255   1.570
23176WAT     H169770   6.008   0.196   1.524
23176WAT     H269771   6.164   0.244   1.528
23177WAT      O69772   7.750   2.878   8.324
23177WAT     H169773   7.716   2.827   8.245
23177WAT     H269774   7.832   2.833   8.360
23178WAT      O69775   8.252   6.556   9.650
23178WAT     H169776   8.296   6.490   9.589
23178WAT     H269777   8.301   6.644   9.643
23179WAT      O69778   8.466   6.942   4.491
23179WAT     H169779   8.404   7.013   4.460
23179WAT     H269780   8.538   6.928   4.423
23180WAT      O69781   5.392   0.822   7.113
23180WAT     H169782   5.308   0.848   7.160
23180WAT     H269783   5.470   0.870   7.154
23181WAT      O69784   6.012   0.088   4.061
23181WAT     H169785   5.937   0.049   4.114
23181WAT     H269786   6.094   0.033   4.074
23182WAT      O69787   9.067   1.497   4.839
23182WAT     H169788   8.970   1.478   4.855
23182WAT     H269789   9.076   1.579   4.783
23183WAT      O69790   0.601   0.585   5.979
23183WAT     H169791   0.654   0.520   6.033
23183WAT     H269792   0.516   0.608   6.028
23184WAT      O69793   9.658   1.252   5.386
23184WAT     H169794   9.710   1.294   5.313
23184WAT     H269795   9.630   1.160   5.358
23185WAT      O69796   5.249   3.030   4.141
23185WAT     H169797   5.236   3.129   4.127
23185WAT     H269798   5.299   2.992   4.063
23186WAT      O69799   9.832   9.230   7.227
23186WAT     H169800   9.916   9.285   7.230
23186WAT     H269801   9.790   9.229   7.318
23187WAT      O69802   7.851   5.229   0.693
23187WAT     H169803   7.909   5.234   0.774
23187WAT     H269804   7.793   5.148   0.699
23188WAT      O69805   3.805   6.412   5.860
23188WAT     H169806   3.804   6.465   5.944
23188WAT     H269807   3.815   6.315   5.882
23189WAT      O69808   6.687   2.249   6.986
23189WAT     H169809   6.684   2.348   6.994
23189WAT     H269810   6.649   2.221   6.898
23190WAT      O69811   8.830   6.564   1.872
23190WAT     H169812   8.768   6.562   1.951
23190WAT     H269813   8.906   6.501   1.888
23191WAT      O69814   8.233   0.562   7.266
23191WAT     H169815   8.184   0.637   7.221
23191WAT     H269816   8.168   0.507   7.318
23192WAT      O69817   2.634   3.201   1.490
23192WAT     H169818   2.564   3.266   1.517
23192WAT     H269819   2.723   3.231   1.526
23193WAT      O69820   2.280   9.283   0.803
23193WAT     H169821   2.361   9.335   0.778
23193WAT     H269822   2.303   9.218   0.876
23194WAT      O69823   6.632   9.297   0.641
23194WAT     H169824   6.588   9.360   0.705
23194WAT     H269825   6.639   9.340   0.551
23195WAT      O69826   8.705   4.284   5.706
23195WAT     H169827   8.721   4.251   5.612
23195WAT     H269828   8.732   4.379   5.713
23196WAT      O69829   6.333   9.643   9.874
23196WAT     H169830   6.305   9.606   9.785
23196WAT     H269831   6.315   9.575   9.945
23197WAT      O69832   4.720   4.511   8.660
23197WAT     H169833   4.813   4.523   8.626
23197WAT     H269834   4.659   4.572   8.611
23198WAT      O69835   9.683   6.634   2.120
23198WAT     H169836   9.649   6.692   2.046
23198WAT     H269837   9.612   6.623   2.189
23199WAT      O69838   3.109   9.724   7.636
23199WAT     H169839   3.092   9.659   7.561
23199WAT     H269840   3.082   9.682   7.723
23200WAT      O69841   3.759   1.900   3.189
23200WAT     H169842   3.766   1.944   3.100
23200WAT     H269843   3.804   1.811   3.186
23201WAT      O69844   9.214   6.424   6.705
23201WAT     H169845   9.160   6.498   6.665
23201WAT     H269846   9.305   6.458   6.729
23202WAT      O69847   5.720   8.397   4.570
23202WAT     H169848   5.802   8.350   4.537
23202WAT     H269849   5.680   8.346   4.646
23203WAT      O69850   1.812   6.226   2.088
23203WAT     H169851   1.832   6.305   2.029
23203WAT     H269852   1.884   6.218   2.157
23204WAT      O69853   2.801   2.551   9.564
23204WAT     H169854   2.787   2.453   9.546
23204WAT     H269855   2.769   2.573   9.656
23205WAT      O69856   2.243   9.400   3.385
23205WAT     H169857   2.255   9.308   3.421
23205WAT     H269858   2.149   9.411   3.353
23206WAT      O69859   1.717   5.091   4.273
23206WAT     H169860   1.684   5.048   4.358
23206WAT     H269861   1.817   5.090   4.273
23207WAT      O69862   4.884   4.477   0.478
23207WAT     H169863   4.966   4.525   0.510
23207WAT     H269864   4.806   4.539   0.480
23208WAT      O69865   4.500   7.817   0.854
23208WAT     H169866   4.542   7.762   0.782
23208WAT     H269867   4.563   7.827   0.930
23209WAT      O69868   6.573   1.045   4.177
23209WAT     H169869   6.568   1.140   4.208
23209WAT     H269870   6.634   1.039   4.098
23210WAT      O69871   2.291   6.826   6.700
23210WAT     H169872   2.273   6.896   6.631
23210WAT     H269873   2.302   6.870   6.790
23211WAT      O69874   3.990   6.519   2.986
23211WAT     H169875   3.900   6.554   3.015
23211WAT     H269876   4.000   6.424   3.015
23212WAT      O69877   4.836   0.651   4.273
23212WAT     H169878   4.856   0.640   4.176
23212WAT     H269879   4.756   0.711   4.284
23213WAT      O69880   5.896   5.685   5.272
23213WAT     H169881   5.821   5.709   5.211
23213WAT     H269882   5.977   5.664   5.218
23214WAT      O69883   9.711   4.282   7.860
23214WAT     H169884   9.744   4.196   7.899
23214WAT     H269885   9.686   4.267   7.764
23215WAT      O69886   4.026   4.322   2.008
23215WAT     H169887   4.075   4.250   2.058
23215WAT     H269888   4.091   4.394   1.982
23216WAT      O69889   5.005   2.960   4.249
23216WAT     H169890   4.963   3.027   4.188
23216WAT     H269891   5.104   2.957   4.233
23217WAT      O69892   9.539   0.895   8.520
23217WAT     H169893   9.459   0.951   8.500
23217WAT     H269894   9.562   0.902   8.617
23218WAT      O69895   5.793   3.368   3.161
23218WAT     H169896   5.841   3.407   3.083
23218WAT     H269897   5.699   3.402   3.163
23219WAT      O69898   3.977   5.176   6.176
23219WAT     H169899   3.913   5.205   6.247
23219WAT     H269900   4.064   5.224   6.187
23220WAT      O69901   6.893   4.925   5.196
23220WAT     H169902   6.829   4.958   5.266
23220WAT     H269903   6.986   4.933   5.231
23221WAT      O69904   7.217   5.421   1.636
23221WAT     H169905   7.131   5.449   1.595
23221WAT     H269906   7.227   5.322   1.627
23222WAT      O69907   8.722   9.550   7.729
23222WAT     H169908   8.656   9.613   7.688
23222WAT     H269909   8.740   9.577   7.823
23223WAT      O69910   5.610   6.498   6.475
23223WAT     H169911   5.688   6.469   6.531
23223WAT     H269912   5.550   6.556   6.530
23224WAT      O69913   5.213   8.702   6.886
23224WAT     H169914   5.131   8.684   6.832
23224WAT     H269915   5.294   8.677   6.833
23225WAT      O69916   4.045   2.956   6.437
23225WAT     H169917   4.050   2.861   6.468
23225WAT     H269918   4.071   2.960   6.340
23226WAT      O69919   0.942   1.389   0.309
23226WAT     H169920   0.855   1.349   0.282
23226WAT     H269921   0.972   1.456   0.241
23227WAT      O69922   7.268   7.560   7.662
23227WAT     H169923   7.310   7.630   7.719
23227WAT     H269924   7.257   7.476   7.716
23228WAT      O69925   7.432   2.130   7.222
23228WAT     H169926   7.435   2.038   7.183
23228WAT     H269927   7.352   2.179   7.187
23229WAT      O69928   7.935   7.585   3.393
23229WAT     H169929   7.850   7.616   3.435
23229WAT     H269930   7.938   7.485   3.392
23230WAT      O69931   9.415   8.169   6.889
23230WAT     H169932   9.420   8.191   6.987
23230WAT     H269933   9.410   8.254   6.837
23231WAT      O69934   4.514   8.182   2.994
23231WAT     H169935   4.456   8.234   3.058
23231WAT     H269936   4.608   8.215   3.002
23232WAT      O69937   1.656   3.425   0.898
23232WAT     H169938   1.585   3.476   0.849
23232WAT     H269939   1.742   3.476   0.895
23233WAT      O69940   1.103   3.667   8.293
23233WAT     H169941   1.136   3.733   8.360
23233WAT     H269942   1.055   3.593   8.341
23234WAT      O69943   6.214   7.118   9.561
23234WAT     H169944   6.127   7.084   9.524
23234WAT     H269945   6.228   7.213   9.533
23235WAT      O69946   2.492   7.917   2.643
23235WAT     H169947   2.528   7.932   2.551
23235WAT     H269948   2.493   8.003   2.693
23236WAT      O69949   8.981   7.201   1.593
23236WAT     H169950   8.936   7.285   1.622
23236WAT     H269951   9.013   7.211   1.498
23237WAT      O69952   0.724   6.619   6.502
23237WAT     H169953   0.772   6.575   6.577
23237WAT     H269954   0.746   6.717   6.500
23238WAT      O69955   9.854   5.698   1.875
23238WAT     H169956   9.769   5.704   1.823
23238WAT     H269957   9.834   5.667   1.968
23239WAT      O69958   5.723   0.303   1.857
23239WAT     H169959   5.811   0.327   1.816
23239WAT     H269960   5.721   0.205   1.876
23240WAT      O69961   6.244   4.307   3.890
23240WAT     H169962   6.276   4.402   3.893
23240WAT     H269963   6.286   4.261   3.812
23241WAT      O69964   8.138   1.987   6.779
23241WAT     H169965   8.200   1.968   6.855
23241WAT     H269966   8.096   2.077   6.793
23242WAT      O69967   5.758   4.217   2.405
23242WAT     H169968   5.708   4.131   2.416
23242WAT     H269969   5.830   4.222   2.475
23243WAT      O69970   3.891   5.785   2.744
23243WAT     H169971   3.892   5.704   2.802
23243WAT     H269972   3.807   5.786   2.689
23244WAT      O69973   8.585   7.429   6.003
23244WAT     H169974   8.584   7.376   5.918
23244WAT     H269975   8.665   7.403   6.058
23245WAT      O69976   4.607   8.534   5.330
23245WAT     H169977   4.578   8.595   5.255
23245WAT     H269978   4.638   8.447   5.292
23246WAT      O69979   3.858   5.962   0.099
23246WAT     H169980   3.918   5.883   0.089
23246WAT     H269981   3.897   6.039   0.048
23247WAT      O69982   4.416   1.942   0.070
23247WAT     H169983   4.325   1.901   0.072
23247WAT     H269984   4.484   1.872   0.046
23248WAT      O69985   0.588   0.440   4.305
23248WAT     H169986   0.515   0.426   4.372
23248WAT     H269987   0.598   0.357   4.249
23249WAT      O69988   8.758   6.691   7.665
23249WAT     H169989   8.693   6.617   7.649
23249WAT     H269990   8.836   6.655   7.716
23250WAT      O69991   1.972   0.681   4.803
23250WAT     H169992   1.945   0.750   4.736
23250WAT     H269993   2.072   0.675   4.807
23251WAT      O69994   4.571   8.737   6.145
23251WAT     H169995   4.589   8.699   6.054
23251WAT     H269996   4.655   8.732   6.199
23252WAT      O69997   4.487   2.949   7.332
23252WAT     H169998   4.450   2.921   7.244
23252WAT     H269999   4.412   2.970   7.395
23253WAT      O70000   3.008   3.871   0.139
23253WAT     H170001   3.066   3.820   0.201
23253WAT     H270002   2.912   3.853   0.161
23254WAT      O70003   6.428   8.058   7.546
23254WAT     H170004   6.427   8.131   7.614
23254WAT     H270005   6.498   7.990   7.570
23255WAT      O70006   8.594   3.221   9.749
23255WAT     H170007   8.639   3.192   9.833
23255WAT     H270008   8.529   3.150   9.720
23256WAT      O70009   3.649   6.248   9.772
23256WAT     H170010   3.595   6.331   9.762
23256WAT     H270011   3.678   6.239   9.867
23257WAT      O70012   0.534   2.570   9.311
23257WAT     H170013   0.565   2.626   9.234
23257WAT     H270014   0.481   2.626   9.375
23258WAT      O70015   1.696   7.366   7.560
23258WAT     H170016   1.755   7.287   7.547
23258WAT     H270017   1.623   7.364   7.491
23259WAT      O70018   4.905   7.282   7.137
23259WAT     H170019   4.885   7.199   7.085
23259WAT     H270020   4.995   7.275   7.179
23260WAT      O70021   5.707   4.033   9.778
23260WAT     H170022   5.612   4.043   9.809
23260WAT     H270023   5.709   4.023   9.678
23261WAT      O70024   2.566   0.619   5.906
23261WAT     H170025   2.481   0.586   5.865
23261WAT     H270026   2.580   0.715   5.880
23262WAT      O70027   5.516   0.954   3.972
23262WAT     H170028   5.434   1.011   3.982
23262WAT     H270029   5.532   0.937   3.875
23263WAT      O70030   6.526   3.787   2.601
23263WAT     H170031   6.427   3.776   2.612
23263WAT     H270032   6.568   3.792   2.692
23264WAT      O70033   0.711   3.921   2.037
23264WAT     H170034   0.676   3.839   1.992
23264WAT     H270035   0.742   3.986   1.968
23265WAT      O70036   1.695   0.880   1.236
23265WAT     H170037   1.689   0.789   1.276
23265WAT     H270038   1.623   0.938   1.275
23266WAT      O70039   3.483   7.441   2.381
23266WAT     H170040   3.526   7.357   2.349
23266WAT     H270041   3.539   7.482   2.453
23267WAT      O70042   3.718   7.561   3.765
23267WAT     H170043   3.723   7.467   3.799
23267WAT     H270044   3.625   7.596   3.778
23268WAT      O70045   0.989   3.011   6.116
23268WAT     H170046   0.918   3.068   6.157
23268WAT     H270047   1.021   3.054   6.032
23269WAT      O70048   1.247   3.157   7.821
23269WAT     H170049   1.252   3.239   7.878
23269WAT     H270050   1.152   3.129   7.812
23270WAT      O70051   2.776   1.735   3.882
23270WAT     H170052   2.731   1.797   3.817
23270WAT     H270053   2.817   1.790   3.955
23271WAT      O70054   3.487   4.370   9.700
23271WAT     H170055   3.528   4.333   9.783
23271WAT     H270056   3.557   4.378   9.629
23272WAT      O70057   0.403   9.214   2.364
23272WAT     H170058   0.478   9.214   2.431
23272WAT     H270059   0.331   9.276   2.396
23273WAT      O70060   1.339   0.234   8.225
23273WAT     H170061   1.258   0.197   8.271
23273WAT     H270062   1.414   0.169   8.234
23274WAT      O70063   8.757   6.742   6.362
23274WAT     H170064   8.666   6.705   6.380
23274WAT     H270065   8.808   6.748   6.447
23275WAT      O70066   9.645   3.585   0.478
23275WAT     H170067   9.575   3.573   0.549
23275WAT     H270068   9.611   3.548   0.391
23276WAT      O70069   0.400   9.091   7.727
23276WAT     H170070   0.319   9.051   7.771
23276WAT     H270071   0.427   9.033   7.650
23277WAT      O70072   9.491   7.631   4.823
23277WAT     H170073   9.569   7.693   4.814
23277WAT     H270074   9.451   7.615   4.733
23278WAT      O70075   6.862   9.328   5.808
23278WAT     H170076   6.802   9.256   5.773
23278WAT     H270077   6.848   9.412   5.757
23279WAT      O70078   9.835   6.310   6.710
23279WAT     H170079   9.772   6.259   6.652
23279WAT     H270080   9.925   6.267   6.708
23280WAT      O70081   1.413   1.471   9.387
23280WAT     H170082   1.460   1.558   9.370
23280WAT     H270083   1.371   1.439   9.302
23281WAT      O70084   3.002   6.639   4.900
23281WAT     H170085   2.972   6.733   4.917
23281WAT     H270086   3.065   6.611   4.972
23282WAT      O70087   4.550   3.839   5.983
23282WAT     H170088   4.526   3.936   5.982
23282WAT     H270089   4.508   3.794   6.061
23283WAT      O70090   2.709   3.421   4.871
23283WAT     H170091   2.736   3.496   4.811
23283WAT     H270092   2.783   3.401   4.935
23284WAT      O70093   4.187   2.740   9.012
23284WAT     H170094   4.255   2.786   8.955
23284WAT     H270095   4.109   2.801   9.026
23285WAT      O70096   3.220   3.726   0.315
23285WAT     H170097   3.270   3.665   0.253
23285WAT     H270098   3.165   3.672   0.379
23286WAT      O70099   5.000   3.413   1.225
23286WAT     H170100   4.957   3.344   1.167
23286WAT     H270101   4.938   3.437   1.300
23287WAT      O70102   4.295   0.309   0.634
23287WAT     H170103   4.362   0.348   0.571
23287WAT     H270104   4.226   0.259   0.582
23288WAT      O70105   0.952   5.379   4.721
23288WAT     H170106   0.939   5.437   4.801
23288WAT     H270107   0.944   5.283   4.747
23289WAT      O70108   5.455   5.512   3.717
23289WAT     H170109   5.417   5.420   3.726
23289WAT     H270110   5.397   5.567   3.658
23290WAT      O70111   0.976   6.317   0.370
23290WAT     H170112   0.993   6.414   0.357
23290WAT     H270113   1.050   6.264   0.329
23291WAT      O70114   8.020   5.873   2.188
23291WAT     H170115   8.017   5.973   2.186
23291WAT     H270116   8.111   5.841   2.161
23292WAT      O70117   8.179   7.332   8.722
23292WAT     H170118   8.115   7.394   8.678
23292WAT     H270119   8.248   7.303   8.655
23293WAT      O70120   2.593   9.805   9.038
23293WAT     H170121   2.652   9.728   9.061
23293WAT     H270122   2.601   9.824   8.940
23294WAT      O70123   2.946   0.747   0.541
23294WAT     H170124   2.970   0.655   0.574
23294WAT     H270125   2.906   0.799   0.616
23295WAT      O70126   0.136   8.838   9.437
23295WAT     H170127   0.059   8.902   9.440
23295WAT     H270128   0.105   8.747   9.462
23296WAT      O70129   1.539   1.327   2.782
23296WAT     H170130   1.569   1.231   2.780
23296WAT     H270131   1.443   1.331   2.808
23297WAT      O70132   6.212   6.034   7.345
23297WAT     H170133   6.147   6.097   7.303
23297WAT     H270134   6.298   6.081   7.362
23298WAT      O70135   3.535   5.834   1.329
23298WAT     H170136   3.551   5.798   1.237
23298WAT     H270137   3.598   5.909   1.347
23299WAT      O70138   8.213   0.929   0.651
23299WAT     H170139   8.214   0.831   0.629
23299WAT     H270140   8.242   0.982   0.571
23300WAT      O70141   5.902   9.597   3.215
23300WAT     H170142   5.908   9.692   3.245
23300WAT     H270143   5.913   9.536   3.293
23301WAT      O70144   0.740   0.114   7.020
23301WAT     H170145   0.746   0.016   7.036
23301WAT     H270146   0.657   0.150   7.062
23302WAT      O70147   8.537   2.198   3.567
23302WAT     H170148   8.448   2.157   3.547
23302WAT     H270149   8.575   2.158   3.650
23303WAT      O70150   1.476   9.348   0.097
23303WAT     H170151   1.548   9.415   0.078
23303WAT     H270152   1.495   9.303   0.184
23304WAT      O70153   7.408   3.725   4.040
23304WAT     H170154   7.503   3.756   4.052
23304WAT     H270155   7.380   3.741   3.945
23305WAT      O70156   6.948   2.515   6.802
23305WAT     H170157   6.849   2.526   6.815
23305WAT     H270158   6.965   2.463   6.719
23306WAT      O70159   9.268   7.289   4.947
23306WAT     H170160   9.285   7.244   5.034
23306WAT     H270161   9.195   7.241   4.898
23307WAT      O70162   5.130   2.291   7.235
23307WAT     H170163   5.033   2.290   7.214
23307WAT     H270164   5.156   2.208   7.284
23308WAT      O70165   9.803   0.290   6.261
23308WAT     H170166   9.876   0.258   6.321
23308WAT     H270167   9.726   0.321   6.316
23309WAT      O70168   9.611   1.576   1.064
23309WAT     H170169   9.699   1.556   1.022
23309WAT     H270170   9.574   1.493   1.105
23310WAT      O70171   5.945   2.658   9.774
23310WAT     H170172   5.928   2.605   9.857
23310WAT     H270173   5.862   2.707   9.748
23311WAT      O70174   1.001   7.315   4.861
23311WAT     H170175   0.993   7.244   4.791
23311WAT     H270176   1.007   7.405   4.818
23312WAT      O70177   0.715   9.369   7.191
23312WAT     H170178   0.699   9.435   7.265
23312WAT     H270179   0.656   9.391   7.114
23313WAT      O70180   3.268   2.696   9.833
23313WAT     H170181   3.283   2.791   9.861
23313WAT     H270182   3.173   2.670   9.852
23314WAT      O70183   3.028   8.721   9.100
23314WAT     H170184   2.966   8.785   9.054
23314WAT     H270185   3.031   8.741   9.197
23315WAT      O70186   0.559   5.257   1.907
23315WAT     H170187   0.545   5.190   1.834
23315WAT     H270188   0.643   5.235   1.956
23316WAT      O70189   6.306   9.720   8.579
23316WAT     H170190   6.222   9.755   8.536
23316WAT     H270191   6.341   9.643   8.526
23317WAT      O70192   6.359   6.428   5.480
23317WAT     H170193   6.408   6.468   5.557
23317WAT     H270194   6.295   6.359   5.514
23318WAT      O70195   1.893   5.526   8.362
23318WAT     H170196   1.826   5.498   8.293
23318WAT     H270197   1.853   5.514   8.453
23319WAT      O70198   9.485   7.608   4.086
23319WAT     H170199   9.515   7.660   4.006
23319WAT     H270200   9.444   7.670   4.153
23320WAT      O70201   7.517   5.145   9.269
23320WAT     H170202   7.553   5.145   9.362
23320WAT     H270203   7.506   5.239   9.237
23321WAT      O70204   6.157   4.550   5.730
23321WAT     H170205   6.108   4.470   5.695
23321WAT     H270206   6.099   4.631   5.720
23322WAT      O70207   8.624   7.799   8.977
23322WAT     H170208   8.576   7.836   8.897
23322WAT     H270209   8.723   7.806   8.963
23323WAT      O70210   9.366   9.409   9.096
23323WAT     H170211   9.377   9.314   9.123
23323WAT     H270212   9.456   9.447   9.072
23324WAT      O70213   3.822   6.131   5.881
23324WAT     H170214   3.818   6.055   5.815
23324WAT     H270215   3.786   6.100   5.969
23325WAT      O70216   7.597   8.847   9.445
23325WAT     H170217   7.621   8.941   9.468
23325WAT     H270218   7.502   8.844   9.414
23326WAT      O70219   8.868   5.899   7.867
23326WAT     H170220   8.832   5.966   7.802
23326WAT     H270221   8.859   5.934   7.960
23327WAT      O70222   3.211   4.311   2.053
23327WAT     H170223   3.221   4.385   1.987
23327WAT     H270224   3.282   4.243   2.038
23328WAT      O70225   2.536   2.742   1.989
23328WAT     H170226   2.462   2.716   1.928
23328WAT     H270227   2.609   2.786   1.936
23329WAT      O70228   0.730   6.523   8.730
23329WAT     H170229   0.742   6.570   8.643
23329WAT     H270230   0.744   6.425   8.717
23330WAT      O70231   1.282   6.874   6.701
23330WAT     H170232   1.299   6.806   6.773
23330WAT     H270233   1.269   6.827   6.613
23331WAT      O70234   5.388   9.799   0.158
23331WAT     H170235   5.411   9.775   0.253
23331WAT     H270236   5.361   9.895   0.153
23332WAT      O70237   3.259   5.768   5.154
23332WAT     H170238   3.255   5.811   5.064
23332WAT     H270239   3.351   5.779   5.192
23333WAT      O70240   8.070   7.526   3.102
23333WAT     H170241   8.133   7.551   3.029
23333WAT     H270242   8.032   7.610   3.143
23334WAT      O70243   7.034   6.371   7.169
23334WAT     H170244   7.016   6.405   7.077
23334WAT     H270245   7.081   6.283   7.164
23335WAT      O70246   1.066   7.432   9.712
23335WAT     H170247   1.106   7.469   9.796
23335WAT     H270248   1.138   7.422   9.642
23336WAT      O70249   1.025   5.055   6.345
23336WAT     H170250   1.107   4.998   6.347
23336WAT     H270251   1.037   5.127   6.277
23337WAT      O70252   6.807   6.760   8.226
23337WAT     H170253   6.799   6.820   8.306
23337WAT     H270254   6.768   6.805   8.146
23338WAT      O70255   6.471   0.588   4.225
23338WAT     H170256   6.488   0.587   4.324
23338WAT     H270257   6.381   0.548   4.207
23339WAT      O70258   4.261   6.767   3.415
23339WAT     H170259   4.320   6.720   3.350
23339WAT     H270260   4.168   6.771   3.380
23340WAT      O70261   1.875   2.149   6.491
23340WAT     H170262   1.888   2.137   6.590
23340WAT     H270263   1.964   2.160   6.447
23341WAT      O70264   4.509   0.476   8.640
23341WAT     H170265   4.513   0.377   8.624
23341WAT     H270266   4.433   0.497   8.701
23342WAT      O70267   4.119   0.468   5.456
23342WAT     H170268   4.164   0.552   5.426
23342WAT     H270269   4.180   0.390   5.441
23343WAT      O70270   2.153   1.004   6.867
23343WAT     H170271   2.217   0.981   6.941
23343WAT     H270272   2.167   1.100   6.840
23344WAT      O70273   7.214   4.866   8.633
23344WAT     H170274   7.232   4.866   8.535
23344WAT     H270275   7.166   4.782   8.658
23345WAT      O70276   2.220   0.373   8.742
23345WAT     H170277   2.281   0.429   8.686
23345WAT     H270278   2.248   0.277   8.734
23346WAT      O70279   2.377   0.283   3.564
23346WAT     H170280   2.450   0.341   3.600
23346WAT     H270281   2.371   0.199   3.618
23347WAT      O70282   1.445   1.589   9.787
23347WAT     H170283   1.483   1.613   9.876
23347WAT     H270284   1.347   1.571   9.796
23348WAT      O70285   1.115   2.514   7.310
23348WAT     H170286   1.187   2.461   7.265
23348WAT     H270287   1.120   2.610   7.279
23349WAT      O70288   4.338   6.011   6.923
23349WAT     H170289   4.344   6.019   6.823
23349WAT     H270290   4.244   6.023   6.952
23350WAT      O70291   3.711   0.123   4.010
23350WAT     H170292   3.632   0.128   3.950
23350WAT     H270293   3.683   0.141   4.104
23351WAT      O70294   5.902   3.056   6.358
23351WAT     H170295   6.000   3.040   6.347
23351WAT     H270296   5.881   3.073   6.454
23352WAT      O70297   9.032   6.496   7.188
23352WAT     H170298   8.939   6.531   7.178
23352WAT     H270299   9.032   6.416   7.248
23353WAT      O70300   0.289   6.471   8.373
23353WAT     H170301   0.360   6.500   8.437
23353WAT     H270302   0.270   6.546   8.309
23354WAT      O70303   8.332   0.158   6.800
23354WAT     H170304   8.296   0.141   6.709
23354WAT     H270305   8.318   0.078   6.858
23355WAT      O70306   5.378   5.977   1.938
23355WAT     H170307   5.384   6.051   1.871
23355WAT     H270308   5.385   5.889   1.891
23356WAT      O70309   1.602   5.812   7.600
23356WAT     H170310   1.503   5.802   7.602
23356WAT     H270311   1.644   5.737   7.651
23357WAT      O70312   9.747   3.276   3.889
23357WAT     H170313   9.842   3.250   3.871
23357WAT     H270314   9.744   3.351   3.955
23358WAT      O70315   0.713   3.662   2.176
23358WAT     H170316   0.786   3.609   2.133
23358WAT     H270317   0.655   3.702   2.106
23359WAT      O70318   5.658   3.249   5.484
23359WAT     H170319   5.655   3.172   5.420
23359WAT     H270320   5.596   3.321   5.453
23360WAT      O70321   9.283   9.477   8.847
23360WAT     H170322   9.281   9.461   8.946
23360WAT     H270323   9.307   9.392   8.801
23361WAT      O70324   7.012   5.163   5.635
23361WAT     H170325   6.986   5.081   5.685
23361WAT     H270326   6.960   5.241   5.670
23362WAT      O70327   3.892   0.251   2.391
23362WAT     H170328   3.869   0.283   2.299
23362WAT     H270329   3.826   0.182   2.420
23363WAT      O70330   0.839   1.399   8.319
23363WAT     H170331   0.805   1.355   8.236
23363WAT     H270332   0.913   1.344   8.358
23364WAT      O70333   7.011   7.217   8.569
23364WAT     H170334   6.933   7.252   8.620
23364WAT     H270335   7.039   7.284   8.500
23365WAT      O70336   7.716   8.970   0.717
23365WAT     H170337   7.742   8.908   0.791
23365WAT     H270338   7.754   8.938   0.631
23366WAT      O70339   0.805   4.527   0.554
23366WAT     H170340   0.811   4.468   0.634
23366WAT     H270341   0.896   4.541   0.515
23367WAT      O70342   4.513   5.541   7.624
23367WAT     H170343   4.567   5.547   7.709
23367WAT     H270344   4.417   5.556   7.646
23368WAT      O70345   0.066   0.457   9.079
23368WAT     H170346   0.026   0.367   9.062
23368WAT     H270347   0.075   0.471   9.178
23369WAT      O70348   8.318   8.283   3.290
23369WAT     H170349   8.352   8.189   3.295
23369WAT     H270350   8.277   8.309   3.378
23370WAT      O70351   1.119   2.998   3.357
23370WAT     H170352   1.092   3.092   3.380
23370WAT     H270353   1.060   2.933   3.406
23371WAT      O70354   7.870   3.954   8.977
23371WAT     H170355   7.966   3.943   9.004
23371WAT     H270356   7.833   4.035   9.022
23372WAT      O70357   2.800   6.881   1.497
23372WAT     H170358   2.756   6.893   1.408
23372WAT     H270359   2.807   6.970   1.543
23373WAT      O70360   8.075   4.722   6.481
23373WAT     H170361   8.066   4.708   6.382
23373WAT     H270362   8.138   4.654   6.519
23374WAT      O70363   6.967   4.650   7.700
23374WAT     H170364   6.925   4.560   7.689
23374WAT     H270365   7.067   4.639   7.702
23375WAT      O70366   9.243   2.368   4.675
23375WAT     H170367   9.147   2.341   4.688
23375WAT     H270368   9.297   2.336   4.753
23376WAT      O70369   2.966   6.149   3.668
23376WAT     H170370   2.952   6.104   3.580
23376WAT     H270371   3.031   6.096   3.723
23377WAT      O70372   3.786   8.606   0.859
23377WAT     H170373   3.819   8.680   0.800
23377WAT     H270374   3.711   8.640   0.915
23378WAT      O70375   4.292   8.486   1.784
23378WAT     H170376   4.274   8.570   1.834
23378WAT     H270377   4.389   8.465   1.788
23379WAT      O70378   4.923   5.264   7.944
23379WAT     H170379   4.849   5.299   8.001
23379WAT     H270380   5.009   5.269   7.994
23380WAT      O70381   3.843   2.830   6.210
23380WAT     H170382   3.804   2.831   6.117
23380WAT     H270383   3.780   2.874   6.273
23381WAT      O70384   4.769   1.840   8.925
23381WAT     H170385   4.727   1.928   8.947
23381WAT     H270386   4.739   1.811   8.834
23382WAT      O70387   7.326   6.771   4.486
23382WAT     H170388   7.392   6.778   4.410
23382WAT     H270389   7.239   6.810   4.458
23383WAT      O70390   0.100   5.093   1.988
23383WAT     H170391   0.182   5.084   2.045
23383WAT     H270392   0.025   5.131   2.043
23384WAT      O70393   6.753   7.348   8.597
23384WAT     H170394   6.669   7.360   8.545
23384WAT     H270395   6.766   7.427   8.657
23385WAT      O70396   1.983   2.448   3.262
23385WAT     H170397   2.071   2.431   3.307
23385WAT     H270398   1.983   2.404   3.172
23386WAT      O70399   6.764   4.256   5.437
23386WAT     H170400   6.744   4.160   5.457
23386WAT     H270401   6.737   4.277   5.343
23387WAT      O70402   1.952   0.926   3.739
23387WAT     H170403   1.898   0.964   3.664
23387WAT     H270404   2.047   0.915   3.710
23388WAT      O70405   5.902   7.921   1.804
23388WAT     H170406   5.871   8.017   1.801
23388WAT     H270407   5.985   7.915   1.858
23389WAT      O70408   4.218   2.988   7.420
23389WAT     H170409   4.215   3.077   7.467
23389WAT     H270410   4.145   2.985   7.351
23390WAT      O70411   1.725   8.965   0.053
23390WAT     H170412   1.689   8.954   0.146
23390WAT     H270413   1.742   9.062   0.035
23391WAT      O70414   1.571   4.511   0.333
23391WAT     H170415   1.639   4.504   0.260
23391WAT     H270416   1.526   4.600   0.329
23392WAT      O70417   8.738   6.320   7.026
23392WAT     H170418   8.770   6.247   6.966
23392WAT     H270419   8.679   6.281   7.097
23393WAT      O70420   4.303   1.338   0.922
23393WAT     H170421   4.214   1.320   0.880
23393WAT     H270422   4.372   1.349   0.850
23394WAT      O70423   6.538   1.403   2.506
23394WAT     H170424   6.458   1.421   2.562
23394WAT     H270425   6.539   1.465   2.427
23395WAT      O70426   1.148   4.151   4.216
23395WAT     H170427   1.240   4.118   4.237
23395WAT     H270428   1.081   4.083   4.246
23396WAT      O70429   4.922   8.506   6.351
23396WAT     H170430   5.004   8.544   6.393
23396WAT     H270431   4.846   8.512   6.416
23397WAT      O70432   5.241   1.279   8.985
23397WAT     H170433   5.326   1.333   8.984
23397WAT     H270434   5.236   1.226   9.069
23398WAT      O70435   2.800   3.013   8.124
23398WAT     H170436   2.868   2.997   8.052
23398WAT     H270437   2.785   2.929   8.176
23399WAT      O70438   8.610   3.902   5.510
23399WAT     H170439   8.663   3.925   5.591
23399WAT     H270440   8.514   3.926   5.525
23400WAT      O70441   5.889   2.497   8.477
23400WAT     H170442   5.987   2.497   8.460
23400WAT     H270443   5.861   2.587   8.512
23401WAT      O70444   4.122   7.873   9.744
23401WAT     H170445   4.213   7.839   9.765
23401WAT     H270446   4.092   7.838   9.656
23402WAT      O70447   2.287   9.757   0.446
23402WAT     H170448   2.321   9.713   0.529
23402WAT     H270449   2.296   9.856   0.455
23403WAT      O70450   4.694   4.858   6.636
23403WAT     H170451   4.784   4.897   6.619
23403WAT     H270452   4.702   4.760   6.652
23404WAT      O70453   4.574   2.786   9.512
23404WAT     H170454   4.490   2.841   9.514
23404WAT     H270455   4.550   2.690   9.497
23405WAT      O70456   0.300   2.656   5.536
23405WAT     H170457   0.391   2.659   5.578
23405WAT     H270458   0.266   2.562   5.538
23406WAT      O70459   4.738   0.412   3.055
23406WAT     H170460   4.786   0.364   2.982
23406WAT     H270461   4.747   0.361   3.140
23407WAT      O70462   9.034   5.647   0.964
23407WAT     H170463   9.074   5.612   0.880
23407WAT     H270464   9.106   5.670   1.029
23408WAT      O70465   8.669   4.995   1.964
23408WAT     H170466   8.670   4.897   1.987
23408WAT     H270467   8.595   5.040   2.014
23409WAT      O70468   7.347   4.110   0.986
23409WAT     H170469   7.303   4.131   1.073
23409WAT     H270470   7.286   4.133   0.910
23410WAT      O70471   2.208   2.162   6.053
23410WAT     H170472   2.296   2.210   6.059
23410WAT     H270473   2.138   2.214   6.102
23411WAT      O70474   4.985   4.516   9.107
23411WAT     H170475   4.906   4.499   9.049
23411WAT     H270476   5.056   4.449   9.086
23412WAT      O70477   3.713   9.300   6.033
23412WAT     H170478   3.692   9.349   6.117
23412WAT     H270479   3.660   9.339   5.958
23413WAT      O70480   7.955   8.563   3.187
23413WAT     H170481   8.049   8.585   3.164
23413WAT     H270482   7.906   8.646   3.212
23414WAT      O70483   1.168   8.453   3.062
23414WAT     H170484   1.199   8.533   3.010
23414WAT     H270485   1.211   8.454   3.152
23415WAT      O70486   5.663   5.391   0.615
23415WAT     H170487   5.759   5.370   0.596
23415WAT     H270488   5.605   5.320   0.575
23416WAT      O70489   9.237   5.886   7.077
23416WAT     H170490   9.280   5.907   7.164
23416WAT     H270491   9.166   5.816   7.091
23417WAT      O70492   6.322   6.177   2.204
23417WAT     H170493   6.264   6.152   2.281
23417WAT     H270494   6.265   6.207   2.127
23418WAT      O70495   0.658   4.520   2.386
23418WAT     H170496   0.662   4.421   2.393
23418WAT     H270497   0.709   4.551   2.306
23419WAT      O70498   1.541   6.148   8.504
23419WAT     H170499   1.637   6.138   8.532
23419WAT     H270500   1.492   6.204   8.570
23420WAT      O70501   6.912   3.804   1.435
23420WAT     H170502   6.917   3.881   1.500
23420WAT     H270503   6.963   3.727   1.471
23421WAT      O70504   2.562   9.808   8.468
23421WAT     H170505   2.531   9.721   8.504
23421WAT     H270506   2.522   9.823   8.377
23422WAT      O70507   5.178   2.386   3.086
23422WAT     H170508   5.090   2.362   3.046
23422WAT     H270509   5.208   2.312   3.148
23423WAT      O70510   9.642   1.837   1.974
23423WAT     H170511   9.686   1.861   1.888
23423WAT     H270512   9.626   1.921   2.027
23424WAT      O70513   7.724   9.626   3.103
23424WAT     H170514   7.792   9.621   3.176
23424WAT     H270515   7.663   9.547   3.109
23425WAT      O70516   1.422   6.888   5.753
23425WAT     H170517   1.489   6.959   5.733
23425WAT     H270518   1.464   6.815   5.806
23426WAT      O70519   2.659   6.954   2.174
23426WAT     H170520   2.642   6.857   2.191
23426WAT     H270521   2.646   6.972   2.076
23427WAT      O70522   4.611   1.385   7.913
23427WAT     H170523   4.674   1.374   7.837
23427WAT     H270524   4.660   1.374   8.000
23428WAT      O70525   0.013   6.755   2.177
23428WAT     H170526  -0.001   6.742   2.275
23428WAT     H270527  -0.064   6.716   2.127
23429WAT      O70528   5.570   2.255   3.965
23429WAT     H170529   5.471   2.256   3.959
23429WAT     H270530   5.608   2.323   3.901
23430WAT      O70531   2.692   0.256   6.552
23430WAT     H170532   2.761   0.183   6.554
23430WAT     H270533   2.707   0.319   6.628
23431WAT      O70534   2.110   1.543   4.076
23431WAT     H170535   2.042   1.477   4.105
23431WAT     H270536   2.068   1.610   4.015
23432WAT      O70537   0.604   6.364   1.727
23432WAT     H170538   0.635   6.454   1.757
23432WAT     H270539   0.539   6.374   1.651
23433WAT      O70540   6.518   9.221   8.306
23433WAT     H170541   6.547   9.129   8.281
23433WAT     H270542   6.569   9.252   8.386
23434WAT      O70543   0.841   0.808   3.871
23434WAT     H170544   0.819   0.825   3.967
23434WAT     H270545   0.802   0.881   3.814
23435WAT      O70546   9.257   9.007   0.716
23435WAT     H170547   9.213   8.989   0.804
23435WAT     H270548   9.264   9.106   0.702
23436WAT      O70549   9.403   9.752   4.268
23436WAT     H170550   9.337   9.826   4.280
23436WAT     H270551   9.457   9.768   4.186
23437WAT      O70552   6.435   1.702   3.847
23437WAT     H170553   6.431   1.791   3.801
23437WAT     H270554   6.525   1.690   3.888
23438WAT      O70555   5.805   3.026   6.679
23438WAT     H170556   5.840   3.087   6.750
23438WAT     H270557   5.783   2.937   6.719
23439WAT      O70558   9.165   1.059   4.424
23439WAT     H170559   9.184   0.967   4.389
23439WAT     H270560   9.237   1.086   4.487
23440WAT      O70561   7.456   5.606   2.940
23440WAT     H170562   7.540   5.570   2.898
23440WAT     H270563   7.451   5.704   2.925
23441WAT      O70564   2.321   4.937   6.881
23441WAT     H170565   2.355   5.004   6.947
23441WAT     H270566   2.376   4.854   6.886
23442WAT      O70567   7.518   4.475   5.546
23442WAT     H170568   7.611   4.484   5.511
23442WAT     H270569   7.520   4.443   5.640
23443WAT      O70570   9.643   3.531   4.046
23443WAT     H170571   9.700   3.509   4.125
23443WAT     H270572   9.645   3.629   4.030
23444WAT      O70573   5.336   4.928   6.344
23444WAT     H170574   5.383   4.930   6.256
23444WAT     H270575   5.253   4.872   6.336
23445WAT      O70576   4.073   3.940   9.096
23445WAT     H170577   4.120   3.860   9.133
23445WAT     H270578   4.012   3.911   9.022
23446WAT      O70579   8.610   4.347   6.866
23446WAT     H170580   8.602   4.273   6.799
23446WAT     H270581   8.641   4.430   6.820
23447WAT      O70582   2.349   6.024   5.111
23447WAT     H170583   2.352   5.994   5.207
23447WAT     H270584   2.340   6.123   5.108
23448WAT      O70585   6.872   3.713   2.319
23448WAT     H170586   6.934   3.743   2.391
23448WAT     H270587   6.782   3.693   2.359
23449WAT      O70588   6.843   3.132   8.660
23449WAT     H170589   6.928   3.126   8.607
23449WAT     H270590   6.854   3.081   8.746
23450WAT      O70591   7.322   8.333   5.359
23450WAT     H170592   7.364   8.274   5.289
23450WAT     H270593   7.227   8.351   5.335
23451WAT      O70594   2.680   2.306   8.528
23451WAT     H170595   2.611   2.356   8.580
23451WAT     H270596   2.638   2.223   8.490
23452WAT      O70597   8.999   6.020   6.064
23452WAT     H170598   8.976   6.105   6.111
23452WAT     H270599   8.964   6.024   5.970
23453WAT      O70600   6.752   9.448   6.834
23453WAT     H170601   6.706   9.520   6.782
23453WAT     H270602   6.820   9.403   6.776
23454WAT      O70603   5.137   7.120   8.187
23454WAT     H170604   5.073   7.117   8.110
23454WAT     H270605   5.152   7.028   8.222
23455WAT      O70606   8.602   5.634   4.171
23455WAT     H170607   8.570   5.724   4.139
23455WAT     H270608   8.586   5.627   4.269
23456WAT      O70609   3.320   5.988   8.798
23456WAT     H170610   3.329   6.086   8.817
23456WAT     H270611   3.377   5.964   8.719
23457WAT      O70612   4.506   6.864   7.725
23457WAT     H170613   4.515   6.942   7.786
23457WAT     H270614   4.412   6.857   7.692
23458WAT      O70615   0.429   2.096   7.443
23458WAT     H170616   0.389   2.031   7.507
23458WAT     H270617   0.524   2.070   7.424
23459WAT      O70618   9.011   0.426   2.387
23459WAT     H170619   9.055   0.471   2.464
23459WAT     H270620   8.961   0.494   2.333
23460WAT      O70621   3.297   0.224   6.460
23460WAT     H170622   3.354   0.150   6.495
23460WAT     H270623   3.310   0.306   6.516
23461WAT      O70624   4.011   8.499   2.081
23461WAT     H170625   4.065   8.436   2.137
23461WAT     H270626   3.963   8.448   2.010
23462WAT      O70627   5.260   2.818   8.599
23462WAT     H170628   5.225   2.820   8.506
23462WAT     H270629   5.184   2.807   8.663
23463WAT      O70630   6.033   9.049   8.360
23463WAT     H170631   5.965   9.089   8.422
23463WAT     H270632   6.114   9.107   8.356
23464WAT      O70633   1.459   4.526   1.887
23464WAT     H170634   1.511   4.609   1.869
23464WAT     H270635   1.522   4.450   1.905
23465WAT      O70636   9.217   1.137   1.699
23465WAT     H170637   9.298   1.122   1.756
23465WAT     H270638   9.232   1.098   1.609
23466WAT      O70639   8.366   7.222   7.096
23466WAT     H170640   8.425   7.142   7.108
23466WAT     H270641   8.378   7.284   7.173
23467WAT      O70642   7.350   5.685   0.799
23467WAT     H170643   7.385   5.591   0.809
23467WAT     H270644   7.394   5.729   0.721
23468WAT      O70645   2.218   6.073   3.743
23468WAT     H170646   2.153   6.035   3.808
23468WAT     H270647   2.244   6.003   3.676
23469WAT      O70648   2.798   8.638   3.731
23469WAT     H170649   2.699   8.650   3.732
23469WAT     H270650   2.820   8.541   3.743
23470WAT      O70651   2.088   1.089   5.416
23470WAT     H170652   2.134   1.026   5.354
23470WAT     H270653   1.989   1.075   5.412
23471WAT      O70654   7.653   1.038   9.404
23471WAT     H170655   7.610   0.969   9.345
23471WAT     H270656   7.691   1.111   9.346
23472WAT      O70657   0.464   9.190   5.659
23472WAT     H170658   0.384   9.148   5.701
23472WAT     H270659   0.441   9.282   5.628
23473WAT      O70660   7.905   1.944   0.030
23473WAT     H170661   7.966   1.977  -0.042
23473WAT     H270662   7.851   1.868  -0.004
23474WAT      O70663   6.908   4.315   1.957
23474WAT     H170664   6.921   4.346   2.051
23474WAT     H270665   6.868   4.223   1.958
23475WAT      O70666   6.757   5.227   2.435
23475WAT     H170667   6.709   5.162   2.494
23475WAT     H270668   6.783   5.181   2.350
23476WAT      O70669   1.965   1.200   9.505
23476WAT     H170670   2.049   1.150   9.484
23476WAT     H270671   1.887   1.138   9.496
23477WAT      O70672   4.145   0.632   4.788
23477WAT     H170673   4.179   0.704   4.847
23477WAT     H270674   4.221   0.590   4.738
23478WAT      O70675   8.592   2.662   9.178
23478WAT     H170676   8.633   2.747   9.144
23478WAT     H270677   8.640   2.584   9.138
23479WAT      O70678   7.615   6.065   3.553
23479WAT     H170679   7.692   6.109   3.507
23479WAT     H270680   7.629   5.966   3.556
23480WAT      O70681   4.263   2.720   3.894
23480WAT     H170682   4.202   2.663   3.948
23480WAT     H270683   4.263   2.813   3.931
23481WAT      O70684   5.148   5.291   5.799
23481WAT     H170685   5.098   5.205   5.788
23481WAT     H270686   5.223   5.295   5.733
23482WAT      O70687   5.147   2.130   9.564
23482WAT     H170688   5.109   2.038   9.555
23482WAT     H270689   5.209   2.148   9.487
23483WAT      O70690   2.085   6.804   9.488
23483WAT     H170691   2.092   6.850   9.400
23483WAT     H270692   1.989   6.801   9.517
23484WAT      O70693   0.802   5.332   6.283
23484WAT     H170694   0.781   5.236   6.303
23484WAT     H270695   0.719   5.378   6.251
23485WAT      O70696   8.246   8.032   5.955
23485WAT     H170697   8.209   8.084   5.878
23485WAT     H270698   8.175   7.973   5.993
23486WAT      O70699   3.858   0.078   6.764
23486WAT     H170700   3.952   0.045   6.765
23486WAT     H270701   3.857   0.178   6.770
23487WAT      O70702   4.381   3.757   3.604
23487WAT     H170703   4.346   3.733   3.514
23487WAT     H270704   4.432   3.680   3.642
23488WAT      O70705   1.788   8.897   3.795
23488WAT     H170706   1.822   8.847   3.874
23488WAT     H270707   1.843   8.873   3.715
23489WAT      O70708   5.497   2.568   3.608
23489WAT     H170709   5.570   2.526   3.662
23489WAT     H270710   5.527   2.657   3.575
23490WAT      O70711   9.660   8.577   9.501
23490WAT     H170712   9.605   8.494   9.492
23490WAT     H270713   9.631   8.644   9.432
23491WAT      O70714   0.612   1.125   5.147
23491WAT     H170715   0.564   1.038   5.140
23491WAT     H270716   0.586   1.183   5.070
23492WAT      O70717   4.108   8.523   2.459
23492WAT     H170718   4.194   8.527   2.409
23492WAT     H270719   4.073   8.616   2.472
23493WAT      O70720   6.227   0.257   7.524
23493WAT     H170721   6.216   0.332   7.459
23493WAT     H270722   6.302   0.198   7.493
23494WAT      O70723   1.491   4.362   5.286
23494WAT     H170724   1.541   4.449   5.292
23494WAT     H270725   1.422   4.358   5.358
23495WAT      O70726   7.465   7.753   8.633
23495WAT     H170727   7.541   7.744   8.698
23495WAT     H270728   7.382   7.714   8.672
23496WAT      O70729   5.844   3.960   2.204
23496WAT     H170730   5.938   3.989   2.187
23496WAT     H270731   5.825   3.875   2.156
23497WAT      O70732   0.396   3.650   1.011
23497WAT     H170733   0.495   3.647   0.997
23497WAT     H270734   0.349   3.617   0.929
23498WAT      O70735   8.220   6.255   6.036
23498WAT     H170736   8.153   6.329   6.028
23498WAT     H270737   8.241   6.219   5.945
23499WAT      O70738   5.098   2.281   2.855
23499WAT     H170739   5.113   2.182   2.862
23499WAT     H270740   5.180   2.324   2.819
23500WAT      O70741   6.470   0.585   0.785
23500WAT     H170742   6.494   0.655   0.717
23500WAT     H270743   6.415   0.513   0.742
23501WAT      O70744   2.805   2.024   8.293
23501WAT     H170745   2.724   2.028   8.351
23501WAT     H270746   2.886   2.050   8.347
23502WAT      O70747   8.858   9.471   1.452
23502WAT     H170748   8.931   9.403   1.447
23502WAT     H270749   8.853   9.507   1.545
23503WAT      O70750   0.694   6.109   4.709
23503WAT     H170751   0.657   6.040   4.646
23503WAT     H270752   0.634   6.117   4.789
23504WAT      O70753   5.976   5.574   7.403
23504WAT     H170754   6.048   5.609   7.463
23504WAT     H270755   5.911   5.648   7.384
23505WAT      O70756   1.722   1.269   9.870
23505WAT     H170757   1.738   1.367   9.882
23505WAT     H270758   1.679   1.232   9.953
23506WAT      O70759   8.319   0.847   8.193
23506WAT     H170760   8.271   0.922   8.238
23506WAT     H270761   8.275   0.828   8.106
23507WAT      O70762   2.604   7.800   6.355
23507WAT     H170763   2.688   7.834   6.312
23507WAT     H270764   2.590   7.705   6.329
23508WAT      O70765   0.578   2.320   7.135
23508WAT     H170766   0.672   2.304   7.105
23508WAT     H270767   0.579   2.354   7.229
23509WAT      O70768   6.509   4.051   6.442
23509WAT     H170769   6.503   4.149   6.422
23509WAT     H270770   6.533   4.002   6.359
23510WAT      O70771   6.368   2.461   5.825
23510WAT     H170772   6.333   2.432   5.736
23510WAT     H270773   6.313   2.538   5.859
23511WAT      O70774   7.700   3.669   9.234
23511WAT     H170775   7.688   3.734   9.159
23511WAT     H270776   7.725   3.719   9.317
23512WAT      O70777   9.000   2.186   8.769
23512WAT     H170778   9.094   2.218   8.764
23512WAT     H270779   8.978   2.163   8.864
23513WAT      O70780   4.973   3.506   0.314
23513WAT     H170781   5.042   3.519   0.385
23513WAT     H270782   4.928   3.593   0.295
23514WAT      O70783   1.195   1.643   9.521
23514WAT     H170784   1.251   1.595   9.454
23514WAT     H270785   1.182   1.738   9.491
23515WAT      O70786   8.901   6.434   3.078
23515WAT     H170787   8.898   6.335   3.077
23515WAT     H270788   8.864   6.468   3.165
23516WAT      O70789   8.563   2.997   2.046
23516WAT     H170790   8.498   3.069   2.021
23516WAT     H270791   8.519   2.934   2.110
23517WAT      O70792   1.635   4.030   4.168
23517WAT     H170793   1.635   3.937   4.131
23517WAT     H270794   1.542   4.065   4.171
23518WAT      O70795   8.844   9.649   6.250
23518WAT     H170796   8.876   9.616   6.161
23518WAT     H270797   8.917   9.640   6.317
23519WAT      O70798   3.915   2.904   8.445
23519WAT     H170799   3.918   2.934   8.540
23519WAT     H270800   3.943   2.979   8.385
23520WAT      O70801   9.239   7.920   4.121
23520WAT     H170802   9.212   7.928   4.216
23520WAT     H270803   9.275   8.007   4.088
23521WAT      O70804   0.755   6.146   8.000
23521WAT     H170805   0.762   6.109   8.092
23521WAT     H270806   0.659   6.155   7.974
23522WAT      O70807   7.140   7.613   5.187
23522WAT     H170808   7.168   7.518   5.171
23522WAT     H270809   7.189   7.673   5.125
23523WAT      O70810   7.512   3.542   7.759
23523WAT     H170811   7.611   3.546   7.744
23523WAT     H270812   7.467   3.610   7.700
23524WAT      O70813   5.158   5.600   8.648
23524WAT     H170814   5.216   5.617   8.569
23524WAT     H270815   5.199   5.644   8.729
23525WAT      O70816   7.517   1.643   7.514
23525WAT     H170817   7.427   1.651   7.471
23525WAT     H270818   7.557   1.555   7.489
23526WAT      O70819   0.402   1.579   0.260
23526WAT     H170820   0.366   1.537   0.176
23526WAT     H270821   0.413   1.677   0.246
23527WAT      O70822   6.743   0.137   2.800
23527WAT     H170823   6.830   0.139   2.750
23527WAT     H270824   6.692   0.054   2.775
23528WAT      O70825   7.072   9.408   6.246
23528WAT     H170826   6.976   9.433   6.255
23528WAT     H270827   7.084   9.313   6.275
23529WAT      O70828   1.424   0.932   5.615
23529WAT     H170829   1.396   0.928   5.520
23529WAT     H270830   1.457   1.025   5.637
23530WAT      O70831   2.371   0.196   5.081
23530WAT     H170832   2.410   0.185   4.989
23530WAT     H270833   2.322   0.113   5.107
23531WAT      O70834   5.759   1.087   8.262
23531WAT     H170835   5.813   1.078   8.178
23531WAT     H270836   5.769   1.179   8.299
23532WAT      O70837   0.394   2.941   8.705
23532WAT     H170838   0.347   2.855   8.725
23532WAT     H270839   0.491   2.931   8.728
23533WAT      O70840   9.223   8.934   9.372
23533WAT     H170841   9.186   8.972   9.457
23533WAT     H270842   9.189   8.987   9.295
23534WAT      O70843   5.671   6.755   7.096
23534WAT     H170844   5.599   6.824   7.092
23534WAT     H270845   5.646   6.677   7.039
23535WAT      O70846   6.167   3.106   4.971
23535WAT     H170847   6.255   3.125   4.926
23535WAT     H270848   6.170   3.138   5.065
23536WAT      O70849   1.006   2.783   3.152
23536WAT     H170850   0.961   2.837   3.223
23536WAT     H270851   1.076   2.838   3.108
23537WAT      O70852   3.592   0.671   2.714
23537WAT     H170853   3.650   0.595   2.686
23537WAT     H270854   3.496   0.642   2.713
23538WAT      O70855   4.909   0.765   3.230
23538WAT     H170856   4.958   0.823   3.295
23538WAT     H270857   4.947   0.778   3.138
23539WAT      O70858   9.582   3.160   1.017
23539WAT     H170859   9.495   3.203   1.040
23539WAT     H270860   9.573   3.060   1.021
23540WAT      O70861   2.307   4.591   6.670
23540WAT     H170862   2.342   4.675   6.627
23540WAT     H270863   2.277   4.527   6.599
23541WAT      O70864   1.540   3.007   6.174
23541WAT     H170865   1.442   3.025   6.172
23541WAT     H270866   1.562   2.945   6.249
23542WAT      O70867   7.141   3.468   6.220
23542WAT     H170868   7.100   3.433   6.304
23542WAT     H270869   7.240   3.453   6.222
23543WAT      O70870   7.938   3.063   3.022
23543WAT     H170871   7.878   3.023   3.092
23543WAT     H270872   7.942   3.162   3.034
23544WAT      O70873   6.708   4.356   5.189
23544WAT     H170874   6.612   4.368   5.162
23544WAT     H270875   6.754   4.444   5.190
23545WAT      O70876   2.376   5.620   5.429
23545WAT     H170877   2.451   5.649   5.368
23545WAT     H270878   2.404   5.631   5.524
23546WAT      O70879   1.925   2.564   0.373
23546WAT     H170880   1.869   2.606   0.445
23546WAT     H270881   1.993   2.505   0.415
23547WAT      O70882   0.802   3.101   8.655
23547WAT     H170883   0.837   3.027   8.597
23547WAT     H270884   0.755   3.063   8.734
23548WAT      O70885   7.196   9.411   5.147
23548WAT     H170886   7.202   9.387   5.050
23548WAT     H270887   7.256   9.488   5.166
23549WAT      O70888   6.790   8.690   8.243
23549WAT     H170889   6.860   8.733   8.187
23549WAT     H270890   6.826   8.604   8.280
23550WAT      O70891   2.014   0.662   4.119
23550WAT     H170892   1.963   0.622   4.042
23550WAT     H270893   2.066   0.741   4.087
23551WAT      O70894   1.747   4.574   5.736
23551WAT     H170895   1.799   4.529   5.663
23551WAT     H270896   1.781   4.543   5.825
23552WAT      O70897   6.726   1.340   2.179
23552WAT     H170898   6.710   1.365   2.275
23552WAT     H270899   6.650   1.284   2.147
23553WAT      O70900   4.557   0.450   3.488
23553WAT     H170901   4.550   0.466   3.587
23553WAT     H270902   4.616   0.520   3.448
23554WAT      O70903   2.900   8.908   0.726
23554WAT     H170904   2.847   8.989   0.698
23554WAT     H270905   2.907   8.907   0.826
23555WAT      O70906   1.272   8.451   1.299
23555WAT     H170907   1.351   8.450   1.360
23555WAT     H270908   1.191   8.484   1.349
23556WAT      O70909   3.931   0.249   3.990
23556WAT     H170910   3.842   0.204   3.992
23556WAT     H270911   4.001   0.188   4.027
23557WAT      O70912   0.696   8.388   8.930
23557WAT     H170913   0.618   8.333   8.900
23557WAT     H270914   0.686   8.481   8.895
23558WAT      O70915   9.571   2.446   2.435
23558WAT     H170916   9.611   2.367   2.388
23558WAT     H270917   9.633   2.476   2.507
23559WAT      O70918   8.017   5.033   5.098
23559WAT     H170919   7.919   5.052   5.095
23559WAT     H270920   8.033   4.954   5.158
23560WAT      O70921   9.540   8.209   6.355
23560WAT     H170922   9.634   8.237   6.377
23560WAT     H270923   9.479   8.240   6.428
23561WAT      O70924   5.324   3.148   1.932
23561WAT     H170925   5.357   3.171   2.023
23561WAT     H270926   5.398   3.103   1.880
23562WAT      O70927   0.282   0.430   0.225
23562WAT     H170928   0.290   0.427   0.325
23562WAT     H270929   0.281   0.337   0.189
23563WAT      O70930   7.707   3.200   0.883
23563WAT     H170931   7.680   3.245   0.798
23563WAT     H270932   7.713   3.101   0.869
23564WAT      O70933   4.135   6.821   9.778
23564WAT     H170934   4.228   6.787   9.766
23564WAT     H270935   4.099   6.790   9.866
23565WAT      O70936   3.815   1.389   8.059
23565WAT     H170937   3.721   1.417   8.077
23565WAT     H270938   3.817   1.330   7.978
23566WAT      O70939   7.171   7.315   7.765
23566WAT     H170940   7.126   7.314   7.675
23566WAT     H270941   7.232   7.236   7.772
23567WAT      O70942   9.270   7.754   1.170
23567WAT     H170943   9.283   7.705   1.256
23567WAT     H270944   9.190   7.814   1.177
23568WAT      O70945   8.002   9.442   8.756
23568WAT     H170946   8.031   9.448   8.851
23568WAT     H270947   7.969   9.531   8.725
23569WAT      O70948   3.178   8.950   4.876
23569WAT     H170949   3.254   8.957   4.941
23569WAT     H270950   3.125   8.867   4.896
23570WAT      O70951   7.771   0.185   6.203
23570WAT     H170952   7.756   0.092   6.170
23570WAT     H270953   7.762   0.249   6.127
23571WAT      O70954   1.826   2.395   5.651
23571WAT     H170955   1.923   2.374   5.641
23571WAT     H270956   1.795   2.368   5.743
23572WAT      O70957   6.538   9.468   6.380
23572WAT     H170958   6.468   9.446   6.311
23572WAT     H270959   6.505   9.543   6.438
23573WAT      O70960   1.323   2.372   4.898
23573WAT     H170961   1.308   2.296   4.962
23573WAT     H270962   1.259   2.446   4.917
23574WAT      O70963   6.690   2.077   2.632
23574WAT     H170964   6.702   1.980   2.609
23574WAT     H270965   6.700   2.132   2.550
23575WAT      O70966   2.676   5.580   1.091
23575WAT     H170967   2.670   5.501   1.152
23575WAT     H270968   2.597   5.640   1.105
23576WAT      O70969   5.268   8.940   5.708
23576WAT     H170970   5.247   8.867   5.773
23576WAT     H270971   5.367   8.951   5.701
23577WAT      O70972   6.646   6.352   0.115
23577WAT     H170973   6.701   6.396   0.186
23577WAT     H270974   6.587   6.282   0.156
23578WAT      O70975   6.895   7.643   3.802
23578WAT     H170976   6.900   7.553   3.760
23578WAT     H270977   6.966   7.652   3.873
23579WAT      O70978   2.310   6.311   5.045
23579WAT     H170979   2.374   6.358   4.984
23579WAT     H270980   2.289   6.371   5.123
23580WAT      O70981   1.854   7.271   4.536
23580WAT     H170982   1.950   7.253   4.557
23580WAT     H270983   1.813   7.189   4.496
23581WAT      O70984   5.391   7.037   2.202
23581WAT     H170985   5.343   7.051   2.288
23581WAT     H270986   5.355   7.101   2.133
23582WAT      O70987   3.268   5.419   3.044
23582WAT     H170988   3.350   5.436   3.099
23582WAT     H270989   3.263   5.323   3.019
23583WAT      O70990   3.584   6.211   4.899
23583WAT     H170991   3.653   6.277   4.868
23583WAT     H270992   3.517   6.196   4.826
23584WAT      O70993   6.715   4.532   7.894
23584WAT     H170994   6.745   4.476   7.816
23584WAT     H270995   6.792   4.586   7.927
23585WAT      O70996   4.560   2.884   3.166
23585WAT     H170997   4.594   2.958   3.224
23585WAT     H270998   4.634   2.852   3.107
23586WAT      O70999   8.057   8.212   1.508
23586WAT     H171000   7.994   8.135   1.523
23586WAT     H271001   8.083   8.215   1.412
23587WAT      O71002   5.457   0.884   1.672
23587WAT     H171003   5.412   0.795   1.676
23587WAT     H271004   5.535   0.879   1.610
23588WAT      O71005   1.010   1.763   3.146
23588WAT     H171006   1.016   1.856   3.108
23588WAT     H271007   1.030   1.696   3.075
23589WAT      O71008   1.514   4.855   0.608
23589WAT     H171009   1.458   4.937   0.598
23589WAT     H271010   1.607   4.882   0.634
23590WAT      O71011   8.417   8.565   3.095
23590WAT     H171012   8.386   8.471   3.102
23590WAT     H271013   8.481   8.574   3.018
23591WAT      O71014   1.460   2.361   0.196
23591WAT     H171015   1.528   2.414   0.145
23591WAT     H271016   1.482   2.264   0.189
23592WAT      O71017   8.939   4.265   9.578
23592WAT     H171018   9.030   4.229   9.596
23592WAT     H271019   8.871   4.193   9.592
23593WAT      O71020   7.129   4.294   0.101
23593WAT     H171021   7.178   4.224   0.151
23593WAT     H271022   7.035   4.299   0.133
23594WAT      O71023   9.097   9.823   6.044
23594WAT     H171024   9.182   9.775   6.069
23594WAT     H271025   9.038   9.762   5.992
23595WAT      O71026   8.626   0.779   9.424
23595WAT     H171027   8.581   0.790   9.513
23595WAT     H271028   8.693   0.704   9.430
23596WAT      O71029   9.128   4.752   8.709
23596WAT     H171030   9.174   4.726   8.794
23596WAT     H271031   9.030   4.762   8.726
23597WAT      O71032   1.650   5.020   2.875
23597WAT     H171033   1.714   4.957   2.919
23597WAT     H271034   1.605   5.076   2.944
23598WAT      O71035   2.885   3.371   5.091
23598WAT     H171036   2.964   3.335   5.041
23598WAT     H271037   2.876   3.322   5.178
23599WAT      O71038   9.883   3.665   0.361
23599WAT     H171039   9.908   3.604   0.286
23599WAT     H271040   9.814   3.621   0.418
23600WAT      O71041   6.453   9.147   6.434
23600WAT     H171042   6.411   9.100   6.511
23600WAT     H271043   6.546   9.174   6.457
23601WAT      O71044   3.753   0.986   8.310
23601WAT     H171045   3.796   1.046   8.243
23601WAT     H271046   3.794   0.895   8.304
23602WAT      O71047   4.037   3.638   3.446
23602WAT     H171048   4.041   3.738   3.449
23602WAT     H271049   3.950   3.610   3.405
23603WAT      O71050   9.852   8.861   4.454
23603WAT     H171051   9.821   8.921   4.527
23603WAT     H271052   9.928   8.904   4.405
23604WAT      O71053   8.895   0.827   2.333
23604WAT     H171054   8.855   0.874   2.411
23604WAT     H271055   8.856   0.735   2.325
23605WAT      O71056   0.787   9.561   0.834
23605WAT     H171057   0.774   9.476   0.886
23605WAT     H271058   0.817   9.539   0.741
23606WAT      O71059   7.412   1.340   7.479
23606WAT     H171060   7.336   1.332   7.414
23606WAT     H271061   7.388   1.290   7.563
23607WAT      O71062   8.329   3.268   1.275
23607WAT     H171063   8.278   3.208   1.337
23607WAT     H271064   8.276   3.283   1.191
23608WAT      O71065   4.022   6.358   3.483
23608WAT     H171066   3.964   6.304   3.544
23608WAT     H271067   4.047   6.303   3.404
23609WAT      O71068   3.460   0.430   2.557
23609WAT     H171069   3.514   0.445   2.474
23609WAT     H271070   3.374   0.482   2.551
23610WAT      O71071   5.100   5.438   0.642
23610WAT     H171072   5.101   5.343   0.611
23610WAT     H271073   5.069   5.442   0.737
23611WAT      O71074   2.313   8.335   4.264
23611WAT     H171075   2.295   8.351   4.167
23611WAT     H271076   2.226   8.331   4.313
23612WAT      O71077   5.579   0.565   0.804
23612WAT     H171078   5.518   0.531   0.732
23612WAT     H271079   5.641   0.633   0.766
23613WAT      O71080   8.580   2.806   2.825
23613WAT     H171081   8.672   2.767   2.824
23613WAT     H271082   8.513   2.733   2.834
23614WAT      O71083   0.773   1.217   3.921
23614WAT     H171084   0.845   1.163   3.877
23614WAT     H271085   0.774   1.309   3.884
23615WAT      O71086   8.806   2.727   7.541
23615WAT     H171087   8.878   2.709   7.474
23615WAT     H271088   8.726   2.765   7.494
23616WAT      O71089   7.266   4.158   6.397
23616WAT     H171090   7.181   4.206   6.377
23616WAT     H271091   7.280   4.153   6.496
23617WAT      O71092   8.335   2.566   3.485
23617WAT     H171093   8.354   2.649   3.432
23617WAT     H271094   8.315   2.591   3.580
23618WAT      O71095   6.840   2.705   0.546
23618WAT     H171096   6.890   2.643   0.608
23618WAT     H271097   6.859   2.679   0.451
23619WAT      O71098   6.813   6.624   6.912
23619WAT     H171099   6.855   6.673   6.835
23619WAT     H271100   6.872   6.548   6.939
23620WAT      O71101   2.069   1.897   2.797
23620WAT     H171102   1.976   1.933   2.791
23620WAT     H271103   2.069   1.799   2.777
23621WAT      O71104   0.629   1.847   8.879
23621WAT     H171105   0.631   1.852   8.979
23621WAT     H271106   0.570   1.770   8.851
23622WAT      O71107   8.111   2.941   3.209
23622WAT     H171108   8.035   2.969   3.151
23622WAT     H271109   8.080   2.929   3.303
23623WAT      O71110   5.604   6.065   6.054
23623WAT     H171111   5.651   6.140   6.007
23623WAT     H271112   5.507   6.066   6.030
23624WAT      O71113   6.527   0.918   9.574
23624WAT     H171114   6.598   0.986   9.592
23624WAT     H271115   6.439   0.964   9.563
23625WAT      O71116   9.560   3.176   8.319
23625WAT     H171117   9.594   3.090   8.280
23625WAT     H271118   9.622   3.208   8.390
23626WAT      O71119   8.588   1.644   3.764
23626WAT     H171120   8.662   1.700   3.803
23626WAT     H271121   8.627   1.559   3.729
23627WAT      O71122   5.226   4.477   9.427
23627WAT     H171123   5.274   4.393   9.450
23627WAT     H271124   5.168   4.504   9.503
23628WAT      O71125   7.496   8.597   5.855
23628WAT     H171126   7.531   8.615   5.947
23628WAT     H271127   7.421   8.531   5.859
23629WAT      O71128   5.614   2.418   8.540
23629WAT     H171129   5.708   2.447   8.562
23629WAT     H271130   5.568   2.490   8.489
23630WAT      O71131   1.805   0.227   1.506
23630WAT     H171132   1.747   0.300   1.468
23630WAT     H271133   1.747   0.160   1.553
23631WAT      O71134   9.825   1.727   9.685
23631WAT     H171135   9.749   1.766   9.738
23631WAT     H271136   9.900   1.704   9.747
23632WAT      O71137   4.153   0.326   4.871
23632WAT     H171138   4.164   0.290   4.963
23632WAT     H271139   4.095   0.408   4.873
23633WAT      O71140   9.492   0.631   4.708
23633WAT     H171141   9.395   0.643   4.732
23633WAT     H271142   9.521   0.708   4.651
23634WAT      O71143   0.761   7.349   7.493
23634WAT     H171144   0.671   7.308   7.508
23634WAT     H271145   0.753   7.425   7.428
23635WAT      O71146   8.108   0.859   2.574
23635WAT     H171147   8.072   0.766   2.570
23635WAT     H271148   8.040   0.919   2.618
23636WAT      O71149   4.057   4.637   8.542
23636WAT     H171150   4.022   4.601   8.628
23636WAT     H271151   4.153   4.609   8.531
23637WAT      O71152   3.154   4.026   9.404
23637WAT     H171153   3.061   4.049   9.373
23637WAT     H271154   3.219   4.091   9.367
23638WAT      O71155   6.499   6.657   9.104
23638WAT     H171156   6.464   6.685   9.015
23638WAT     H271157   6.423   6.626   9.161
23639WAT      O71158   3.140   9.221   1.162
23639WAT     H171159   3.128   9.285   1.238
23639WAT     H271160   3.183   9.137   1.196
23640WAT      O71161   3.327   3.785   6.433
23640WAT     H171162   3.278   3.870   6.452
23640WAT     H271163   3.312   3.721   6.509
23641WAT      O71164   0.244   3.344   5.795
23641WAT     H171165   0.336   3.362   5.761
23641WAT     H271166   0.246   3.341   5.895
23642WAT      O71167   1.805   0.626   6.417
23642WAT     H171168   1.749   0.695   6.462
23642WAT     H271169   1.901   0.651   6.423
23643WAT      O71170   5.803   4.669   2.416
23643WAT     H171171   5.899   4.642   2.406
23643WAT     H271172   5.790   4.713   2.505
23644WAT      O71173   4.957   1.078   9.091
23644WAT     H171174   5.015   0.998   9.080
23644WAT     H271175   4.881   1.056   9.151
23645WAT      O71176   3.880   4.135   2.579
23645WAT     H171177   3.793   4.104   2.618
23645WAT     H271178   3.864   4.173   2.488
23646WAT      O71179   1.688   2.231   0.576
23646WAT     H171180   1.642   2.318   0.596
23646WAT     H271181   1.761   2.216   0.643
23647WAT      O71182   8.584   1.341   1.188
23647WAT     H171183   8.586   1.440   1.168
23647WAT     H271184   8.569   1.327   1.286
23648WAT      O71185   8.717   9.596   8.418
23648WAT     H171186   8.620   9.578   8.401
23648WAT     H271187   8.771   9.516   8.389
23649WAT      O71188   1.151   7.076   7.476
23649WAT     H171189   1.154   7.140   7.553
23649WAT     H271190   1.188   6.988   7.504
23650WAT      O71191   7.464   8.967   2.422
23650WAT     H171192   7.432   8.874   2.403
23650WAT     H271193   7.428   8.997   2.511
23651WAT      O71194   2.113   1.920   9.081
23651WAT     H171195   2.154   1.966   9.003
23651WAT     H271196   2.034   1.973   9.113
23652WAT      O71197   7.879   8.675   1.374
23652WAT     H171198   7.958   8.696   1.317
23652WAT     H271199   7.831   8.596   1.336
23653WAT      O71200   1.283   0.267   2.796
23653WAT     H171201   1.367   0.304   2.835
23653WAT     H271202   1.219   0.243   2.870
23654WAT      O71203   0.791   5.568   0.898
23654WAT     H171204   0.856   5.512   0.846
23654WAT     H271205   0.779   5.656   0.851
23655WAT      O71206   8.903   0.867   7.289
23655WAT     H171207   8.876   0.947   7.236
23655WAT     H271208   8.825   0.835   7.343
23656WAT      O71209   5.989   0.994   9.137
23656WAT     H171210   6.014   1.056   9.062
23656WAT     H271211   5.895   0.962   9.124
23657WAT      O71212   8.606   6.158   3.296
23657WAT     H171213   8.614   6.103   3.380
23657WAT     H271214   8.688   6.145   3.240
23658WAT      O71215   1.818   2.930   5.493
23658WAT     H171216   1.743   2.958   5.432
23658WAT     H271217   1.805   2.834   5.519
23659WAT      O71218   6.612   1.411   9.768
23659WAT     H171219   6.602   1.347   9.692
23659WAT     H271220   6.702   1.455   9.763
23660WAT      O71221   8.403   1.372   3.340
23660WAT     H171222   8.395   1.381   3.440
23660WAT     H271223   8.408   1.462   3.299
23661WAT      O71224   4.714   2.644   6.244
23661WAT     H171225   4.681   2.635   6.338
23661WAT     H271226   4.763   2.731   6.234
23662WAT      O71227   2.859   4.912   5.212
23662WAT     H171228   2.769   4.942   5.244
23662WAT     H271229   2.922   4.990   5.213
23663WAT      O71230   1.354   8.349   6.431
23663WAT     H171231   1.394   8.271   6.480
23663WAT     H271232   1.388   8.350   6.336
23664WAT      O71233   0.984   5.529   6.412
23664WAT     H171234   0.915   5.462   6.383
23664WAT     H271235   0.942   5.619   6.417
23665WAT      O71236   0.193   1.657   3.578
23665WAT     H171237   0.176   1.753   3.556
23665WAT     H271238   0.267   1.650   3.645
23666WAT      O71239   1.218   6.454   5.024
23666WAT     H171240   1.302   6.424   5.068
23666WAT     H271241   1.211   6.414   4.932
23667WAT      O71242   2.732   0.420   5.186
23667WAT     H171243   2.780   0.461   5.264
23667WAT     H271244   2.773   0.331   5.165
23668WAT      O71245   1.661   3.448   3.027
23668WAT     H171246   1.654   3.490   2.937
23668WAT     H271247   1.629   3.512   3.097
23669WAT      O71248   8.818   5.503   2.076
23669WAT     H171249   8.729   5.548   2.086
23669WAT     H271250   8.860   5.492   2.166
23670WAT      O71251   9.125   9.173   5.110
23670WAT     H171252   9.041   9.163   5.058
23670WAT     H271253   9.110   9.237   5.186
23671WAT      O71254   1.307   2.875   9.178
23671WAT     H171255   1.267   2.875   9.269
23671WAT     H271256   1.261   2.807   9.121
23672WAT      O71257   6.223   7.890   7.675
23672WAT     H171258   6.277   7.974   7.668
23672WAT     H271259   6.153   7.890   7.603
23673WAT      O71260   7.447   8.642   1.326
23673WAT     H171261   7.376   8.600   1.269
23673WAT     H271262   7.533   8.592   1.314
23674WAT      O71263   8.094   9.312   4.893
23674WAT     H171264   8.148   9.366   4.829
23674WAT     H271265   8.060   9.230   4.847
23675WAT      O71266   0.048   1.551   4.512
23675WAT     H171267  -0.001   1.635   4.534
23675WAT     H271268   0.137   1.552   4.558
23676WAT      O71269   5.757   0.739   2.778
23676WAT     H171270   5.670   0.708   2.817
23676WAT     H271271   5.821   0.662   2.773
23677WAT      O71272   9.671   1.643   8.963
23677WAT     H171273   9.592   1.590   8.995
23677WAT     H271274   9.643   1.700   8.886
23678WAT      O71275   5.386   1.459   9.421
23678WAT     H171276   5.330   1.540   9.441
23678WAT     H271277   5.370   1.390   9.492
23679WAT      O71278   1.299   5.934   9.512
23679WAT     H171279   1.228   5.864   9.511
23679WAT     H271280   1.384   5.894   9.548
23680WAT      O71281   9.675   6.339   2.748
23680WAT     H171282   9.686   6.249   2.791
23680WAT     H271283   9.587   6.378   2.776
23681WAT      O71284   1.610   7.004   4.970
23681WAT     H171285   1.699   7.037   4.940
23681WAT     H271286   1.547   7.005   4.893
23682WAT      O71287   3.621   2.408   3.688
23682WAT     H171288   3.676   2.340   3.736
23682WAT     H271289   3.536   2.424   3.738
23683WAT      O71290   3.411   5.522   7.393
23683WAT     H171291   3.469   5.476   7.326
23683WAT     H271292   3.321   5.538   7.354
23684WAT      O71293   0.215   2.627   2.724
23684WAT     H171294   0.186   2.538   2.758
23684WAT     H271295   0.305   2.619   2.682
23685WAT      O71296   7.032   9.377   4.680
23685WAT     H171297   7.076   9.304   4.731
23685WAT     H271298   7.087   9.399   4.599
23686WAT      O71299   5.568   0.620   5.587
23686WAT     H171300   5.616   0.607   5.674
23686WAT     H271301   5.630   0.597   5.511
23687WAT      O71302   7.107   7.480   2.814
23687WAT     H171303   7.071   7.405   2.760
23687WAT     H271304   7.049   7.495   2.894
23688WAT      O71305   5.904   2.601   6.336
23688WAT     H171306   5.949   2.516   6.309
23688WAT     H271307   5.932   2.626   6.429
23689WAT      O71308   0.189   2.626   8.103
23689WAT     H171309   0.206   2.722   8.082
23689WAT     H271310   0.221   2.569   8.028
23690WAT      O71311   7.109   6.478   7.429
23690WAT     H171312   7.079   6.458   7.336
23690WAT     H271313   7.191   6.425   7.450
23691WAT      O71314   7.513   4.877   1.022
23691WAT     H171315   7.525   4.778   1.030
23691WAT     H271316   7.569   4.923   1.091
23692WAT      O71317   1.749   5.732   0.829
23692WAT     H171318   1.806   5.716   0.909
23692WAT     H271319   1.803   5.775   0.757
23693WAT      O71320   5.161   3.511   6.318
23693WAT     H171321   5.119   3.599   6.295
23693WAT     H271322   5.162   3.453   6.237
23694WAT      O71323   7.683   0.096   2.187
23694WAT     H171324   7.639   0.172   2.139
23694WAT     H271325   7.632   0.011   2.169
23695WAT      O71326   7.531   2.575   1.311
23695WAT     H171327   7.589   2.596   1.231
23695WAT     H271328   7.438   2.556   1.281
23696WAT      O71329   0.622   0.319   5.257
23696WAT     H171330   0.691   0.284   5.193
23696WAT     H271331   0.559   0.245   5.280
23697WAT      O71332   5.431   8.433   3.226
23697WAT     H171333   5.388   8.516   3.261
23697WAT     H271334   5.486   8.392   3.299
23698WAT      O71335   7.016   4.322   1.712
23698WAT     H171336   6.963   4.327   1.797
23698WAT     H271337   7.047   4.413   1.686
23699WAT      O71338   8.125   1.627   8.541
23699WAT     H171339   8.094   1.576   8.461
23699WAT     H271340   8.209   1.676   8.519
23700WAT      O71341   7.786   7.658   6.252
23700WAT     H171342   7.732   7.600   6.190
23700WAT     H271343   7.727   7.729   6.290
23701WAT      O71344   2.538   6.187   5.937
23701WAT     H171345   2.451   6.139   5.949
23701WAT     H271346   2.613   6.120   5.936
23702WAT      O71347   4.601   1.227   8.866
23702WAT     H171348   4.512   1.231   8.820
23702WAT     H271349   4.593   1.174   8.950
23703WAT      O71350   7.280   7.544   6.011
23703WAT     H171351   7.342   7.567   6.085
23703WAT     H271352   7.251   7.627   5.964
23704WAT      O71353   0.098   8.747   2.426
23704WAT     H171354   0.179   8.786   2.470
23704WAT     H271355   0.031   8.721   2.496
23705WAT      O71356   3.252   0.519   6.610
23705WAT     H171357   3.333   0.505   6.667
23705WAT     H271358   3.234   0.617   6.602
23706WAT      O71359   3.239   5.793   8.376
23706WAT     H171360   3.262   5.886   8.404
23706WAT     H271361   3.310   5.730   8.408
23707WAT      O71362   4.816   1.865   7.997
23707WAT     H171363   4.752   1.900   8.065
23707WAT     H271364   4.857   1.780   8.031
23708WAT      O71365   7.550   3.634   2.571
23708WAT     H171366   7.584   3.586   2.652
23708WAT     H271367   7.615   3.622   2.496
23709WAT      O71368   8.333   8.648   7.171
23709WAT     H171369   8.329   8.709   7.093
23709WAT     H271370   8.399   8.683   7.238
23710WAT      O71371   3.509   1.060   4.333
23710WAT     H171372   3.421   1.020   4.359
23710WAT     H271373   3.583   1.010   4.376
23711WAT      O71374   9.027   1.254   8.863
23711WAT     H171375   9.009   1.245   8.960
23711WAT     H271376   8.957   1.312   8.821
23712WAT      O71377   9.512   4.935   7.308
23712WAT     H171378   9.477   4.955   7.400
23712WAT     H271379   9.477   5.003   7.244
23713WAT      O71380   7.258   6.711   0.161
23713WAT     H171381   7.327   6.756   0.104
23713WAT     H271382   7.303   6.666   0.239
23714WAT      O71383   9.634   6.539   6.544
23714WAT     H171384   9.648   6.467   6.476
23714WAT     H271385   9.720   6.561   6.589
23715WAT      O71386   4.352   3.892   9.384
23715WAT     H171387   4.396   3.958   9.324
23715WAT     H271388   4.420   3.831   9.424
23716WAT      O71389   1.086   2.452   5.888
23716WAT     H171390   1.006   2.500   5.853
23716WAT     H271391   1.162   2.516   5.899
23717WAT      O71392   9.496   6.528   2.887
23717WAT     H171393   9.525   6.610   2.937
23717WAT     H271394   9.426   6.480   2.940
23718WAT      O71395   0.963   0.856   4.838
23718WAT     H171396   0.905   0.880   4.760
23718WAT     H271397   0.945   0.919   4.914
23719WAT      O71398   7.857   1.688   9.458
23719WAT     H171399   7.761   1.714   9.444
23719WAT     H271400   7.916   1.749   9.406
23720WAT      O71401   6.200   1.151   8.073
23720WAT     H171402   6.252   1.229   8.038
23720WAT     H271403   6.219   1.070   8.019
23721WAT      O71404   7.618   1.061   1.465
23721WAT     H171405   7.561   0.985   1.432
23721WAT     H271406   7.571   1.107   1.541
23722WAT      O71407   9.503   8.157   6.093
23722WAT     H171408   9.499   8.158   6.193
23722WAT     H271409   9.581   8.102   6.063
23723WAT      O71410   8.223   9.501   3.089
23723WAT     H171411   8.154   9.439   3.054
23723WAT     H271412   8.190   9.596   3.081
23724WAT      O71413   6.426   2.112   0.221
23724WAT     H171414   6.484   2.127   0.141
23724WAT     H271415   6.475   2.059   0.289
23725WAT      O71416   0.877   5.128   0.747
23725WAT     H171417   0.900   5.034   0.774
23725WAT     H271418   0.825   5.127   0.662
23726WAT      O71419   4.148   6.727   6.427
23726WAT     H171420   4.186   6.639   6.397
23726WAT     H271421   4.117   6.718   6.522
23727WAT      O71422   6.126   1.519   7.799
23727WAT     H171423   6.115   1.618   7.787
23727WAT     H271424   6.162   1.479   7.715
23728WAT      O71425   4.929   4.696   7.533
23728WAT     H171426   4.876   4.633   7.588
23728WAT     H271427   4.943   4.657   7.442
23729WAT      O71428   1.929   9.466   7.732
23729WAT     H171429   1.919   9.396   7.661
23729WAT     H271430   1.841   9.480   7.778
23730WAT      O71431   7.491   6.434   0.245
23730WAT     H171432   7.524   6.468   0.157
23730WAT     H271433   7.493   6.508   0.312
23731WAT      O71434   9.826   1.463   7.906
23731WAT     H171435   9.747   1.515   7.873
23731WAT     H271436   9.839   1.481   8.004
23732WAT      O71437   9.533   4.447   1.656
23732WAT     H171438   9.560   4.543   1.667
23732WAT     H271439   9.571   4.412   1.571
23733WAT      O71440   8.180   0.554   1.150
23733WAT     H171441   8.201   0.640   1.197
23733WAT     H271442   8.102   0.510   1.196
23734WAT      O71443   8.022   4.351   5.682
23734WAT     H171444   8.059   4.260   5.663
23734WAT     H271445   8.027   4.407   5.599
23735WAT      O71446   4.044   0.167   5.102
23735WAT     H171447   3.993   0.151   5.186
23735WAT     H271448   4.142   0.159   5.120
23736WAT      O71449   6.563   8.387   4.670
23736WAT     H171450   6.567   8.299   4.718
23736WAT     H271451   6.622   8.383   4.590
23737WAT      O71452   1.196   5.855   7.073
23737WAT     H171453   1.222   5.840   7.168
23737WAT     H271454   1.147   5.775   7.039
23738WAT      O71455   1.489   8.188   0.630
23738WAT     H171456   1.452   8.226   0.545
23738WAT     H271457   1.445   8.100   0.649
23739WAT      O71458   6.181   3.548   8.848
23739WAT     H171459   6.182   3.502   8.937
23739WAT     H271460   6.128   3.492   8.783
23740WAT      O71461   7.394   3.687   8.664
23740WAT     H171462   7.299   3.656   8.675
23740WAT     H271463   7.403   3.738   8.579
23741WAT      O71464   6.012   3.036   9.319
23741WAT     H171465   6.093   3.044   9.378
23741WAT     H271466   6.028   2.965   9.251
23742WAT      O71467   1.903   7.850   0.695
23742WAT     H171468   1.886   7.947   0.680
23742WAT     H271469   2.001   7.836   0.711
23743WAT      O71470   1.692   4.360   1.905
23743WAT     H171471   1.770   4.398   1.855
23743WAT     H271472   1.718   4.345   2.000
23744WAT      O71473   0.914   3.755   2.774
23744WAT     H171474   1.014   3.764   2.765
23744WAT     H271475   0.888   3.769   2.870
23745WAT      O71476   6.469   3.101   7.448
23745WAT     H171477   6.470   3.027   7.381
23745WAT     H271478   6.533   3.172   7.420
23746WAT      O71479   7.350   4.831   1.739
23746WAT     H171480   7.297   4.848   1.822
23746WAT     H271481   7.444   4.808   1.764
23747WAT      O71482   4.127   9.623   4.466
23747WAT     H171483   4.082   9.540   4.432
23747WAT     H271484   4.132   9.691   4.393
23748WAT      O71485   7.679   1.843   5.315
23748WAT     H171486   7.737   1.909   5.363
23748WAT     H271487   7.601   1.819   5.373
23749WAT      O71488   2.214   5.892   7.987
23749WAT     H171489   2.207   5.854   7.895
23749WAT     H271490   2.267   5.977   7.983
23750WAT      O71491   3.613   8.289   2.531
23750WAT     H171492   3.640   8.283   2.627
23750WAT     H271493   3.674   8.351   2.482
23751WAT      O71494   5.597   3.739   9.823
23751WAT     H171495   5.680   3.775   9.866
23751WAT     H271496   5.521   3.803   9.838
23752WAT      O71497   2.406   9.689   0.685
23752WAT     H171498   2.362   9.649   0.765
23752WAT     H271499   2.490   9.639   0.664
23753WAT      O71500   2.427   1.932   3.704
23753WAT     H171501   2.415   1.855   3.767
23753WAT     H271502   2.338   1.969   3.679
23754WAT      O71503   1.906   5.327   3.048
23754WAT     H171504   1.808   5.347   3.047
23754WAT     H271505   1.937   5.314   2.954
23755WAT      O71506   1.568   5.988   6.481
23755WAT     H171507   1.494   6.045   6.445
23755WAT     H271508   1.656   6.025   6.451
23756WAT      O71509   4.073   9.781   8.867
23756WAT     H171510   4.013   9.722   8.813
23756WAT     H271511   4.067   9.875   8.834
23757WAT      O71512   5.039   7.915   9.607
23757WAT     H171513   5.003   7.961   9.526
23757WAT     H271514   5.123   7.866   9.583
23758WAT      O71515   1.579   5.655   5.617
23758WAT     H171516   1.634   5.738   5.624
23758WAT     H271517   1.498   5.673   5.562
23759WAT      O71518   3.172   3.203   9.789
23759WAT     H171519   3.260   3.249   9.773
23759WAT     H271520   3.104   3.239   9.725
23760WAT      O71521   3.726   0.999   9.290
23760WAT     H171522   3.635   0.963   9.308
23760WAT     H271523   3.726   1.098   9.302
23761WAT      O71524   2.015   8.003   4.852
23761WAT     H171525   2.106   8.011   4.892
23761WAT     H271526   1.987   8.093   4.816
23762WAT      O71527   6.850   5.053   8.783
23762WAT     H171528   6.854   5.023   8.878
23762WAT     H271529   6.942   5.077   8.751
23763WAT      O71530   1.271   4.783   5.680
23763WAT     H171531   1.230   4.854   5.624
23763WAT     H271532   1.370   4.798   5.685
23764WAT      O71533   7.177   5.386   2.688
23764WAT     H171534   7.170   5.424   2.596
23764WAT     H271535   7.205   5.290   2.681
23765WAT      O71536   7.572   3.828   6.460
23765WAT     H171537   7.566   3.739   6.507
23765WAT     H271538   7.481   3.856   6.431
23766WAT      O71539   6.173   0.419   8.370
23766WAT     H171540   6.199   0.486   8.439
23766WAT     H271541   6.133   0.339   8.414
23767WAT      O71542   3.519   5.390   8.886
23767WAT     H171543   3.536   5.423   8.979
23767WAT     H271544   3.565   5.302   8.873
23768WAT      O71545   9.468   3.016   5.762
23768WAT     H171546   9.469   3.086   5.834
23768WAT     H271547   9.383   2.964   5.767
23769WAT      O71548   7.765   8.465   7.690
23769WAT     H171549   7.752   8.563   7.677
23769WAT     H271550   7.709   8.415   7.624
23770WAT      O71551   9.419   0.149   3.725
23770WAT     H171552   9.329   0.121   3.693
23770WAT     H271553   9.472   0.068   3.751
23771WAT      O71554   1.130   9.397   0.764
23771WAT     H171555   1.115   9.488   0.803
23771WAT     H271556   1.100   9.397   0.668
23772WAT      O71557   9.249   2.602   1.002
23772WAT     H171558   9.174   2.662   1.030
23772WAT     H271559   9.264   2.532   1.072
23773WAT      O71560   6.043   3.306   0.931
23773WAT     H171561   6.025   3.240   0.858
23773WAT     H271562   5.967   3.370   0.938
23774WAT      O71563   8.770   0.524   6.770
23774WAT     H171564   8.720   0.605   6.738
23774WAT     H271565   8.769   0.522   6.870
23775WAT      O71566   1.281   3.677   7.514
23775WAT     H171567   1.282   3.590   7.463
23775WAT     H271568   1.205   3.733   7.482
23776WAT      O71569   1.855   3.261   7.873
23776WAT     H171570   1.894   3.354   7.869
23776WAT     H271571   1.884   3.216   7.957
23777WAT      O71572   8.220   2.406   3.911
23777WAT     H171573   8.185   2.442   3.997
23777WAT     H271574   8.215   2.306   3.912
23778WAT      O71575   9.173   5.556   6.105
23778WAT     H171576   9.222   5.552   6.018
23778WAT     H271577   9.235   5.529   6.179
23779WAT      O71578   0.346   0.774   0.452
23779WAT     H171579   0.307   0.863   0.477
23779WAT     H271580   0.434   0.763   0.498
23780WAT      O71581   6.434   2.058   1.804
23780WAT     H171582   6.410   1.966   1.774
23780WAT     H271583   6.369   2.124   1.766
23781WAT      O71584   1.165   4.545   5.382
23781WAT     H171585   1.125   4.600   5.307
23781WAT     H271586   1.095   4.528   5.451
23782WAT      O71587   9.000   8.201   2.658
23782WAT     H171588   8.994   8.300   2.643
23782WAT     H271589   8.919   8.157   2.622
23783WAT      O71590   3.616   5.084   1.403
23783WAT     H171591   3.691   5.150   1.407
23783WAT     H271592   3.627   5.017   1.476
23784WAT      O71593   0.277   9.397   8.000
23784WAT     H171594   0.180   9.379   7.990
23784WAT     H271595   0.299   9.410   8.097
23785WAT      O71596   0.282   0.112   3.440
23785WAT     H171597   0.308   0.206   3.462
23785WAT     H271598   0.362   0.064   3.403
23786WAT      O71599   1.932   6.977   3.988
23786WAT     H171600   1.850   7.023   3.954
23786WAT     H271601   2.000   6.973   3.914
23787WAT      O71602   5.623   5.149   0.914
23787WAT     H171603   5.605   5.107   1.003
23787WAT     H271604   5.541   5.145   0.858
23788WAT      O71605   2.778   4.141   7.532
23788WAT     H171606   2.755   4.103   7.443
23788WAT     H271607   2.821   4.070   7.588
23789WAT      O71608   0.566   8.944   4.681
23789WAT     H171609   0.648   9.000   4.692
23789WAT     H271610   0.590   8.848   4.695
23790WAT      O71611   1.021   4.366   7.486
23790WAT     H171612   0.963   4.417   7.549
23790WAT     H271613   1.051   4.426   7.412
23791WAT      O71614   3.229   2.149   2.262
23791WAT     H171615   3.266   2.133   2.353
23791WAT     H271616   3.276   2.227   2.220
23792WAT      O71617   2.310   2.460   6.942
23792WAT     H171618   2.302   2.559   6.933
23792WAT     H271619   2.334   2.436   7.036
23793WAT      O71620   6.278   8.808   3.702
23793WAT     H171621   6.374   8.792   3.724
23793WAT     H271622   6.265   8.904   3.676
23794WAT      O71623   4.074   5.862   3.077
23794WAT     H171624   3.984   5.904   3.064
23794WAT     H271625   4.136   5.929   3.119
23795WAT      O71626   5.371   5.457   9.073
23795WAT     H171627   5.293   5.476   9.013
23795WAT     H271628   5.347   5.476   9.168
23796WAT      O71629   9.123   0.026   3.173
23796WAT     H171630   9.106   0.042   3.270
23796WAT     H271631   9.036   0.014   3.125
23797WAT      O71632   2.827   6.450   6.611
23797WAT     H171633   2.882   6.478   6.532
23797WAT     H271634   2.857   6.501   6.691
23798WAT      O71635   8.647   9.391   9.151
23798WAT     H171636   8.693   9.365   9.236
23798WAT     H271637   8.650   9.490   9.139
23799WAT      O71638   4.220   6.622   1.290
23799WAT     H171639   4.221   6.657   1.196
23799WAT     H271640   4.296   6.661   1.341
23800WAT      O71641   9.353   5.537   4.779
23800WAT     H171642   9.320   5.533   4.685
23800WAT     H271643   9.346   5.447   4.821
23801WAT      O71644   3.416   2.702   2.237
23801WAT     H171645   3.469   2.645   2.301
23801WAT     H271646   3.426   2.798   2.263
23802WAT      O71647   0.882   4.814   7.639
23802WAT     H171648   0.865   4.766   7.553
23802WAT     H271649   0.797   4.857   7.670
23803WAT      O71650   7.325   5.699   6.776
23803WAT     H171651   7.371   5.747   6.702
23803WAT     H271652   7.244   5.750   6.804
23804WAT      O71653   5.280   4.979   5.964
23804WAT     H171654   5.200   5.039   5.969
23804WAT     H271655   5.252   4.889   5.930
23805WAT      O71656   8.250   7.056   3.792
23805WAT     H171657   8.171   7.112   3.819
23805WAT     H271658   8.331   7.087   3.841
23806WAT      O71659   9.162   3.964   7.168
23806WAT     H171660   9.167   3.864   7.156
23806WAT     H271661   9.226   3.992   7.239
23807WAT      O71662   1.209   8.335   0.091
23807WAT     H171663   1.129   8.354   0.035
23807WAT     H271664   1.189   8.261   0.156
23808WAT      O71665   6.949   1.082   0.134
23808WAT     H171666   7.030   1.041   0.176
23808WAT     H271667   6.913   1.153   0.193
23809WAT      O71668   2.327   2.659   7.536
23809WAT     H171669   2.349   2.752   7.565
23809WAT     H271670   2.260   2.620   7.598
23810WAT      O71671   8.555   6.959   5.393
23810WAT     H171672   8.497   6.877   5.399
23810WAT     H271673   8.545   7.000   5.303
23811WAT      O71674   2.712   0.923   3.718
23811WAT     H171675   2.787   0.857   3.730
23811WAT     H271676   2.729   0.977   3.636
23812WAT      O71677   4.746   4.594   0.138
23812WAT     H171678   4.815   4.661   0.165
23812WAT     H271679   4.655   4.627   0.164
23813WAT      O71680   0.530   9.289   7.476
23813WAT     H171681   0.527   9.341   7.562
23813WAT     H271682   0.616   9.239   7.470
23814WAT      O71683   6.154   7.258   4.764
23814WAT     H171684   6.246   7.289   4.742
23814WAT     H271685   6.109   7.326   4.822
23815WAT      O71686   2.979   5.887   9.680
23815WAT     H171687   2.936   5.799   9.700
23815WAT     H271688   3.047   5.908   9.750
23816WAT      O71689   8.006   1.041   5.422
23816WAT     H171690   7.972   1.132   5.397
23816WAT     H271691   8.106   1.039   5.410
23817WAT      O71692   2.435   2.960   6.532
23817WAT     H171693   2.360   3.012   6.490
23817WAT     H271694   2.521   3.009   6.517
23818WAT      O71695   3.386   5.607   6.369
23818WAT     H171696   3.464   5.666   6.388
23818WAT     H271697   3.378   5.538   6.441
23819WAT      O71698   5.236   6.426   8.209
23819WAT     H171699   5.303   6.428   8.283
23819WAT     H271700   5.156   6.372   8.237
23820WAT      O71701   4.022   0.340   3.443
23820WAT     H171702   4.010   0.439   3.449
23820WAT     H271703   4.051   0.304   3.531
23821WAT      O71704   7.166   6.376   5.428
23821WAT     H171705   7.240   6.308   5.430
23821WAT     H271706   7.157   6.417   5.519
23822WAT      O71707   3.577   5.780   4.132
23822WAT     H171708   3.551   5.871   4.163
23822WAT     H271709   3.675   5.766   4.148
23823WAT      O71710   1.924   1.678   9.229
23823WAT     H171711   1.849   1.743   9.214
23823WAT     H271712   1.973   1.662   9.144
23824WAT      O71713   9.164   7.898   8.424
23824WAT     H171714   9.096   7.956   8.378
23824WAT     H271715   9.143   7.896   8.522
23825WAT      O71716   8.697   8.411   0.316
23825WAT     H171717   8.776   8.352   0.295
23825WAT     H271718   8.718   8.467   0.396
23826WAT      O71719   8.349   1.901   4.562
23826WAT     H171720   8.323   1.989   4.602
23826WAT     H271721   8.416   1.856   4.620
23827WAT      O71722   7.059   1.608   4.021
23827WAT     H171723   7.117   1.612   3.940
23827WAT     H271724   6.997   1.530   4.013
23828WAT      O71725   1.934   4.436   9.819
23828WAT     H171726   1.960   4.532   9.817
23828WAT     H271727   1.935   4.403   9.914
23829WAT      O71728   6.069   0.223   2.218
23829WAT     H171729   5.984   0.182   2.251
23829WAT     H271730   6.091   0.303   2.274
23830WAT      O71731   4.655   9.585   6.047
23830WAT     H171732   4.591   9.651   6.006
23830WAT     H271733   4.682   9.518   5.978
23831WAT      O71734   3.243   3.775   6.158
23831WAT     H171735   3.296   3.749   6.239
23831WAT     H271736   3.179   3.701   6.135
23832WAT      O71737   6.206   3.888   6.414
23832WAT     H171738   6.219   3.978   6.456
23832WAT     H271739   6.295   3.844   6.402
23833WAT      O71740   4.478   3.383   5.414
23833WAT     H171741   4.491   3.330   5.497
23833WAT     H271742   4.558   3.440   5.397
23834WAT      O71743   4.702   9.530   0.083
23834WAT     H171744   4.722   9.466   0.009
23834WAT     H271745   4.705   9.623   0.048
23835WAT      O71746   5.181   7.548   0.937
23835WAT     H171747   5.115   7.576   0.868
23835WAT     H271748   5.260   7.506   0.892
23836WAT      O71749   5.350   2.367   0.368
23836WAT     H171750   5.256   2.381   0.402
23836WAT     H271751   5.413   2.418   0.426
23837WAT      O71752   8.717   8.320   5.490
23837WAT     H171753   8.753   8.255   5.423
23837WAT     H271754   8.638   8.280   5.536
23838WAT      O71755   5.084   4.066   4.669
23838WAT     H171756   4.987   4.057   4.647
23838WAT     H271757   5.100   4.154   4.714
23839WAT      O71758   1.435   7.023   4.773
23839WAT     H171759   1.463   6.940   4.726
23839WAT     H271760   1.437   7.100   4.710
23840WAT      O71761   1.784   2.631   5.519
23840WAT     H171762   1.823   2.569   5.586
23840WAT     H271763   1.779   2.585   5.430
23841WAT      O71764   8.382   5.009   1.670
23841WAT     H171765   8.294   5.023   1.626
23841WAT     H271766   8.389   4.915   1.703
23842WAT      O71767   6.786   3.801   5.301
23842WAT     H171768   6.878   3.789   5.338
23842WAT     H271769   6.770   3.732   5.230
23843WAT      O71770   7.554   4.073   8.423
23843WAT     H171771   7.616   3.994   8.421
23843WAT     H271772   7.459   4.042   8.415
23844WAT      O71773   2.990   9.141   6.995
23844WAT     H171774   2.984   9.184   6.905
23844WAT     H271775   3.077   9.166   7.038
23845WAT      O71776   4.960   2.106   1.222
23845WAT     H171777   4.988   2.157   1.303
23845WAT     H271778   5.040   2.065   1.179
23846WAT      O71779   5.936   0.154   1.235
23846WAT     H171780   6.020   0.186   1.190
23846WAT     H271781   5.957   0.073   1.289
23847WAT      O71782   9.185   0.836   1.584
23847WAT     H171783   9.142   0.926   1.579
23847WAT     H271784   9.149   0.778   1.511
23848WAT      O71785   3.307   8.403   1.832
23848WAT     H171786   3.352   8.467   1.894
23848WAT     H271787   3.226   8.365   1.876
23849WAT      O71788   3.229   1.989   2.711
23849WAT     H171789   3.255   1.945   2.797
23849WAT     H271790   3.206   1.918   2.644
23850WAT      O71791   6.634   4.987   6.281
23850WAT     H171792   6.656   4.930   6.360
23850WAT     H271793   6.576   4.937   6.217
23851WAT      O71794   2.560   5.931   3.734
23851WAT     H171795   2.533   5.974   3.820
23851WAT     H271796   2.585   6.001   3.668
23852WAT      O71797   0.079   2.069   7.012
23852WAT     H171798   0.061   2.158   6.969
23852WAT     H271799   0.167   2.033   6.979
23853WAT      O71800   1.244   9.638   6.749
23853WAT     H171801   1.202   9.677   6.831
23853WAT     H271802   1.341   9.619   6.767
23854WAT      O71803   2.663   4.192   3.820
23854WAT     H171804   2.667   4.250   3.901
23854WAT     H271805   2.630   4.246   3.742
23855WAT      O71806   9.203   0.331   5.460
23855WAT     H171807   9.242   0.327   5.368
23855WAT     H271808   9.220   0.245   5.507
23856WAT      O71809   9.769   1.485   7.543
23856WAT     H171810   9.676   1.462   7.570
23856WAT     H271811   9.767   1.560   7.477
23857WAT      O71812   1.990   3.888   8.261
23857WAT     H171813   1.955   3.850   8.347
23857WAT     H271814   2.089   3.875   8.257
23858WAT      O71815   2.338   7.763   1.575
23858WAT     H171816   2.277   7.771   1.496
23858WAT     H271817   2.328   7.673   1.617
23859WAT      O71818   7.966   0.286   9.196
23859WAT     H171819   7.904   0.350   9.241
23859WAT     H271820   7.927   0.194   9.197
23860WAT      O71821   8.276   4.447   4.150
23860WAT     H171822   8.245   4.480   4.061
23860WAT     H271823   8.209   4.383   4.187
23861WAT      O71824   9.177   0.839   9.479
23861WAT     H171825   9.225   0.909   9.427
23861WAT     H271826   9.101   0.803   9.425
23862WAT      O71827   3.805   1.582   8.958
23862WAT     H171828   3.735   1.552   8.894
23862WAT     H271829   3.860   1.655   8.917
23863WAT      O71830   3.458   9.213   2.006
23863WAT     H171831   3.465   9.214   2.106
23863WAT     H271832   3.365   9.237   1.979
23864WAT      O71833   1.738   6.422   1.013
23864WAT     H171834   1.700   6.486   0.947
23864WAT     H271835   1.663   6.379   1.064
23865WAT      O71836   5.777   5.481   4.681
23865WAT     H171837   5.701   5.524   4.633
23865WAT     H271838   5.863   5.520   4.650
23866WAT      O71839   2.168   1.488   5.275
23866WAT     H171840   2.144   1.434   5.356
23866WAT     H271841   2.167   1.429   5.194
23867WAT      O71842   6.402   4.962   8.436
23867WAT     H171843   6.495   4.980   8.405
23867WAT     H271844   6.378   4.868   8.415
23868WAT      O71845   1.665   8.768   9.321
23868WAT     H171846   1.695   8.815   9.405
23868WAT     H271847   1.600   8.826   9.272
23869WAT      O71848   0.283   2.416   5.146
23869WAT     H171849   0.317   2.455   5.231
23869WAT     H271850   0.359   2.381   5.092
23870WAT      O71851   8.218   3.771   3.815
23870WAT     H171852   8.192   3.675   3.803
23870WAT     H271853   8.284   3.796   3.744
23871WAT      O71854   9.877   8.012   6.493
23871WAT     H171855   9.845   7.948   6.423
23871WAT     H271856   9.854   8.105   6.466
23872WAT      O71857   8.952   2.400   9.423
23872WAT     H171858   8.938   2.491   9.461
23872WAT     H271859   9.014   2.349   9.483
23873WAT      O71860   7.623   2.549   4.903
23873WAT     H171861   7.538   2.530   4.853
23873WAT     H271862   7.694   2.484   4.874
23874WAT      O71863   0.704   6.664   7.687
23874WAT     H171864   0.607   6.649   7.669
23874WAT     H271865   0.713   6.730   7.762
23875WAT      O71866   8.468   0.101   8.349
23875WAT     H171867   8.511   0.175   8.402
23875WAT     H271868   8.449   0.024   8.410
23876WAT      O71869   6.880   2.262   8.724
23876WAT     H171870   6.816   2.333   8.754
23876WAT     H271871   6.829   2.178   8.706
23877WAT      O71872   4.730   4.862   3.212
23877WAT     H171873   4.752   4.824   3.122
23877WAT     H271874   4.806   4.847   3.275
23878WAT      O71875   8.859   3.512   2.508
23878WAT     H171876   8.814   3.549   2.589
23878WAT     H271877   8.897   3.422   2.530
23879WAT      O71878   0.671   9.678   0.249
23879WAT     H171879   0.612   9.664   0.169
23879WAT     H271880   0.706   9.772   0.249
23880WAT      O71881   9.459   9.363   8.216
23880WAT     H171882   9.557   9.354   8.235
23880WAT     H271883   9.446   9.410   8.129
23881WAT      O71884   4.114   2.650   5.125
23881WAT     H171885   4.166   2.570   5.095
23881WAT     H271886   4.117   2.720   5.054
23882WAT      O71887   6.169   0.504   7.354
23882WAT     H171888   6.121   0.579   7.398
23882WAT     H271889   6.129   0.487   7.264
23883WAT      O71890   0.776   6.873   6.518
23883WAT     H171891   0.866   6.917   6.517
23883WAT     H271892   0.740   6.874   6.611
23884WAT      O71893   5.343   9.796   5.676
23884WAT     H171894   5.403   9.735   5.624
23884WAT     H271895   5.387   9.885   5.687
23885WAT      O71896   6.627   9.013   2.427
23885WAT     H171897   6.685   9.070   2.370
23885WAT     H271898   6.674   8.928   2.450
23886WAT      O71899   0.385   1.292   8.349
23886WAT     H171900   0.472   1.261   8.311
23886WAT     H271901   0.311   1.268   8.286
23887WAT      O71902   9.373   9.761   1.826
23887WAT     H171903   9.449   9.822   1.805
23887WAT     H271904   9.407   9.671   1.850
23888WAT      O71905   0.286   0.291   9.226
23888WAT     H171906   0.362   0.289   9.291
23888WAT     H271907   0.212   0.347   9.262
23889WAT      O71908   7.107   9.300   0.569
23889WAT     H171909   7.142   9.259   0.484
23889WAT     H271910   7.135   9.244   0.647
23890WAT      O71911   2.148   3.058   2.061
23890WAT     H171912   2.151   3.038   1.963
23890WAT     H271913   2.240   3.059   2.098
23891WAT      O71914   2.847   3.959   7.722
23891WAT     H171915   2.875   3.872   7.682
23891WAT     H271916   2.886   3.969   7.813
23892WAT      O71917   4.748   7.535   9.663
23892WAT     H171918   4.709   7.488   9.742
23892WAT     H271919   4.769   7.630   9.687
23893WAT      O71920   2.428   6.378   2.282
23893WAT     H171921   2.457   6.289   2.315
23893WAT     H271922   2.344   6.369   2.228
23894WAT      O71923   8.973   8.699   5.573
23894WAT     H171924   8.875   8.692   5.593
23894WAT     H271925   8.987   8.773   5.507
23895WAT      O71926   5.076   3.947   5.739
23895WAT     H171927   4.982   3.960   5.773
23895WAT     H271928   5.102   3.852   5.750
23896WAT      O71929   0.881   5.447   9.867
23896WAT     H171930   0.800   5.476   9.816
23896WAT     H271931   0.961   5.492   9.829
23897WAT      O71932   1.928   7.057   2.133
23897WAT     H171933   1.863   7.098   2.070
23897WAT     H271934   1.887   6.977   2.177
23898WAT      O71935   0.510   6.741   9.032
23898WAT     H171936   0.417   6.757   8.996
23898WAT     H271937   0.569   6.817   9.005
23899WAT      O71938   4.949   1.193   7.057
23899WAT     H171939   5.015   1.266   7.038
23899WAT     H271940   4.945   1.177   7.156
23900WAT      O71941   6.771   2.583   5.737
23900WAT     H171942   6.857   2.588   5.686
23900WAT     H271943   6.695   2.577   5.672
23901WAT      O71944   2.757   5.231   8.750
23901WAT     H171945   2.704   5.151   8.723
23901WAT     H271946   2.712   5.313   8.715
23902WAT      O71947   8.633   6.672   5.608
23902WAT     H171948   8.645   6.593   5.668
23902WAT     H271949   8.710   6.678   5.545
23903WAT      O71950   7.460   9.234   7.351
23903WAT     H171951   7.552   9.225   7.314
23903WAT     H271952   7.462   9.216   7.449
23904WAT      O71953   8.861   7.248   0.610
23904WAT     H171954   8.901   7.333   0.644
23904WAT     H271955   8.795   7.214   0.678
23905WAT      O71956   9.256   8.679   3.657
23905WAT     H171957   9.264   8.666   3.558
23905WAT     H271958   9.217   8.597   3.699
23906WAT      O71959   5.674   0.340   9.058
23906WAT     H171960   5.694   0.280   9.135
23906WAT     H271961   5.701   0.296   8.972
23907WAT      O71962   3.811   6.006   2.320
23907WAT     H171963   3.869   6.014   2.401
23907WAT     H271964   3.716   5.990   2.349
23908WAT      O71965   5.199   1.549   1.969
23908WAT     H171966   5.185   1.479   1.898
23908WAT     H271967   5.185   1.640   1.929
23909WAT      O71968   7.615   5.021   5.382
23909WAT     H171969   7.623   5.067   5.294
23909WAT     H271970   7.645   5.082   5.455
23910WAT      O71971   3.605   9.426   0.637
23910WAT     H171972   3.536   9.497   0.652
23910WAT     H271973   3.644   9.398   0.724
23911WAT      O71974   3.897   1.231   6.120
23911WAT     H171975   3.902   1.183   6.208
23911WAT     H271976   3.876   1.167   6.047
23912WAT      O71977   4.876   1.252   4.939
23912WAT     H171978   4.886   1.294   4.849
23912WAT     H271979   4.807   1.180   4.935
23913WAT      O71980   9.693   1.659   7.353
23913WAT     H171981   9.636   1.595   7.301
23913WAT     H271982   9.652   1.750   7.350
23914WAT      O71983   6.600   0.351   8.479
23914WAT     H171984   6.513   0.302   8.488
23914WAT     H271985   6.585   0.436   8.428
23915WAT      O71986   4.640   6.581   9.407
23915WAT     H171987   4.696   6.545   9.332
23915WAT     H271988   4.564   6.519   9.425
23916WAT      O71989   0.643   7.563   3.037
23916WAT     H171990   0.562   7.564   3.096
23916WAT     H271991   0.627   7.504   2.958
23917WAT      O71992   9.328   6.374   4.222
23917WAT     H171993   9.342   6.314   4.301
23917WAT     H271994   9.390   6.347   4.148
23918WAT      O71995   2.236   7.810   3.972
23918WAT     H171996   2.245   7.716   3.940
23918WAT     H271997   2.322   7.841   4.011
23919WAT      O71998   1.987   9.464   3.298
23919WAT     H171999   1.952   9.409   3.223
23919WAT     H272000   1.963   9.560   3.284
23920WAT      O72001   6.898   5.790   5.714
23920WAT     H172002   6.976   5.820   5.768
23920WAT     H272003   6.925   5.712   5.657
23921WAT      O72004   9.754   4.070   3.595
23921WAT     H172005   9.752   4.069   3.695
23921WAT     H272006   9.845   4.043   3.564
23922WAT      O72007   8.366   3.033   0.932
23922WAT     H172008   8.417   2.963   0.882
23922WAT     H272009   8.313   2.990   1.005
23923WAT      O72010   2.535   6.281   9.828
23923WAT     H172011   2.619   6.329   9.805
23923WAT     H272012   2.554   6.184   9.843
23924WAT      O72013   7.142   8.925   1.473
23924WAT     H172014   7.145   8.920   1.373
23924WAT     H272015   7.208   8.861   1.512
23925WAT      O72016   9.290   5.915   8.413
23925WAT     H172017   9.380   5.904   8.455
23925WAT     H272018   9.252   5.825   8.394
23926WAT      O72019   5.210   8.070   8.983
23926WAT     H172020   5.120   8.110   8.969
23926WAT     H272021   5.272   8.138   9.023
23927WAT      O72022   7.778   4.881   9.299
23927WAT     H172023   7.738   4.808   9.244
23927WAT     H272024   7.797   4.960   9.242
23928WAT      O72025   4.588   3.177   1.060
23928WAT     H172026   4.623   3.084   1.053
23928WAT     H272027   4.553   3.192   1.153
23929WAT      O72028   4.698   8.032   8.572
23929WAT     H172029   4.648   7.974   8.508
23929WAT     H272030   4.770   7.978   8.616
23930WAT      O72031   6.775   3.042   0.757
23930WAT     H172032   6.740   3.136   0.754
23930WAT     H272033   6.743   2.993   0.676
23931WAT      O72034   1.729   3.943   4.967
23931WAT     H172035   1.661   4.006   5.004
23931WAT     H272036   1.683   3.874   4.911
23932WAT      O72037   1.503   8.093   5.650
23932WAT     H172038   1.557   8.173   5.623
23932WAT     H272039   1.415   8.095   5.603
23933WAT      O72040   4.225   2.789   2.803
23933WAT     H172041   4.199   2.868   2.860
23933WAT     H272042   4.227   2.817   2.707
23934WAT      O72043   0.009   4.906   8.173
23934WAT     H172044  -0.009   4.825   8.229
23934WAT     H272045  -0.051   4.905   8.093
23935WAT      O72046   5.359   8.624   9.599
23935WAT     H172047   5.362   8.688   9.676
23935WAT     H272048   5.436   8.643   9.538
23936WAT      O72049   9.750   2.363   7.398
23936WAT     H172050   9.835   2.378   7.449
23936WAT     H272051   9.706   2.451   7.380
23937WAT      O72052   8.717   6.507   3.830
23937WAT     H172053   8.753   6.575   3.767
23937WAT     H272054   8.763   6.420   3.815
23938WAT      O72055   6.983   8.053   4.127
23938WAT     H172056   6.920   8.009   4.063
23938WAT     H272057   6.975   8.152   4.120
23939WAT      O72058   3.467   6.319   1.163
23939WAT     H172059   3.447   6.300   1.259
23939WAT     H272060   3.518   6.405   1.156
23940WAT      O72061   2.291   0.380   7.893
23940WAT     H172062   2.386   0.369   7.924
23940WAT     H272063   2.234   0.310   7.936
23941WAT      O72064   6.905   5.358   5.756
23941WAT     H172065   6.879   5.346   5.851
23941WAT     H272066   6.826   5.391   5.704
23942WAT      O72067   3.442   0.184   6.711
23942WAT     H172068   3.469   0.123   6.637
23942WAT     H272069   3.454   0.138   6.799
23943WAT      O72070   3.682   5.355   5.007
23943WAT     H172071   3.626   5.436   4.988
23943WAT     H272072   3.675   5.291   4.931
23944WAT      O72073   1.997   4.893   2.069
23944WAT     H172074   2.041   4.939   2.146
23944WAT     H272075   1.980   4.959   1.996
23945WAT      O72076   5.795   0.186   4.319
23945WAT     H172077   5.827   0.208   4.411
23945WAT     H272078   5.777   0.271   4.269
23946WAT      O72079   0.526   6.128   4.946
23946WAT     H172080   0.438   6.174   4.934
23946WAT     H272081   0.551   6.129   5.043
23947WAT      O72082   1.510   1.555   5.882
23947WAT     H172083   1.491   1.461   5.912
23947WAT     H272084   1.463   1.572   5.795
23948WAT      O72085   7.920   5.431   8.715
23948WAT     H172086   7.845   5.460   8.655
23948WAT     H272087   8.006   5.431   8.664
23949WAT      O72088   2.811   6.899   4.324
23949WAT     H172089   2.882   6.918   4.256
23949WAT     H272090   2.782   6.985   4.366
23950WAT      O72091   2.944   3.840   3.086
23950WAT     H172092   3.034   3.849   3.044
23950WAT     H272093   2.936   3.751   3.130
23951WAT      O72094   1.401   0.907   0.544
23951WAT     H172095   1.332   0.835   0.555
23951WAT     H272096   1.379   0.983   0.605
23952WAT      O72097   0.628   1.810   5.989
23952WAT     H172098   0.706   1.748   5.999
23952WAT     H272099   0.609   1.854   6.076
23953WAT      O72100   4.921   3.761   8.591
23953WAT     H172101   4.874   3.773   8.503
23953WAT     H272102   4.951   3.851   8.625
23954WAT      O72103   4.579   2.899   6.867
23954WAT     H172104   4.630   2.900   6.953
23954WAT     H272105   4.498   2.840   6.877
23955WAT      O72106   2.298   8.333   2.135
23955WAT     H172107   2.336   8.331   2.042
23955WAT     H272108   2.362   8.287   2.197
23956WAT      O72109   6.180   7.140   8.902
23956WAT     H172110   6.209   7.189   8.820
23956WAT     H272111   6.226   7.178   8.982
23957WAT      O72112   4.515   2.176   3.956
23957WAT     H172113   4.452   2.252   3.943
23957WAT     H272114   4.507   2.111   3.881
23958WAT      O72115   6.471   2.342   8.586
23958WAT     H172116   6.536   2.407   8.547
23958WAT     H272117   6.400   2.392   8.636
23959WAT      O72118   4.793   7.346   0.481
23959WAT     H172119   4.703   7.338   0.437
23959WAT     H272120   4.863   7.361   0.411
23960WAT      O72121   6.690   3.756   5.781
23960WAT     H172122   6.643   3.744   5.694
23960WAT     H272123   6.622   3.769   5.854
23961WAT      O72124   0.626   7.960   9.149
23961WAT     H172125   0.562   7.902   9.198
23961WAT     H272126   0.622   8.053   9.185
23962WAT      O72127   6.545   4.612   2.918
23962WAT     H172128   6.580   4.675   2.849
23962WAT     H272129   6.621   4.561   2.959
23963WAT      O72130   3.924   6.629   8.745
23963WAT     H172131   3.979   6.547   8.760
23963WAT     H272132   3.857   6.639   8.818
23964WAT      O72133   8.867   6.360   7.621
23964WAT     H172134   8.772   6.389   7.633
23964WAT     H272135   8.914   6.359   7.709
23965WAT      O72136   8.030   7.650   5.965
23965WAT     H172137   7.955   7.586   5.984
23965WAT     H272138   8.116   7.612   6.000
23966WAT      O72139   2.048   7.177   9.868
23966WAT     H172140   2.113   7.103   9.854
23966WAT     H272141   1.975   7.147   9.929
23967WAT      O72142   6.700   2.635   2.639
23967WAT     H172143   6.737   2.593   2.557
23967WAT     H272144   6.748   2.601   2.720
23968WAT      O72145   8.079   0.385   9.601
23968WAT     H172146   7.979   0.392   9.605
23968WAT     H272147   8.112   0.331   9.678
23969WAT      O72148   3.788   3.344   8.403
23969WAT     H172149   3.726   3.272   8.372
23969WAT     H272150   3.859   3.360   8.334
23970WAT      O72151   8.265   6.732   6.229
23970WAT     H172152   8.272   6.802   6.300
23970WAT     H272153   8.356   6.693   6.212
23971WAT      O72154   4.297   4.105   7.513
23971WAT     H172155   4.232   4.149   7.451
23971WAT     H272156   4.305   4.160   7.596
23972WAT      O72157   8.421   6.358   3.075
23972WAT     H172158   8.378   6.295   3.140
23972WAT     H272159   8.476   6.426   3.124
23973WAT      O72160   9.582   8.466   6.913
23973WAT     H172161   9.554   8.475   7.008
23973WAT     H272162   9.679   8.487   6.904
23974WAT      O72163   1.330   6.396   0.910
23974WAT     H172164   1.337   6.466   0.839
23974WAT     H272165   1.394   6.322   0.890
23975WAT      O72166   9.157   7.238   5.852
23975WAT     H172167   9.079   7.285   5.812
23975WAT     H272168   9.220   7.306   5.892
23976WAT      O72169   9.750   0.696   5.230
23976WAT     H172170   9.747   0.674   5.133
23976WAT     H272171   9.709   0.787   5.245
23977WAT      O72172   5.217   0.198   2.104
23977WAT     H172173   5.149   0.137   2.144
23977WAT     H272174   5.223   0.282   2.159
23978WAT      O72175   6.710   7.679   1.899
23978WAT     H172176   6.763   7.617   1.956
23978WAT     H272177   6.697   7.638   1.809
23979WAT      O72178   7.868   7.954   3.527
23979WAT     H172179   7.897   7.981   3.435
23979WAT     H272180   7.935   7.890   3.565
23980WAT      O72181   3.089   9.031   3.370
23980WAT     H172182   3.078   9.033   3.470
23980WAT     H272183   3.142   9.111   3.341
23981WAT      O72184   1.912   6.315   7.530
23981WAT     H172185   1.834   6.338   7.588
23981WAT     H272186   1.959   6.236   7.568
23982WAT      O72187   3.827   9.025   7.679
23982WAT     H172188   3.780   9.038   7.767
23982WAT     H272189   3.788   8.945   7.633
23983WAT      O72190   0.052   0.847   9.474
23983WAT     H172191  -0.034   0.879   9.514
23983WAT     H272192   0.065   0.750   9.497
23984WAT      O72193   6.386   0.956   1.810
23984WAT     H172194   6.353   0.863   1.793
23984WAT     H272195   6.352   0.988   1.898
23985WAT      O72196   8.679   2.506   1.549
23985WAT     H172197   8.776   2.481   1.541
23985WAT     H272198   8.637   2.452   1.622
23986WAT      O72199   3.864   2.587   6.475
23986WAT     H172200   3.833   2.527   6.549
23986WAT     H272201   3.956   2.621   6.496
23987WAT      O72202   3.543   8.522   2.083
23987WAT     H172203   3.563   8.425   2.097
23987WAT     H272204   3.615   8.577   2.126
23988WAT      O72205   1.773   5.912   0.597
23988WAT     H172206   1.822   5.940   0.515
23988WAT     H272207   1.676   5.899   0.576
23989WAT      O72208   8.353   6.927   1.035
23989WAT     H172209   8.326   7.014   1.076
23989WAT     H272210   8.433   6.942   0.976
23990WAT      O72211   0.962   9.175   2.941
23990WAT     H172212   0.899   9.241   2.901
23990WAT     H272213   1.055   9.209   2.934
23991WAT      O72214   2.862   6.385   3.468
23991WAT     H172215   2.866   6.468   3.523
23991WAT     H272216   2.954   6.356   3.442
23992WAT      O72217   5.542   8.466   1.286
23992WAT     H172218   5.478   8.529   1.330
23992WAT     H272219   5.597   8.420   1.355
23993WAT      O72220   0.183   8.597   6.583
23993WAT     H172221   0.282   8.587   6.585
23993WAT     H272222   0.160   8.695   6.581
23994WAT      O72223   8.555   7.031   5.648
23994WAT     H172224   8.557   7.012   5.550
23994WAT     H272225   8.643   7.005   5.688
23995WAT      O72226   8.245   9.554   4.311
23995WAT     H172227   8.284   9.614   4.380
23995WAT     H272228   8.298   9.562   4.226
23996WAT      O72229   8.220   4.540   9.853
23996WAT     H172230   8.311   4.499   9.844
23996WAT     H272231   8.228   4.636   9.880
23997WAT      O72232   2.815   6.646   4.669
23997WAT     H172233   2.725   6.689   4.676
23997WAT     H272234   2.866   6.661   4.753
23998WAT      O72235   4.062   4.198   2.774
23998WAT     H172236   4.014   4.259   2.838
23998WAT     H272237   4.001   4.177   2.697
23999WAT      O72238   7.388   5.538   1.333
23999WAT     H172239   7.364   5.514   1.239
23999WAT     H272240   7.325   5.607   1.367
24000WAT      O72241   2.894   9.130   6.278
24000WAT     H172242   2.983   9.134   6.325
24000WAT     H272243   2.821   9.123   6.346
24001WAT      O72244   3.043   6.877   9.668
24001WAT     H172245   3.073   6.858   9.575
24001WAT     H272246   2.963   6.937   9.666
24002WAT      O72247   5.438   1.732   1.502
24002WAT     H172248   5.352   1.706   1.545
24002WAT     H272249   5.514   1.706   1.561
24003WAT      O72250   8.045   3.995   0.940
24003WAT     H172251   8.035   3.904   0.980
24003WAT     H272252   8.129   4.038   0.975
24004WAT      O72253   9.678   8.723   9.776
24004WAT     H172254   9.676   8.821   9.755
24004WAT     H272255   9.716   8.673   9.698
24005WAT      O72256   3.724   0.717   7.698
24005WAT     H172257   3.682   0.663   7.771
24005WAT     H272258   3.816   0.681   7.678
24006WAT      O72259   4.585   2.067   7.597
24006WAT     H172260   4.592   1.993   7.531
24006WAT     H272261   4.674   2.112   7.606
24007WAT      O72262   0.263   6.109   5.679
24007WAT     H172263   0.234   6.093   5.774
24007WAT     H272264   0.313   6.195   5.673
24008WAT      O72265   1.407   3.937   3.573
24008WAT     H172266   1.444   4.019   3.617
24008WAT     H272267   1.310   3.926   3.599
24009WAT      O72268   5.307   0.573   6.739
24009WAT     H172269   5.383   0.584   6.676
24009WAT     H272270   5.283   0.661   6.779
24010WAT      O72271   8.605   4.936   3.835
24010WAT     H172272   8.620   4.925   3.737
24010WAT     H272273   8.609   5.034   3.859
24011WAT      O72274   0.254   3.664   4.971
24011WAT     H172275   0.188   3.617   5.029
24011WAT     H272276   0.329   3.601   4.948
24012WAT      O72277   8.927   4.661   6.193
24012WAT     H172278   8.904   4.660   6.290
24012WAT     H272279   8.988   4.738   6.173
24013WAT      O72280   5.471   1.952   0.040
24013WAT     H172281   5.475   1.999   0.128
24013WAT     H272282   5.428   2.013  -0.028
24014WAT      O72283   5.271   3.757   3.878
24014WAT     H172284   5.290   3.660   3.894
24014WAT     H272285   5.315   3.786   3.793
24015WAT      O72286   8.012   6.880   9.869
24015WAT     H172287   8.022   6.907   9.965
24015WAT     H272288   8.076   6.806   9.848
24016WAT      O72289   7.469   2.094   3.263
24016WAT     H172290   7.518   2.017   3.223
24016WAT     H272291   7.532   2.147   3.320
24017WAT      O72292   4.267   3.657   7.963
24017WAT     H172293   4.267   3.705   7.876
24017WAT     H272294   4.266   3.558   7.947
24018WAT      O72295   9.830   3.766   1.329
24018WAT     H172296   9.909   3.778   1.269
24018WAT     H272297   9.831   3.674   1.368
24019WAT      O72298   0.447   1.250   5.335
24019WAT     H172299   0.536   1.211   5.309
24019WAT     H272300   0.444   1.346   5.308
24020WAT      O72301   8.752   3.431   1.502
24020WAT     H172302   8.697   3.347   1.500
24020WAT     H272303   8.798   3.443   1.414
24021WAT      O72304   5.886   3.289   7.855
24021WAT     H172305   5.811   3.271   7.918
24021WAT     H272306   5.860   3.259   7.763
24022WAT      O72307   1.631   8.919   8.379
24022WAT     H172308   1.577   8.888   8.457
24022WAT     H272309   1.580   8.904   8.294
24023WAT      O72310   5.723   9.654   1.348
24023WAT     H172311   5.697   9.608   1.263
24023WAT     H272312   5.816   9.691   1.338
24024WAT      O72313   2.729   6.190   8.183
24024WAT     H172314   2.791   6.113   8.196
24024WAT     H272315   2.660   6.190   8.255
24025WAT      O72316   4.229   2.260   8.612
24025WAT     H172317   4.317   2.302   8.634
24025WAT     H272318   4.242   2.190   8.542
24026WAT      O72319   8.786   7.306   9.284
24026WAT     H172320   8.718   7.270   9.220
24026WAT     H272321   8.784   7.252   9.368
24027WAT      O72322   3.742   3.013   1.454
24027WAT     H172323   3.833   2.973   1.460
24027WAT     H272324   3.748   3.112   1.472
24028WAT      O72325   8.436   2.742   3.302
24028WAT     H172326   8.526   2.715   3.270
24028WAT     H272327   8.433   2.841   3.315
24029WAT      O72328   5.077   7.003   5.302
24029WAT     H172329   5.060   7.056   5.220
24029WAT     H272330   5.010   7.027   5.373
24030WAT      O72331   0.477   4.592   4.371
24030WAT     H172332   0.414   4.641   4.431
24030WAT     H272333   0.570   4.600   4.408
24031WAT      O72334   4.767   1.378   1.159
24031WAT     H172335   4.854   1.356   1.115
24031WAT     H272336   4.701   1.407   1.090
24032WAT      O72337   3.548   3.367   1.814
24032WAT     H172338   3.505   3.294   1.759
24032WAT     H272339   3.484   3.396   1.886
24033WAT      O72340   9.447   1.885   1.315
24033WAT     H172341   9.528   1.850   1.268
24033WAT     H272342   9.368   1.829   1.291
24034WAT      O72343   0.312   6.889   0.971
24034WAT     H172344   0.331   6.819   0.902
24034WAT     H272345   0.340   6.978   0.935
24035WAT      O72346   4.218   0.833   7.551
24035WAT     H172347   4.192   0.786   7.467
24035WAT     H272348   4.199   0.931   7.542
24036WAT      O72349   0.885   2.423   2.882
24036WAT     H172350   0.860   2.515   2.914
24036WAT     H272351   0.805   2.378   2.843
24037WAT      O72352   3.799   7.556   0.306
24037WAT     H172353   3.758   7.635   0.262
24037WAT     H272354   3.726   7.495   0.339
24038WAT      O72355   8.656   6.185   0.332
24038WAT     H172356   8.611   6.253   0.274
24038WAT     H272357   8.707   6.231   0.405
24039WAT      O72358   4.244   3.055   2.135
24039WAT     H172359   4.255   2.963   2.172
24039WAT     H272360   4.302   3.119   2.186
24040WAT      O72361   4.818   6.083   4.439
24040WAT     H172362   4.852   6.176   4.423
24040WAT     H272363   4.831   6.058   4.535
24041WAT      O72364   1.727   7.432   6.045
24041WAT     H172365   1.749   7.336   6.064
24041WAT     H272366   1.806   7.477   6.004
24042WAT      O72367   3.850   6.845   1.036
24042WAT     H172368   3.750   6.844   1.032
24042WAT     H272369   3.884   6.925   0.986
24043WAT      O72370   3.087   9.423   5.138
24043WAT     H172371   3.119   9.460   5.225
24043WAT     H272372   3.024   9.347   5.156
24044WAT      O72373   6.505   4.903   6.846
24044WAT     H172374   6.422   4.905   6.901
24044WAT     H272375   6.508   4.819   6.792
24045WAT      O72376   6.872   1.285   0.276
24045WAT     H172377   6.953   1.281   0.335
24045WAT     H272378   6.808   1.352   0.311
24046WAT      O72379   9.143   4.822   6.978
24046WAT     H172380   9.230   4.862   6.950
24046WAT     H272381   9.085   4.809   6.897
24047WAT      O72382   3.241   0.626   2.998
24047WAT     H172383   3.198   0.714   3.018
24047WAT     H272384   3.171   0.556   2.984
24048WAT      O72385   1.222   7.404   0.830
24048WAT     H172386   1.280   7.341   0.778
24048WAT     H272387   1.219   7.375   0.926
24049WAT      O72388   5.851   2.800   7.526
24049WAT     H172389   5.850   2.853   7.610
24049WAT     H272390   5.815   2.856   7.451
24050WAT      O72391   5.456   3.484   0.951
24050WAT     H172392   5.486   3.453   0.860
24050WAT     H272393   5.447   3.405   1.012
24051WAT      O72394   2.036   6.935   4.694
24051WAT     H172395   2.107   6.997   4.662
24051WAT     H272396   1.947   6.967   4.662
24052WAT      O72397   2.071   6.336   6.168
24052WAT     H172398   2.004   6.355   6.096
24052WAT     H272399   2.088   6.237   6.171
24053WAT      O72400   3.821   4.389   6.702
24053WAT     H172401   3.747   4.451   6.727
24053WAT     H272402   3.897   4.400   6.766
24054WAT      O72403   0.960   5.064   2.683
24054WAT     H172404   1.054   5.061   2.648
24054WAT     H272405   0.946   4.990   2.748
24055WAT      O72406   5.033   7.682   0.014
24055WAT     H172407   5.069   7.775   0.022
24055WAT     H272408   4.956   7.681  -0.050
24056WAT      O72409   1.177   4.394   6.062
24056WAT     H172410   1.140   4.301   6.055
24056WAT     H272411   1.242   4.398   6.138
24057WAT      O72412   7.885   0.639   2.261
24057WAT     H172413   7.803   0.582   2.253
24057WAT     H272414   7.897   0.692   2.177
24058WAT      O72415   6.925   6.216   7.591
24058WAT     H172416   7.011   6.189   7.548
24058WAT     H272417   6.941   6.240   7.687
24059WAT      O72418   2.342   2.965   7.237
24059WAT     H172419   2.289   2.992   7.318
24059WAT     H272420   2.297   2.998   7.155
24060WAT      O72421   2.878   5.387   0.808
24060WAT     H172422   2.891   5.479   0.845
24060WAT     H272423   2.780   5.365   0.808
24061WAT      O72424   0.100   9.656   3.546
24061WAT     H172425   0.068   9.571   3.588
24061WAT     H272426   0.136   9.717   3.617
24062WAT      O72427   4.296   8.154   4.431
24062WAT     H172428   4.249   8.167   4.343
24062WAT     H272429   4.312   8.056   4.445
24063WAT      O72430   0.480   8.604   4.984
24063WAT     H172431   0.565   8.651   4.960
24063WAT     H272432   0.432   8.576   4.901
24064WAT      O72433   1.279   6.789   6.055
24064WAT     H172434   1.359   6.756   6.004
24064WAT     H272435   1.292   6.885   6.079
24065WAT      O72436   6.489   4.197   5.794
24065WAT     H172437   6.493   4.272   5.728
24065WAT     H272438   6.404   4.146   5.781
24066WAT      O72439   2.727   5.038   7.866
24066WAT     H172440   2.659   4.987   7.813
24066WAT     H272441   2.817   5.028   7.823
24067WAT      O72442   9.322   5.449   1.608
24067WAT     H172443   9.418   5.471   1.594
24067WAT     H272444   9.282   5.416   1.522
24068WAT      O72445   9.695   3.400   9.869
24068WAT     H172446   9.696   3.319   9.810
24068WAT     H272447   9.703   3.482   9.812
24069WAT      O72448   5.306   9.436   7.827
24069WAT     H172449   5.218   9.437   7.874
24069WAT     H272450   5.378   9.410   7.891
24070WAT      O72451   2.243   6.845   5.681
24070WAT     H172452   2.299   6.765   5.661
24070WAT     H272453   2.249   6.911   5.605
24071WAT      O72454   5.019   4.201   5.307
24071WAT     H172455   5.014   4.140   5.386
24071WAT     H272456   5.113   4.202   5.271
24072WAT      O72457   7.459   6.571   6.009
24072WAT     H172458   7.530   6.538   5.947
24072WAT     H272459   7.409   6.647   5.966
24073WAT      O72460   1.034   8.058   5.272
24073WAT     H172461   0.947   8.012   5.255
24073WAT     H272462   1.052   8.125   5.200
24074WAT      O72463   9.426   2.009   9.220
24074WAT     H172464   9.330   2.035   9.236
24074WAT     H272465   9.471   2.081   9.167
24075WAT      O72466   6.238   8.858   1.550
24075WAT     H172467   6.191   8.862   1.638
24075WAT     H272468   6.332   8.825   1.563
24076WAT      O72469   4.673   4.005   7.196
24076WAT     H172470   4.753   3.950   7.174
24076WAT     H272471   4.644   4.055   7.115
24077WAT      O72472   9.286   2.607   3.879
24077WAT     H172473   9.249   2.700   3.875
24077WAT     H272474   9.220   2.543   3.841
24078WAT      O72475   7.568   9.208   5.059
24078WAT     H172476   7.644   9.241   5.004
24078WAT     H272477   7.494   9.176   4.999
24079WAT      O72478   9.442   3.839   2.533
24079WAT     H172479   9.487   3.794   2.456
24079WAT     H272480   9.384   3.773   2.581
24080WAT      O72481   3.152   1.680   3.500
24080WAT     H172482   3.243   1.667   3.537
24080WAT     H272483   3.084   1.667   3.572
24081WAT      O72484   8.463   5.748   8.830
24081WAT     H172485   8.454   5.825   8.893
24081WAT     H272486   8.525   5.680   8.870
24082WAT      O72487   0.663   7.197   1.266
24082WAT     H172488   0.731   7.255   1.221
24082WAT     H272489   0.660   7.218   1.364
24083WAT      O72490   7.979   8.026   6.060
24083WAT     H172491   7.951   7.975   5.978
24083WAT     H272492   8.026   8.110   6.032
24084WAT      O72493   8.235   8.045   7.873
24084WAT     H172494   8.184   8.033   7.958
24084WAT     H272495   8.295   8.124   7.881
24085WAT      O72496   1.066   6.514   8.382
24085WAT     H172497   1.130   6.490   8.456
24085WAT     H272498   1.101   6.594   8.333
24086WAT      O72499   7.153   7.748   5.877
24086WAT     H172500   7.148   7.829   5.935
24086WAT     H272501   7.176   7.776   5.783
24087WAT      O72502   7.395   9.553   8.213
24087WAT     H172503   7.400   9.453   8.206
24087WAT     H272504   7.338   9.578   8.291
24088WAT      O72505   7.933   9.156   9.510
24088WAT     H172506   7.937   9.056   9.511
24088WAT     H272507   7.994   9.194   9.579
24089WAT      O72508   8.586   1.957   0.330
24089WAT     H172509   8.538   1.928   0.247
24089WAT     H272510   8.605   1.878   0.387
24090WAT      O72511   1.938   3.307   6.233
24090WAT     H172512   1.948   3.267   6.142
24090WAT     H272513   2.014   3.369   6.250
24091WAT      O72514   7.001   7.273   5.521
24091WAT     H172515   6.977   7.198   5.583
24091WAT     H272516   6.990   7.360   5.569
24092WAT      O72517   2.172   4.523   6.887
24092WAT     H172518   2.222   4.534   6.801
24092WAT     H272519   2.230   4.475   6.953
24093WAT      O72520   3.909   0.454   3.119
24093WAT     H172521   3.906   0.372   3.177
24093WAT     H272522   3.817   0.491   3.109
24094WAT      O72523   9.797   2.722   6.117
24094WAT     H172524   9.718   2.712   6.056
24094WAT     H272525   9.808   2.639   6.171
24095WAT      O72526   2.579   3.096   0.178
24095WAT     H172527   2.673   3.108   0.210
24095WAT     H272528   2.559   3.164   0.107
24096WAT      O72529   4.822   2.146   0.299
24096WAT     H172530   4.857   2.053   0.313
24096WAT     H272531   4.725   2.142   0.277
24097WAT      O72532   8.484   2.029   4.011
24097WAT     H172533   8.478   1.933   4.039
24097WAT     H272534   8.482   2.087   4.093
24098WAT      O72535   5.212   1.093   6.930
24098WAT     H172536   5.169   1.174   6.889
24098WAT     H272537   5.310   1.093   6.908
24099WAT      O72538   2.731   8.639   8.207
24099WAT     H172539   2.697   8.588   8.286
24099WAT     H272540   2.729   8.580   8.126
24100WAT      O72541   2.805   5.687   5.999
24100WAT     H172542   2.813   5.655   6.094
24100WAT     H272543   2.741   5.764   5.996
24101WAT      O72544   4.118   1.389   1.549
24101WAT     H172545   4.196   1.420   1.604
24101WAT     H272546   4.040   1.373   1.609
24102WAT      O72547   9.392   7.887   0.500
24102WAT     H172548   9.357   7.855   0.412
24102WAT     H272549   9.376   7.986   0.508
24103WAT      O72550   7.264   9.036   5.760
24103WAT     H172551   7.274   9.084   5.847
24103WAT     H272552   7.354   9.007   5.727
24104WAT      O72553   4.751   8.620   7.926
24104WAT     H172554   4.691   8.694   7.897
24104WAT     H272555   4.827   8.657   7.980
24105WAT      O72556   3.407   5.081   7.204
24105WAT     H172557   3.312   5.063   7.230
24105WAT     H272558   3.469   5.032   7.264
24106WAT      O72559   4.424   3.858   3.201
24106WAT     H172560   4.412   3.775   3.255
24106WAT     H272561   4.521   3.884   3.201
24107WAT      O72562   7.809   8.279   3.804
24107WAT     H172563   7.828   8.368   3.846
24107WAT     H272564   7.895   8.231   3.789
24108WAT      O72565   8.435   3.658   9.793
24108WAT     H172566   8.416   3.699   9.882
24108WAT     H272567   8.380   3.703   9.723
24109WAT      O72568   9.373   7.911   1.590
24109WAT     H172569   9.441   7.984   1.590
24109WAT     H272570   9.291   7.943   1.542
24110WAT      O72571   1.307   4.879   6.416
24110WAT     H172572   1.345   4.855   6.506
24110WAT     H272573   1.316   4.801   6.354
24111WAT      O72574   1.137   2.202   9.010
24111WAT     H172575   1.039   2.187   9.023
24111WAT     H272576   1.154   2.230   8.915
24112WAT      O72577   1.832   2.772   0.837
24112WAT     H172578   1.868   2.865   0.847
24112WAT     H272579   1.790   2.743   0.923
24113WAT      O72580   5.308   8.143   4.825
24113WAT     H172581   5.240   8.199   4.777
24113WAT     H272582   5.282   8.046   4.818
24114WAT      O72583   9.650   9.320   3.933
24114WAT     H172584   9.645   9.241   3.994
24114WAT     H272585   9.736   9.319   3.882
24115WAT      O72586   6.682   6.403   3.763
24115WAT     H172587   6.691   6.485   3.820
24115WAT     H272588   6.667   6.430   3.668
24116WAT      O72589   5.849   9.452   0.025
24116WAT     H172590   5.917   9.379   0.014
24116WAT     H272591   5.891   9.530   0.071
24117WAT      O72592   4.593   7.240   3.240
24117WAT     H172593   4.646   7.168   3.195
24117WAT     H272594   4.497   7.214   3.244
24118WAT      O72595   7.632   1.461   9.078
24118WAT     H172596   7.640   1.371   9.035
24118WAT     H272597   7.578   1.521   9.019
24119WAT      O72598   3.492   3.064   5.841
24119WAT     H172599   3.475   3.111   5.928
24119WAT     H272600   3.586   3.031   5.839
24120WAT      O72601   3.851   4.129   9.233
24120WAT     H172602   3.800   4.086   9.158
24120WAT     H272603   3.937   4.166   9.197
24121WAT      O72604   3.640   7.358   0.030
24121WAT     H172605   3.640   7.265  -0.004
24121WAT     H272606   3.602   7.360   0.122
24122WAT      O72607   9.485   3.757   1.666
24122WAT     H172608   9.496   3.706   1.580
24122WAT     H272609   9.546   3.836   1.666
24123WAT      O72610   5.524   2.957   0.711
24123WAT     H172611   5.466   2.904   0.650
24123WAT     H272612   5.576   2.895   0.770
24124WAT      O72613   2.452   2.711   3.934
24124WAT     H172614   2.474   2.803   3.902
24124WAT     H272615   2.481   2.644   3.866
24125WAT      O72616   3.968   0.322   8.328
24125WAT     H172617   4.011   0.387   8.391
24125WAT     H272618   3.919   0.372   8.257
24126WAT      O72619   4.680   9.234   2.920
24126WAT     H172620   4.716   9.209   3.009
24126WAT     H272621   4.709   9.167   2.852
24127WAT      O72622   2.903   6.885   6.659
24127WAT     H172623   2.997   6.890   6.694
24127WAT     H272624   2.905   6.896   6.559
24128WAT      O72625   1.728   1.091   9.627
24128WAT     H172626   1.657   1.105   9.558
24128WAT     H272627   1.728   1.169   9.690
24129WAT      O72628   5.586   5.240   3.481
24129WAT     H172629   5.611   5.242   3.578
24129WAT     H272630   5.638   5.169   3.434
24130WAT      O72631   8.568   5.621   2.134
24130WAT     H172632   8.520   5.653   2.052
24130WAT     H272633   8.620   5.696   2.174
24131WAT      O72634   1.620   8.219   4.458
24131WAT     H172635   1.610   8.263   4.369
24131WAT     H272636   1.617   8.288   4.530
24132WAT      O72637   8.335   7.039   2.979
24132WAT     H172638   8.331   6.941   2.956
24132WAT     H272639   8.425   7.060   3.017
24133WAT      O72640   9.727   3.278   8.028
24133WAT     H172641   9.646   3.257   8.084
24133WAT     H272642   9.807   3.286   8.087
24134WAT      O72643   8.001   6.908   5.248
24134WAT     H172644   8.085   6.954   5.277
24134WAT     H272645   7.959   6.862   5.326
24135WAT      O72646   8.243   8.109   6.930
24135WAT     H172647   8.248   8.125   7.028
24135WAT     H272648   8.268   8.014   6.910
24136WAT      O72649   9.321   6.342   5.946
24136WAT     H172650   9.224   6.348   5.921
24136WAT     H272651   9.377   6.345   5.863
24137WAT      O72652   7.283   7.995   1.294
24137WAT     H172653   7.318   8.013   1.202
24137WAT     H272654   7.359   7.997   1.359
24138WAT      O72655   6.602   2.938   7.635
24138WAT     H172656   6.578   2.951   7.731
24138WAT     H272657   6.554   3.007   7.579
24139WAT      O72658   1.864   4.478   4.812
24139WAT     H172659   1.879   4.393   4.862
24139WAT     H272660   1.947   4.501   4.761
24140WAT      O72661   3.077   8.540   7.822
24140WAT     H172662   3.087   8.612   7.891
24140WAT     H272663   3.114   8.571   7.735
24141WAT      O72664   6.091   6.646   4.442
24141WAT     H172665   5.995   6.619   4.441
24141WAT     H272666   6.098   6.746   4.448
24142WAT      O72667   4.664   5.494   1.863
24142WAT     H172668   4.589   5.539   1.815
24142WAT     H272669   4.708   5.558   1.926
24143WAT      O72670   1.369   7.929   3.492
24143WAT     H172671   1.436   7.998   3.463
24143WAT     H272672   1.294   7.926   3.426
24144WAT      O72673   4.710   7.812   6.560
24144WAT     H172674   4.674   7.719   6.573
24144WAT     H272675   4.723   7.855   6.650
24145WAT      O72676   1.573   6.048   8.827
24145WAT     H172677   1.545   6.138   8.794
24145WAT     H272678   1.639   6.008   8.764
24146WAT      O72679   4.726   9.421   2.254
24146WAT     H172680   4.743   9.400   2.157
24146WAT     H272681   4.814   9.429   2.301
24147WAT      O72682   3.638   9.598   8.294
24147WAT     H172683   3.569   9.621   8.361
24147WAT     H272684   3.619   9.507   8.256
24148WAT      O72685   7.046   6.357   8.211
24148WAT     H172686   7.027   6.291   8.138
24148WAT     H272687   6.960   6.390   8.250
24149WAT      O72688   2.510   2.988   2.428
24149WAT     H172689   2.527   2.895   2.461
24149WAT     H272690   2.464   2.984   2.339
24150WAT      O72691   7.059   1.409   2.740
24150WAT     H172692   7.134   1.382   2.680
24150WAT     H272693   6.986   1.342   2.735
24151WAT      O72694   8.154   0.571   2.195
24151WAT     H172695   8.218   0.606   2.263
24151WAT     H272696   8.062   0.571   2.234
24152WAT      O72697   5.697   1.197   3.326
24152WAT     H172698   5.785   1.184   3.372
24152WAT     H272699   5.700   1.151   3.237
24153WAT      O72700   5.527   3.485   7.619
24153WAT     H172701   5.486   3.465   7.530
24153WAT     H272702   5.618   3.525   7.606
24154WAT      O72703   0.673   7.777   3.350
24154WAT     H172704   0.744   7.792   3.281
24154WAT     H272705   0.681   7.847   3.421
24155WAT      O72706   3.994   9.181   5.727
24155WAT     H172707   3.910   9.186   5.780
24155WAT     H272708   4.054   9.112   5.767
24156WAT      O72709   2.630   1.047   4.026
24156WAT     H172710   2.615   1.095   3.939
24156WAT     H272711   2.608   0.950   4.015
24157WAT      O72712   7.935   4.137   6.257
24157WAT     H172713   7.996   4.080   6.202
24157WAT     H272714   7.847   4.093   6.266
24158WAT      O72715   3.913   0.263   5.744
24158WAT     H172716   3.830   0.276   5.798
24158WAT     H272717   3.903   0.308   5.655
24159WAT      O72718   3.568   4.198   0.905
24159WAT     H172719   3.638   4.195   0.833
24159WAT     H272720   3.605   4.241   0.987
24160WAT      O72721   1.706   6.571   0.153
24160WAT     H172722   1.639   6.594   0.223
24160WAT     H272723   1.659   6.533   0.073
24161WAT      O72724   9.770   4.428   1.907
24161WAT     H172725   9.705   4.464   1.840
24161WAT     H272726   9.731   4.434   1.998
24162WAT      O72727   0.623   5.915   4.545
24162WAT     H172728   0.535   5.904   4.498
24162WAT     H272729   0.651   5.827   4.583
24163WAT      O72730   2.866   3.671   5.562
24163WAT     H172731   2.793   3.661   5.631
24163WAT     H272732   2.906   3.582   5.543
24164WAT      O72733   2.694   9.022   1.406
24164WAT     H172734   2.693   9.013   1.307
24164WAT     H272735   2.641   8.947   1.447
24165WAT      O72736   3.340   8.993   3.568
24165WAT     H172737   3.242   9.013   3.569
24165WAT     H272738   3.391   9.079   3.563
24166WAT      O72739   9.076   7.402   4.079
24166WAT     H172740   9.058   7.430   4.173
24166WAT     H272741   9.155   7.452   4.044
24167WAT      O72742   2.852   3.614   3.202
24167WAT     H172743   2.826   3.591   3.296
24167WAT     H272744   2.816   3.545   3.140
24168WAT      O72745   2.616   4.189   1.484
24168WAT     H172746   2.642   4.260   1.418
24168WAT     H272747   2.695   4.131   1.503
24169WAT      O72748   9.853   7.173   4.579
24169WAT     H172749   9.876   7.091   4.527
24169WAT     H272750   9.936   7.217   4.611
24170WAT      O72751   3.950   0.331   8.970
24170WAT     H172752   3.884   0.276   9.022
24170WAT     H272753   3.918   0.426   8.966
24171WAT      O72754   3.028   0.638   2.226
24171WAT     H172755   3.087   0.619   2.148
24171WAT     H272756   3.072   0.604   2.310
24172WAT      O72757   5.281   7.386   3.788
24172WAT     H172758   5.245   7.324   3.858
24172WAT     H272759   5.288   7.478   3.825
24173WAT      O72760   2.334   6.687   8.213
24173WAT     H172761   2.398   6.735   8.154
24173WAT     H272762   2.375   6.601   8.243
24174WAT      O72763   8.266   5.184   8.594
24174WAT     H172764   8.329   5.152   8.524
24174WAT     H272765   8.253   5.283   8.584
24175WAT      O72766   7.974   2.498   9.642
24175WAT     H172767   7.987   2.524   9.737
24175WAT     H272768   7.877   2.504   9.618
24176WAT      O72769   5.213   8.307   0.927
24176WAT     H172770   5.181   8.263   0.844
24176WAT     H272771   5.306   8.276   0.947
24177WAT      O72772   0.867   7.258   6.674
24177WAT     H172773   0.951   7.294   6.716
24177WAT     H272774   0.796   7.250   6.743
24178WAT      O72775   8.970   9.342   2.304
24178WAT     H172776   8.965   9.332   2.404
24178WAT     H272777   9.032   9.274   2.267
24179WAT      O72778   2.875   6.557   8.263
24179WAT     H172779   2.889   6.497   8.185
24179WAT     H272780   2.826   6.639   8.233
24180WAT      O72781   5.653   7.211   2.955
24180WAT     H172782   5.705   7.296   2.961
24180WAT     H272783   5.689   7.154   2.882
24181WAT      O72784   9.261   4.192   6.229
24181WAT     H172785   9.337   4.256   6.229
24181WAT     H272786   9.179   4.237   6.193
24182WAT      O72787   6.008   6.112   5.149
24182WAT     H172788   6.081   6.171   5.113
24182WAT     H272789   5.928   6.117   5.089
24183WAT      O72790   8.075   4.192   4.897
24183WAT     H172791   7.980   4.195   4.928
24183WAT     H272792   8.082   4.232   4.806
24184WAT      O72793   8.639   3.015   0.553
24184WAT     H172794   8.676   2.965   0.475
24184WAT     H272795   8.544   3.039   0.535
24185WAT      O72796   1.666   7.867   6.345
24185WAT     H172797   1.754   7.905   6.319
24185WAT     H272798   1.617   7.933   6.403
24186WAT      O72799   8.728   7.700   2.965
24186WAT     H172800   8.672   7.773   2.927
24186WAT     H272801   8.713   7.694   3.064
24187WAT      O72802   8.005   5.836   9.070
24187WAT     H172803   7.927   5.800   9.018
24187WAT     H272804   8.050   5.908   9.017
24188WAT      O72805   5.796   2.943   4.826
24188WAT     H172806   5.889   2.928   4.858
24188WAT     H272807   5.739   2.974   4.903
24189WAT      O72808   4.706   4.069   0.441
24189WAT     H172809   4.710   3.969   0.448
24189WAT     H272810   4.611   4.097   0.429
24190WAT      O72811   7.318   6.090   4.114
24190WAT     H172812   7.234   6.038   4.102
24190WAT     H272813   7.332   6.109   4.211
24191WAT      O72814   8.816   9.526   7.465
24191WAT     H172815   8.799   9.505   7.562
24191WAT     H272816   8.813   9.441   7.412
24192WAT      O72817   9.743   5.751   1.586
24192WAT     H172818   9.704   5.659   1.586
24192WAT     H272819   9.843   5.745   1.585
24193WAT      O72820   2.883   4.626   5.561
24193WAT     H172821   2.952   4.627   5.634
24193WAT     H272822   2.792   4.629   5.602
24194WAT      O72823   8.598   1.859   1.423
24194WAT     H172824   8.602   1.916   1.505
24194WAT     H272825   8.589   1.917   1.342
24195WAT      O72826   2.071   4.152   8.275
24195WAT     H172827   2.013   4.071   8.261
24195WAT     H272828   2.041   4.200   8.358
24196WAT      O72829   8.224   2.705   3.139
24196WAT     H172830   8.177   2.787   3.172
24196WAT     H272831   8.315   2.699   3.180
24197WAT      O72832   2.645   0.945   0.334
24197WAT     H172833   2.681   0.990   0.251
24197WAT     H272834   2.680   0.992   0.415
24198WAT      O72835   6.292   3.697   1.060
24198WAT     H172836   6.213   3.664   1.009
24198WAT     H272837   6.272   3.694   1.158
24199WAT      O72838   5.010   5.764   5.892
24199WAT     H172839   5.053   5.851   5.870
24199WAT     H272840   5.003   5.754   5.991
24200WAT      O72841   3.215   1.109   9.142
24200WAT     H172842   3.225   1.144   9.049
24200WAT     H272843   3.228   1.010   9.142
24201WAT      O72844   8.247   4.956   6.839
24201WAT     H172845   8.175   4.963   6.770
24201WAT     H272846   8.230   5.023   6.911
24202WAT      O72847   0.265   3.211   8.302
24202WAT     H172848   0.330   3.265   8.356
24202WAT     H272849   0.271   3.115   8.329
24203WAT      O72850   0.817   9.570   6.675
24203WAT     H172851   0.847   9.659   6.711
24203WAT     H272852   0.838   9.499   6.742
24204WAT      O72853   7.025   2.249   9.712
24204WAT     H172854   6.985   2.338   9.736
24204WAT     H272855   7.019   2.187   9.790
24205WAT      O72856   3.341   4.293   8.503
24205WAT     H172857   3.317   4.384   8.470
24205WAT     H272858   3.274   4.263   8.571
24206WAT      O72859   1.549   3.563   6.728
24206WAT     H172860   1.579   3.471   6.703
24206WAT     H272861   1.530   3.616   6.645
24207WAT      O72862   1.912   1.435   6.260
24207WAT     H172863   1.999   1.479   6.237
24207WAT     H272864   1.845   1.504   6.287
24208WAT      O72865   6.957   5.797   4.675
24208WAT     H172866   6.901   5.841   4.744
24208WAT     H272867   7.043   5.766   4.716
24209WAT      O72868   9.399   2.115   2.914
24209WAT     H172869   9.496   2.100   2.898
24209WAT     H272870   9.353   2.026   2.924
24210WAT      O72871   7.861   4.320   6.051
24210WAT     H172872   7.855   4.231   6.097
24210WAT     H272873   7.825   4.391   6.112
24211WAT      O72874   0.788   2.709   8.614
24211WAT     H172875   0.691   2.685   8.607
24211WAT     H272876   0.838   2.669   8.537
24212WAT      O72877   1.620   1.403   1.893
24212WAT     H172878   1.616   1.328   1.959
24212WAT     H272879   1.597   1.369   1.802
24213WAT      O72880   3.202   8.358   5.534
24213WAT     H172881   3.132   8.421   5.567
24213WAT     H272882   3.189   8.268   5.577
24214WAT      O72883   5.785   1.152   7.338
24214WAT     H172884   5.796   1.065   7.387
24214WAT     H272885   5.790   1.227   7.404
24215WAT      O72886   6.833   4.560   0.600
24215WAT     H172887   6.862   4.571   0.695
24215WAT     H272888   6.819   4.463   0.581
24216WAT      O72889   9.702   3.556   7.284
24216WAT     H172890   9.673   3.626   7.348
24216WAT     H272891   9.683   3.466   7.323
24217WAT      O72892   6.310   5.168   9.715
24217WAT     H172893   6.310   5.263   9.686
24217WAT     H272894   6.405   5.136   9.724
24218WAT      O72895   8.872   8.780   6.025
24218WAT     H172896   8.774   8.797   6.030
24218WAT     H272897   8.890   8.682   6.040
24219WAT      O72898   5.935   0.407   8.205
24219WAT     H172899   6.022   0.425   8.251
24219WAT     H272900   5.876   0.487   8.214
24220WAT      O72901   4.477   4.071   2.246
24220WAT     H172902   4.527   4.003   2.299
24220WAT     H272903   4.534   4.152   2.232
24221WAT      O72904   3.327   4.724   7.132
24221WAT     H172905   3.420   4.752   7.156
24221WAT     H272906   3.296   4.775   7.052
24222WAT      O72907   6.023   6.763   7.817
24222WAT     H172908   5.955   6.835   7.800
24222WAT     H272909   5.979   6.674   7.813
24223WAT      O72910   8.700   8.813   9.163
24223WAT     H172911   8.797   8.834   9.152
24223WAT     H272912   8.656   8.886   9.215
24224WAT      O72913   4.379   1.588   3.419
24224WAT     H172914   4.407   1.558   3.327
24224WAT     H272915   4.413   1.681   3.434
24225WAT      O72916   9.303   0.968   5.103
24225WAT     H172917   9.387   0.975   5.157
24225WAT     H272918   9.326   0.949   5.007
24226WAT      O72919   7.423   8.939   1.719
24226WAT     H172920   7.352   8.877   1.686
24226WAT     H272921   7.403   8.967   1.813
24227WAT      O72922   3.821   8.052   7.606
24227WAT     H172923   3.865   8.110   7.537
24227WAT     H272924   3.790   8.108   7.682
24228WAT      O72925   6.557   0.023   0.758
24228WAT     H172926   6.654   0.037   0.736
24228WAT     H272927   6.525  -0.062   0.716
24229WAT      O72928   4.333   6.532   1.816
24229WAT     H172929   4.262   6.556   1.883
24229WAT     H272930   4.292   6.518   1.726
24230WAT      O72931   1.295   9.006   8.617
24230WAT     H172932   1.203   8.969   8.602
24230WAT     H272933   1.295   9.104   8.599
24231WAT      O72934   0.671   0.875   9.691
24231WAT     H172935   0.648   0.778   9.681
24231WAT     H272936   0.673   0.899   9.788
24232WAT      O72937   8.783   9.642   4.584
24232WAT     H172938   8.715   9.573   4.607
24232WAT     H272939   8.833   9.614   4.502
24233WAT      O72940   6.642   1.242   7.853
24233WAT     H172941   6.595   1.161   7.888
24233WAT     H272942   6.615   1.322   7.907
24234WAT      O72943   6.716   5.463   4.790
24234WAT     H172944   6.656   5.542   4.780
24234WAT     H272945   6.786   5.484   4.859
24235WAT      O72946   5.740   1.474   2.414
24235WAT     H172947   5.763   1.559   2.461
24235WAT     H272948   5.643   1.455   2.425
24236WAT      O72949   4.245   3.807   1.143
24236WAT     H172950   4.241   3.853   1.055
24236WAT     H272951   4.268   3.710   1.129
24237WAT      O72952   4.922   1.228   0.368
24237WAT     H172953   4.862   1.275   0.303
24237WAT     H272954   4.867   1.167   0.425
24238WAT      O72955   4.162   8.767   3.912
24238WAT     H172956   4.072   8.807   3.895
24238WAT     H272957   4.169   8.739   4.007
24239WAT      O72958   6.607   7.748   9.448
24239WAT     H172959   6.540   7.821   9.465
24239WAT     H272960   6.559   7.660   9.446
24240WAT      O72961   9.312   0.119   5.634
24240WAT     H172962   9.337   0.038   5.686
24240WAT     H272963   9.357   0.199   5.672
24241WAT      O72964   1.797   0.663   1.451
24241WAT     H172965   1.864   0.674   1.378
24241WAT     H272966   1.818   0.728   1.525
24242WAT      O72967   5.527   5.561   0.201
24242WAT     H172968   5.471   5.636   0.164
24242WAT     H272969   5.499   5.542   0.295
24243WAT      O72970   3.000   1.548   9.019
24243WAT     H172971   3.061   1.491   9.074
24243WAT     H272972   2.957   1.617   9.077
24244WAT      O72973   0.183   3.070   4.078
24244WAT     H172974   0.085   3.066   4.097
24244WAT     H272975   0.232   3.101   4.159
24245WAT      O72976   6.627   4.054   6.168
24245WAT     H172977   6.677   3.968   6.177
24245WAT     H272978   6.676   4.126   6.215
24246WAT      O72979   0.723   5.640   8.479
24246WAT     H172980   0.632   5.616   8.514
24246WAT     H272981   0.785   5.654   8.556
24247WAT      O72982   8.211   1.989   9.130
24247WAT     H172983   8.293   1.933   9.140
24247WAT     H272984   8.135   1.944   9.178
24248WAT      O72985   8.487   2.446   2.432
24248WAT     H172986   8.446   2.537   2.429
24248WAT     H272987   8.584   2.454   2.456
24249WAT      O72988   8.799   8.584   8.268
24249WAT     H172989   8.857   8.646   8.216
24249WAT     H272990   8.801   8.493   8.227
24250WAT      O72991   4.770   1.247   3.233
24250WAT     H172992   4.716   1.285   3.308
24250WAT     H272993   4.858   1.215   3.268
24251WAT      O72994   7.685   6.290   6.958
24251WAT     H172995   7.601   6.345   6.960
24251WAT     H272996   7.665   6.199   6.922
24252WAT      O72997   6.363   1.453   4.569
24252WAT     H172998   6.417   1.458   4.653
24252WAT     H272999   6.365   1.542   4.523
24253WAT      O73000   8.458   2.732   7.146
24253WAT     H173001   8.444   2.644   7.102
24253WAT     H273002   8.415   2.804   7.092
24254WAT      O73003   0.652   4.274   2.162
24254WAT     H173004   0.595   4.354   2.144
24254WAT     H273005   0.644   4.249   2.259
24255WAT      O73006   7.770   8.747   7.685
24255WAT     H173007   7.740   8.831   7.641
24255WAT     H273008   7.870   8.743   7.686
24256WAT      O73009   0.767   3.650   7.391
24256WAT     H173010   0.814   3.713   7.452
24256WAT     H273011   0.817   3.643   7.305
24257WAT      O73012   2.076   3.001   1.778
24257WAT     H173013   2.145   3.068   1.751
24257WAT     H273014   1.992   3.049   1.805
24258WAT      O73015   3.811   4.819   0.280
24258WAT     H173016   3.769   4.910   0.280
24258WAT     H273017   3.741   4.750   0.261
24259WAT      O73018   9.266   6.719   0.473
24259WAT     H173019   9.313   6.727   0.385
24259WAT     H273020   9.299   6.790   0.535
24260WAT      O73021   8.995   6.574   3.556
24260WAT     H173022   9.055   6.593   3.479
24260WAT     H273023   8.981   6.475   3.564
24261WAT      O73024   9.616   9.644   6.849
24261WAT     H173025   9.519   9.652   6.867
24261WAT     H273026   9.655   9.570   6.904
24262WAT      O73027   9.432   1.468   9.891
24262WAT     H173028   9.509   1.437   9.835
24262WAT     H273029   9.359   1.400   9.887
24263WAT      O73030   5.095   9.639   2.020
24263WAT     H173031   5.073   9.668   1.927
24263WAT     H273032   5.113   9.541   2.021
24264WAT      O73033   6.722   2.873   0.167
24264WAT     H173034   6.788   2.802   0.193
24264WAT     H273035   6.641   2.866   0.225
24265WAT      O73036   7.616   6.067   7.289
24265WAT     H173037   7.559   6.012   7.229
24265WAT     H273038   7.571   6.155   7.308
24266WAT      O73039   7.696   2.940   7.291
24266WAT     H173040   7.700   2.925   7.390
24266WAT     H273041   7.664   2.856   7.246
24267WAT      O73042   3.765   3.241   9.059
24267WAT     H173043   3.672   3.259   9.092
24267WAT     H273044   3.800   3.322   9.012
24268WAT      O73045   6.791   2.883   7.460
24268WAT     H173046   6.880   2.890   7.505
24268WAT     H273047   6.719   2.907   7.526
24269WAT      O73048   3.486   7.628   0.221
24269WAT     H173049   3.392   7.606   0.195
24269WAT     H273050   3.542   7.641   0.139
24270WAT      O73051   7.664   4.616   5.044
24270WAT     H173052   7.717   4.681   5.100
24270WAT     H273053   7.609   4.558   5.104
24271WAT      O73054   5.568   3.460   9.795
24271WAT     H173055   5.562   3.559   9.785
24271WAT     H273056   5.488   3.417   9.752
24272WAT      O73057   5.411   5.336   2.883
24272WAT     H173058   5.495   5.389   2.887
24272WAT     H273059   5.425   5.248   2.930
24273WAT      O73060   1.155   8.216   2.627
24273WAT     H173061   1.223   8.246   2.559
24273WAT     H273062   1.186   8.240   2.718
24274WAT      O73063   6.120   3.648   2.368
24274WAT     H173064   6.189   3.590   2.412
24274WAT     H273065   6.044   3.663   2.432
24275WAT      O73066   3.690   2.178   9.425
24275WAT     H173067   3.769   2.239   9.437
24275WAT     H273068   3.662   2.142   9.513
24276WAT      O73069   7.801   9.450   0.598
24276WAT     H173070   7.843   9.538   0.623
24276WAT     H273071   7.848   9.376   0.648
24277WAT      O73072   4.173   0.199   3.642
24277WAT     H173073   4.168   0.129   3.714
24277WAT     H273074   4.269   0.216   3.619
24278WAT      O73075   6.090   1.541   8.526
24278WAT     H173076   6.140   1.610   8.579
24278WAT     H273077   5.997   1.572   8.509
24279WAT      O73078   3.138   0.663   9.791
24279WAT     H173079   3.100   0.668   9.883
24279WAT     H273080   3.095   0.587   9.741
24280WAT      O73081   8.021   6.886   1.670
24280WAT     H173082   8.110   6.932   1.661
24280WAT     H273083   7.960   6.943   1.725
24281WAT      O73084   1.148   5.391   9.181
24281WAT     H173085   1.169   5.396   9.084
24281WAT     H273086   1.075   5.456   9.204
24282WAT      O73087   0.173   6.032   0.978
24282WAT     H173088   0.076   6.055   0.969
24282WAT     H273089   0.187   5.934   0.962
24283WAT      O73090   9.507   4.123   9.758
24283WAT     H173091   9.542   4.163   9.674
24283WAT     H273092   9.534   4.026   9.762
24284WAT      O73093   8.314   5.809   9.860
24284WAT     H173094   8.399   5.758   9.873
24284WAT     H273095   8.262   5.808   9.945
24285WAT      O73096   4.000   2.946   9.106
24285WAT     H173097   4.011   3.008   9.183
24285WAT     H273098   3.931   2.982   9.043
24286WAT      O73099   9.598   5.240   1.685
24286WAT     H173100   9.534   5.203   1.617
24286WAT     H273101   9.570   5.210   1.776
24287WAT      O73102   1.835   5.359   1.133
24287WAT     H173103   1.835   5.448   1.178
24287WAT     H273104   1.917   5.351   1.075
24288WAT      O73105   7.200   3.043   5.471
24288WAT     H173106   7.206   3.019   5.568
24288WAT     H273107   7.279   3.098   5.445
24289WAT      O73108   0.978   9.527   7.658
24289WAT     H173109   0.955   9.589   7.583
24289WAT     H273110   0.915   9.541   7.734
24290WAT      O73111   4.506   1.807   0.374
24290WAT     H173112   4.502   1.743   0.451
24290WAT     H273113   4.599   1.843   0.365
24291WAT      O73114   2.162   0.187   4.352
24291WAT     H173115   2.152   0.260   4.285
24291WAT     H273116   2.072   0.158   4.385
24292WAT      O73117   4.056   9.315   5.186
24292WAT     H173118   4.059   9.217   5.206
24292WAT     H273119   4.141   9.344   5.142
24293WAT      O73120   8.601   0.393   6.129
24293WAT     H173121   8.504   0.387   6.106
24293WAT     H273122   8.634   0.485   6.108
24294WAT      O73123   7.970   8.329   8.904
24294WAT     H173124   7.965   8.230   8.918
24294WAT     H273125   7.884   8.371   8.932
24295WAT      O73126   6.627   6.584   3.993
24295WAT     H173127   6.700   6.553   4.053
24295WAT     H273128   6.538   6.566   4.036
24296WAT      O73129   9.073   4.924   3.963
24296WAT     H173130   9.152   4.863   3.953
24296WAT     H273131   9.030   4.907   4.052
24297WAT      O73132   9.689   4.614   1.335
24297WAT     H173133   9.618   4.600   1.404
24297WAT     H273134   9.663   4.689   1.275
24298WAT      O73135   3.977   4.152   1.219
24298WAT     H173136   3.938   4.243   1.202
24298WAT     H273137   4.048   4.160   1.288
24299WAT      O73138   8.903   2.564   6.168
24299WAT     H173139   8.918   2.467   6.184
24299WAT     H273140   8.815   2.591   6.208
24300WAT      O73141   4.686   1.608   5.503
24300WAT     H173142   4.670   1.693   5.453
24300WAT     H273143   4.693   1.532   5.440
24301WAT      O73144   6.884   2.008   9.139
24301WAT     H173145   6.881   1.952   9.056
24301WAT     H273146   6.793   2.009   9.182
24302WAT      O73147   4.661   9.761   2.780
24302WAT     H173148   4.649   9.819   2.861
24302WAT     H273149   4.701   9.673   2.807
24303WAT      O73150   2.166   1.171   4.868
24303WAT     H173151   2.117   1.116   4.801
24303WAT     H273152   2.151   1.132   4.959
24304WAT      O73153   0.072   1.100   6.385
24304WAT     H173154  -0.009   1.048   6.414
24304WAT     H273155   0.123   1.130   6.465
24305WAT      O73156   0.356   7.107   0.618
24305WAT     H173157   0.432   7.097   0.553
24305WAT     H273158   0.372   7.050   0.698
24306WAT      O73159   5.528   2.256   7.985
24306WAT     H173160   5.559   2.344   8.021
24306WAT     H273161   5.581   2.182   8.028
24307WAT      O73162   2.717   2.994   0.743
24307WAT     H173163   2.634   3.025   0.696
24307WAT     H273164   2.731   3.049   0.826
24308WAT      O73165   5.662   9.221   7.635
24308WAT     H173166   5.682   9.285   7.709
24308WAT     H273167   5.740   9.217   7.573
24309WAT      O73168   0.860   1.744   1.044
24309WAT     H173169   0.923   1.681   0.999
24309WAT     H273170   0.842   1.822   0.984
24310WAT      O73171   0.892   4.883   5.644
24310WAT     H173172   0.936   4.878   5.734
24310WAT     H273173   0.854   4.794   5.621
24311WAT      O73174   9.044   6.064   8.648
24311WAT     H173175   9.038   5.966   8.628
24311WAT     H273176   9.096   6.110   8.576
24312WAT      O73177   1.675   1.780   2.689
24312WAT     H173178   1.610   1.796   2.616
24312WAT     H273179   1.704   1.684   2.688
24313WAT      O73180   6.876   0.007   8.272
24313WAT     H173181   6.801   0.069   8.246
24313WAT     H273182   6.950   0.015   8.206
24314WAT      O73183   9.558   4.544   0.695
24314WAT     H173184   9.489   4.512   0.761
24314WAT     H273185   9.551   4.643   0.685
24315WAT      O73186   0.385   3.918   9.693
24315WAT     H173187   0.333   3.850   9.745
24315WAT     H273188   0.483   3.901   9.704
24316WAT      O73189   1.396   7.983   4.438
24316WAT     H173190   1.471   7.962   4.377
24316WAT     H273191   1.406   7.931   4.523
24317WAT      O73192   7.726   2.505   5.800
24317WAT     H173193   7.670   2.484   5.880
24317WAT     H273194   7.720   2.429   5.735
24318WAT      O73195   2.803   4.510   6.537
24318WAT     H173196   2.828   4.439   6.603
24318WAT     H273197   2.850   4.595   6.561
24319WAT      O73198   3.077   4.688   9.427
24319WAT     H173199   3.111   4.595   9.444
24319WAT     H273200   3.037   4.692   9.335
24320WAT      O73201   7.574   6.704   8.506
24320WAT     H173202   7.615   6.686   8.417
24320WAT     H273203   7.647   6.709   8.575
24321WAT      O73204   8.824   7.730   7.226
24321WAT     H173205   8.849   7.634   7.211
24321WAT     H273206   8.844   7.755   7.321
24322WAT      O73207   2.782   7.352   8.729
24322WAT     H173208   2.763   7.292   8.652
24322WAT     H273209   2.734   7.439   8.716
24323WAT      O73210   8.351   4.068   0.151
24323WAT     H173211   8.280   4.106   0.210
24323WAT     H273212   8.435   4.057   0.203
24324WAT      O73213   8.059   9.395   9.308
24324WAT     H173214   7.959   9.398   9.317
24324WAT     H273215   8.087   9.301   9.285
24325WAT      O73216   6.053   5.245   2.411
24325WAT     H173217   6.063   5.315   2.340
24325WAT     H273218   6.090   5.159   2.378
24326WAT      O73219   8.641   7.021   4.666
24326WAT     H173220   8.587   7.029   4.750
24326WAT     H273221   8.583   6.985   4.593
24327WAT      O73222   0.758   3.503   7.830
24327WAT     H173223   0.853   3.481   7.810
24327WAT     H273224   0.703   3.420   7.828
24328WAT      O73225   6.989   4.818   8.033
24328WAT     H173226   6.930   4.747   8.071
24328WAT     H273227   6.947   4.855   7.950
24329WAT      O73228   4.583   7.378   4.732
24329WAT     H173229   4.663   7.330   4.767
24329WAT     H273230   4.547   7.329   4.653
24330WAT      O73231   1.578   1.307   5.372
24330WAT     H173232   1.576   1.239   5.298
24330WAT     H273233   1.672   1.338   5.386
24331WAT      O73234   4.737   4.616   2.627
24331WAT     H173235   4.756   4.714   2.623
24331WAT     H273236   4.766   4.572   2.542
24332WAT      O73237   1.469   4.058   1.585
24332WAT     H173238   1.536   4.079   1.655
24332WAT     H273239   1.436   4.143   1.543
24333WAT      O73240   5.214   7.942   0.822
24333WAT     H173241   5.208   8.036   0.789
24333WAT     H273242   5.196   7.940   0.920
24334WAT      O73243   7.543   8.695   3.059
24334WAT     H173244   7.443   8.689   3.067
24334WAT     H273245   7.566   8.736   2.971
24335WAT      O73246   5.494   5.585   1.873
24335WAT     H173247   5.501   5.490   1.844
24335WAT     H273248   5.444   5.590   1.960
24336WAT      O73249   2.999   5.042   0.196
24336WAT     H173250   2.939   4.990   0.256
24336WAT     H273251   2.987   5.013   0.101
24337WAT      O73252   5.303   5.643   6.164
24337WAT     H173253   5.232   5.576   6.184
24337WAT     H273254   5.354   5.663   6.248
24338WAT      O73255   2.127   7.608   7.883
24338WAT     H173256   2.129   7.514   7.917
24338WAT     H273257   2.048   7.656   7.923
24339WAT      O73258   4.654   2.372   7.629
24339WAT     H173259   4.622   2.367   7.723
24339WAT     H273260   4.579   2.348   7.567
24340WAT      O73261   5.271   1.488   6.026
24340WAT     H173262   5.275   1.407   6.085
24340WAT     H273263   5.227   1.465   5.940
24341WAT      O73264   9.624   6.502   8.113
24341WAT     H173265   9.569   6.419   8.101
24341WAT     H273266   9.567   6.583   8.101
24342WAT      O73267   3.288   7.254   3.080
24342WAT     H173268   3.251   7.345   3.098
24342WAT     H273269   3.229   7.185   3.122
24343WAT      O73270   1.920   1.199   3.941
24343WAT     H173271   1.873   1.115   3.911
24343WAT     H273272   1.996   1.218   3.879
24344WAT      O73273   9.626   6.410   6.035
24344WAT     H173274   9.662   6.400   6.127
24344WAT     H273275   9.599   6.505   6.020
24345WAT      O73276   2.575   0.472   7.587
24345WAT     H173277   2.570   0.433   7.679
24345WAT     H273278   2.670   0.476   7.557
24346WAT      O73279   5.491   0.526   6.558
24346WAT     H173280   5.529   0.463   6.490
24346WAT     H273281   5.562   0.551   6.623
24347WAT      O73282   0.557   8.557   5.245
24347WAT     H173283   0.491   8.561   5.320
24347WAT     H273284   0.511   8.575   5.158
24348WAT      O73285   7.081   2.868   4.329
24348WAT     H173286   6.984   2.889   4.311
24348WAT     H273287   7.108   2.907   4.417
24349WAT      O73288   3.181   2.756   5.747
24349WAT     H173289   3.182   2.826   5.818
24349WAT     H273290   3.253   2.775   5.680
24350WAT      O73291   1.718   7.008   7.535
24350WAT     H173292   1.629   7.044   7.566
24350WAT     H273293   1.718   7.004   7.435
24351WAT      O73294   9.481   2.675   7.496
24351WAT     H173295   9.459   2.597   7.554
24351WAT     H273296   9.563   2.655   7.443
24352WAT      O73297   3.388   1.587   3.953
24352WAT     H173298   3.378   1.489   3.936
24352WAT     H273299   3.298   1.630   3.954
24353WAT      O73300   7.800   4.603   4.336
24353WAT     H173301   7.890   4.634   4.367
24353WAT     H273302   7.766   4.666   4.265
24354WAT      O73303   5.247   3.813   8.228
24354WAT     H173304   5.299   3.823   8.144
24354WAT     H273305   5.222   3.717   8.241
24355WAT      O73306   1.754   5.037   8.325
24355WAT     H173307   1.659   5.031   8.356
24355WAT     H273308   1.815   5.023   8.402
24356WAT      O73309   0.238   0.842   5.506
24356WAT     H173310   0.259   0.815   5.412
24356WAT     H273311   0.160   0.789   5.539
24357WAT      O73312   6.053   5.425   3.235
24357WAT     H173313   5.996   5.483   3.293
24357WAT     H273314   6.093   5.351   3.289
24358WAT      O73315   2.280   3.300   6.087
24358WAT     H173316   2.281   3.298   5.987
24358WAT     H273317   2.222   3.376   6.118
24359WAT      O73318   8.661   9.826   9.268
24359WAT     H173319   8.623   9.840   9.359
24359WAT     H273320   8.727   9.898   9.248
24360WAT      O73321   9.805   1.864   6.975
24360WAT     H173322   9.780   1.867   6.878
24360WAT     H273323   9.832   1.955   7.005
24361WAT      O73324   0.761   0.900   9.448
24361WAT     H173325   0.726   0.919   9.539
24361WAT     H273326   0.773   0.801   9.437
24362WAT      O73327   9.602   1.691   2.568
24362WAT     H173328   9.684   1.690   2.625
24362WAT     H273329   9.531   1.746   2.612
24363WAT      O73330   9.290   2.527   7.138
24363WAT     H173331   9.306   2.624   7.155
24363WAT     H273332   9.358   2.494   7.072
24364WAT      O73333   7.792   1.223   4.035
24364WAT     H173334   7.875   1.267   4.071
24364WAT     H273335   7.814   1.132   4.001
24365WAT      O73336   1.941   9.195   4.900
24365WAT     H173337   2.013   9.228   4.839
24365WAT     H273338   1.862   9.256   4.895
24366WAT      O73339   9.657   7.942   1.928
24366WAT     H173340   9.561   7.920   1.911
24366WAT     H273341   9.663   8.023   1.987
24367WAT      O73342   1.059   3.723   4.942
24367WAT     H173343   1.102   3.811   4.964
24367WAT     H273344   1.128   3.650   4.947
24368WAT      O73345   5.123   5.910   0.820
24368WAT     H173346   5.029   5.910   0.788
24368WAT     H273347   5.145   5.821   0.860
24369WAT      O73348   9.143   9.112   3.696
24369WAT     H173349   9.172   9.094   3.790
24369WAT     H273350   9.053   9.070   3.680
24370WAT      O73351   0.400   3.073   9.759
24370WAT     H173352   0.454   3.024   9.826
24370WAT     H273353   0.336   3.010   9.715
24371WAT      O73354   9.780   0.973   3.752
24371WAT     H173355   9.814   0.970   3.658
24371WAT     H273356   9.806   0.889   3.800
24372WAT      O73357   9.297   5.687   1.098
24372WAT     H173358   9.377   5.630   1.080
24372WAT     H273359   9.309   5.776   1.054
24373WAT      O73360   6.547   3.620   7.123
24373WAT     H173361   6.600   3.606   7.207
24373WAT     H273362   6.492   3.703   7.133
24374WAT      O73363   7.242   7.792   9.062
24374WAT     H173364   7.299   7.712   9.044
24374WAT     H273365   7.153   7.762   9.096
24375WAT      O73366   9.662   6.208   2.511
24375WAT     H173367   9.744   6.215   2.454
24375WAT     H273368   9.679   6.250   2.600
24376WAT      O73369   7.073   9.070   2.258
24376WAT     H173370   7.125   8.987   2.276
24376WAT     H273371   7.136   9.146   2.241
24377WAT      O73372   7.000   7.731   3.184
24377WAT     H173373   6.976   7.811   3.238
24377WAT     H273374   7.063   7.757   3.111
24378WAT      O73375   4.335   3.328   1.840
24378WAT     H173376   4.298   3.401   1.783
24378WAT     H273377   4.264   3.259   1.855
24379WAT      O73378   7.968   7.286   8.337
24379WAT     H173379   7.958   7.187   8.348
24379WAT     H273380   7.896   7.332   8.390
24380WAT      O73381   9.461   2.435   7.640
24380WAT     H173382   9.439   2.337   7.633
24380WAT     H273383   9.451   2.464   7.735
24381WAT      O73384   5.935   0.205   0.375
24381WAT     H173385   5.981   0.293   0.387
24381WAT     H273386   5.997   0.131   0.405
24382WAT      O73387   8.727   5.726   6.180
24382WAT     H173388   8.724   5.656   6.252
24382WAT     H273389   8.817   5.725   6.136
24383WAT      O73390   8.617   4.189   5.108
24383WAT     H173391   8.659   4.278   5.090
24383WAT     H273392   8.530   4.202   5.155
24384WAT      O73393   9.311   6.651   3.059
24384WAT     H173394   9.307   6.735   3.005
24384WAT     H273395   9.392   6.652   3.117
24385WAT      O73396   8.949   0.866   9.081
24385WAT     H173397   8.878   0.936   9.077
24385WAT     H273398   8.998   0.862   8.994
24386WAT      O73399   7.765   9.348   4.922
24386WAT     H173400   7.744   9.361   4.825
24386WAT     H273401   7.856   9.383   4.942
24387WAT      O73402   5.933   8.134   6.878
24387WAT     H173403   5.915   8.214   6.935
24387WAT     H273404   5.880   8.140   6.793
24388WAT      O73405   0.773   9.048   1.241
24388WAT     H173406   0.688   9.007   1.208
24388WAT     H273407   0.843   8.976   1.250
24389WAT      O73408   7.150   7.643   9.799
24389WAT     H173409   7.117   7.710   9.866
24389WAT     H273410   7.101   7.655   9.713
24390WAT      O73411   8.559   6.608   5.940
24390WAT     H173412   8.562   6.519   5.984
24390WAT     H273413   8.465   6.630   5.915
24391WAT      O73414   7.986   2.106   8.111
24391WAT     H173415   7.995   2.006   8.117
24391WAT     H273416   7.907   2.129   8.055
24392WAT      O73417   3.655   6.625   7.964
24392WAT     H173418   3.748   6.589   7.971
24392WAT     H273419   3.589   6.550   7.977
24393WAT      O73420   6.849   5.139   9.782
24393WAT     H173421   6.849   5.207   9.708
24393WAT     H273422   6.834   5.048   9.743
24394WAT      O73423   3.768   0.068   6.056
24394WAT     H173424   3.736  -0.018   6.017
24394WAT     H273425   3.865   0.060   6.080
24395WAT      O73426   1.598   7.753   7.694
24395WAT     H173427   1.606   7.851   7.678
24395WAT     H273428   1.667   7.724   7.760
24396WAT      O73429   5.938   9.440   1.593
24396WAT     H173430   5.860   9.381   1.571
24396WAT     H273431   5.944   9.449   1.693
24397WAT      O73432   8.841   9.467   5.628
24397WAT     H173433   8.825   9.370   5.608
24397WAT     H273434   8.812   9.523   5.551
24398WAT      O73435   9.748   3.311   5.160
24398WAT     H173436   9.726   3.395   5.111
24398WAT     H273437   9.821   3.329   5.226
24399WAT      O73438   5.125   1.680   1.207
24399WAT     H173439   5.128   1.621   1.126
24399WAT     H273440   5.182   1.640   1.279
24400WAT      O73441   9.333   1.149   7.960
24400WAT     H173442   9.349   1.079   7.890
24400WAT     H273443   9.248   1.128   8.008
24401WAT      O73444   2.270   2.750   8.426
24401WAT     H173445   2.174   2.727   8.440
24401WAT     H273446   2.307   2.792   8.509
24402WAT      O73447   1.200   6.833   7.568
24402WAT     H173448   1.115   6.781   7.576
24402WAT     H273449   1.268   6.796   7.633
24403WAT      O73450   5.824   1.842   7.905
24403WAT     H173451   5.867   1.832   7.815
24403WAT     H273452   5.831   1.756   7.955
24404WAT      O73453   4.551   8.275   8.442
24404WAT     H173454   4.616   8.323   8.383
24404WAT     H273455   4.590   8.188   8.471
24405WAT      O73456   6.323   4.179   9.336
24405WAT     H173457   6.303   4.194   9.433
24405WAT     H273458   6.416   4.144   9.327
24406WAT      O73459   5.297   5.653   3.563
24406WAT     H173460   5.320   5.717   3.490
24406WAT     H273461   5.237   5.582   3.527
24407WAT      O73462   4.036   8.844   1.512
24407WAT     H173463   3.967   8.915   1.500
24407WAT     H273464   4.016   8.768   1.449
24408WAT      O73465   3.479   9.606   1.245
24408WAT     H173466   3.547   9.673   1.273
24408WAT     H273467   3.389   9.634   1.278
24409WAT      O73468   3.998   9.237   6.053
24409WAT     H173469   3.920   9.293   6.026
24409WAT     H273470   4.045   9.280   6.131
24410WAT      O73471   4.427   6.625   6.736
24410WAT     H173472   4.449   6.666   6.647
24410WAT     H273473   4.343   6.572   6.728
24411WAT      O73474   7.847   5.798   0.541
24411WAT     H173475   7.823   5.825   0.448
24411WAT     H273476   7.813   5.867   0.606
24412WAT      O73477   2.456   6.667   5.728
24412WAT     H173478   2.385   6.614   5.776
24412WAT     H273479   2.481   6.620   5.643
24413WAT      O73480   6.530   8.924   4.671
24413WAT     H173481   6.602   8.858   4.689
24413WAT     H273482   6.469   8.888   4.600
24414WAT      O73483   3.678   3.465   1.606
24414WAT     H173484   3.762   3.410   1.600
24414WAT     H273485   3.627   3.439   1.688
24415WAT      O73486   4.087   0.053   7.021
24415WAT     H173487   4.103  -0.031   7.072
24415WAT     H273488   4.087   0.033   6.923
24416WAT      O73489   8.886   3.139   6.727
24416WAT     H173490   8.916   3.176   6.814
24416WAT     H273491   8.827   3.206   6.681
24417WAT      O73492   3.760   1.067   7.115
24417WAT     H173493   3.817   1.148   7.127
24417WAT     H273494   3.808   1.001   7.056
24418WAT      O73495   6.255   1.364   3.490
24418WAT     H173496   6.261   1.431   3.564
24418WAT     H273497   6.329   1.297   3.500
24419WAT      O73498   2.964   7.889   8.199
24419WAT     H173499   2.895   7.898   8.271
24419WAT     H273500   2.932   7.824   8.131
24420WAT      O73501   8.414   9.189   1.653
24420WAT     H173502   8.394   9.142   1.567
24420WAT     H273503   8.468   9.271   1.634
24421WAT      O73504   5.363   1.342   7.207
24421WAT     H173505   5.375   1.412   7.278
24421WAT     H273506   5.317   1.263   7.247
24422WAT      O73507   3.707   9.566   1.776
24422WAT     H173508   3.802   9.581   1.749
24422WAT     H273509   3.658   9.522   1.701
24423WAT      O73510   5.113   1.330   0.775
24423WAT     H173511   5.095   1.232   0.762
24423WAT     H273512   5.060   1.383   0.708
24424WAT      O73513   5.681   3.667   2.556
24424WAT     H173514   5.652   3.650   2.462
24424WAT     H273515   5.773   3.706   2.557
24425WAT      O73516   3.247   9.022   6.480
24425WAT     H173517   3.210   9.114   6.475
24425WAT     H273518   3.176   8.956   6.453
24426WAT      O73519   6.476   1.298   0.588
24426WAT     H173520   6.567   1.266   0.562
24426WAT     H273521   6.415   1.220   0.597
24427WAT      O73522   4.436   6.050   4.081
24427WAT     H173523   4.337   6.032   4.076
24427WAT     H273524   4.457   6.096   4.166
24428WAT      O73525   2.451   4.075   2.906
24428WAT     H173526   2.545   4.108   2.906
24428WAT     H273527   2.407   4.101   2.820
24429WAT      O73528   6.016   6.543   3.153
24429WAT     H173529   5.980   6.632   3.126
24429WAT     H273530   6.088   6.555   3.220
24430WAT      O73531   2.703   8.123   9.192
24430WAT     H173532   2.779   8.176   9.155
24430WAT     H273533   2.620   8.143   9.138
24431WAT      O73534   3.603   9.694   9.385
24431WAT     H173535   3.538   9.623   9.411
24431WAT     H273536   3.688   9.651   9.355
24432WAT      O73537   4.829   2.467   2.221
24432WAT     H173538   4.856   2.458   2.317
24432WAT     H273539   4.797   2.560   2.204
24433WAT      O73540   8.543   5.997   0.511
24433WAT     H173541   8.451   6.033   0.524
24433WAT     H273542   8.586   6.044   0.433
24434WAT      O73543   2.567   0.353   8.365
24434WAT     H173544   2.502   0.382   8.435
24434WAT     H273545   2.600   0.432   8.315
24435WAT      O73546   0.949   9.285   2.604
24435WAT     H173547   1.028   9.223   2.604
24435WAT     H273548   0.970   9.366   2.658
24436WAT      O73549   6.204   0.757   0.507
24436WAT     H173550   6.267   0.823   0.467
24436WAT     H273551   6.200   0.771   0.606
24437WAT      O73552   6.682   0.925   7.395
24437WAT     H173553   6.685   0.891   7.489
24437WAT     H273554   6.612   0.876   7.344
24438WAT      O73555   1.327   3.142   1.530
24438WAT     H173556   1.346   3.237   1.503
24438WAT     H273557   1.402   3.107   1.586
24439WAT      O73558   9.260   7.886   4.946
24439WAT     H173559   9.297   7.841   4.865
24439WAT     H273560   9.161   7.872   4.950
24440WAT      O73561   5.315   8.359   3.588
24440WAT     H173562   5.325   8.277   3.531
24440WAT     H273563   5.381   8.356   3.663
24441WAT      O73564   0.431   0.265   1.918
24441WAT     H173565   0.418   0.329   1.993
24441WAT     H273566   0.367   0.286   1.844
24442WAT      O73567   3.688   4.745   2.819
24442WAT     H173568   3.658   4.679   2.888
24442WAT     H273569   3.673   4.837   2.853
24443WAT      O73570   8.323   0.442   6.081
24443WAT     H173571   8.304   0.523   6.137
24443WAT     H273572   8.272   0.448   5.995
24444WAT      O73573   7.655   1.350   0.034
24444WAT     H173574   7.739   1.375   0.082
24444WAT     H273575   7.576   1.382   0.087
24445WAT      O73576   2.226   5.688   3.280
24445WAT     H173577   2.306   5.686   3.221
24445WAT     H273578   2.161   5.617   3.251
24446WAT      O73579   2.971   6.151   4.850
24446WAT     H173580   2.969   6.245   4.816
24446WAT     H273581   3.049   6.139   4.911
24447WAT      O73582   8.487   0.514   7.028
24447WAT     H173583   8.502   0.457   6.947
24447WAT     H273584   8.511   0.609   7.007
24448WAT      O73585   3.110   7.210   5.312
24448WAT     H173586   3.104   7.110   5.306
24448WAT     H273587   3.024   7.247   5.348
24449WAT      O73588   2.505   8.943   8.895
24449WAT     H173589   2.563   8.959   8.815
24449WAT     H273590   2.419   8.901   8.867
24450WAT      O73591   5.483   9.219   4.349
24450WAT     H173592   5.439   9.279   4.415
24450WAT     H273593   5.437   9.225   4.261
24451WAT      O73594   9.023   0.771   7.547
24451WAT     H173595   9.071   0.823   7.619
24451WAT     H273596   9.012   0.829   7.467
24452WAT      O73597   8.530   3.093   7.231
24452WAT     H173598   8.516   3.191   7.245
24452WAT     H273599   8.628   3.074   7.227
24453WAT      O73600   1.121   4.767   3.440
24453WAT     H173601   1.077   4.720   3.364
24453WAT     H273602   1.110   4.713   3.524
24454WAT      O73603   2.129   5.545   7.064
24454WAT     H173604   2.166   5.625   7.018
24454WAT     H273605   2.064   5.573   7.134
24455WAT      O73606   4.016   3.402   7.668
24455WAT     H173607   3.969   3.467   7.608
24455WAT     H273608   4.112   3.430   7.679
24456WAT      O73609   3.207   6.324   7.729
24456WAT     H173610   3.124   6.335   7.783
24456WAT     H273611   3.267   6.258   7.774
24457WAT      O73612   5.199   6.392   6.219
24457WAT     H173613   5.244   6.460   6.277
24457WAT     H273614   5.113   6.430   6.184
24458WAT      O73615   9.242   6.307   6.286
24458WAT     H173616   9.281   6.397   6.265
24458WAT     H273617   9.143   6.309   6.269
24459WAT      O73618   1.512   2.258   6.122
24459WAT     H173619   1.541   2.164   6.139
24459WAT     H273620   1.459   2.291   6.199
24460WAT      O73621   7.813   6.090   1.522
24460WAT     H173622   7.837   6.048   1.435
24460WAT     H273623   7.722   6.132   1.515
24461WAT      O73624   7.617   8.721   1.816
24461WAT     H173625   7.567   8.689   1.897
24461WAT     H273626   7.567   8.796   1.773
24462WAT      O73627   4.776   1.393   0.718
24462WAT     H173628   4.788   1.293   0.718
24462WAT     H273629   4.826   1.432   0.641
24463WAT      O73630   9.412   6.005   3.782
24463WAT     H173631   9.473   5.926   3.794
24463WAT     H273632   9.462   6.078   3.735
24464WAT      O73633   2.194   0.859   7.230
24464WAT     H173634   2.207   0.877   7.327
24464WAT     H273635   2.111   0.805   7.217
24465WAT      O73636   9.120   8.477   3.769
24465WAT     H173637   9.044   8.479   3.704
24465WAT     H273638   9.193   8.418   3.734
24466WAT      O73639   7.579   8.593   2.145
24466WAT     H173640   7.666   8.554   2.116
24466WAT     H273641   7.509   8.521   2.146
24467WAT      O73642   6.874   4.411   9.785
24467WAT     H173643   6.803   4.479   9.767
24467WAT     H273644   6.849   4.357   9.866
24468WAT      O73645   3.652   4.743   1.060
24468WAT     H173646   3.735   4.702   1.021
24468WAT     H273647   3.668   4.841   1.077
24469WAT      O73648   4.706   6.469   1.694
24469WAT     H173649   4.634   6.495   1.630
24469WAT     H273650   4.756   6.551   1.723
24470WAT      O73651   6.826   1.258   9.358
24470WAT     H173652   6.828   1.347   9.403
24470WAT     H273653   6.918   1.219   9.357
24471WAT      O73654   9.414   9.043   5.996
24471WAT     H173655   9.381   8.960   5.952
24471WAT     H273656   9.336   9.097   6.029
24472WAT      O73657   9.179   8.219   8.818
24472WAT     H173658   9.099   8.252   8.868
24472WAT     H273659   9.164   8.232   8.720
24473WAT      O73660   6.028   1.880   1.243
24473WAT     H173661   5.973   1.806   1.283
24473WAT     H273662   5.983   1.914   1.160
24474WAT      O73663   8.378   6.755   5.475
24474WAT     H173664   8.294   6.738   5.527
24474WAT     H273665   8.456   6.756   5.537
24475WAT      O73666   7.624   1.936   5.056
24475WAT     H173667   7.619   1.887   5.143
24475WAT     H273668   7.717   1.968   5.040
24476WAT      O73669   3.464   3.589   4.367
24476WAT     H173670   3.498   3.496   4.380
24476WAT     H273671   3.462   3.610   4.269
24477WAT      O73672   6.099   7.633   9.809
24477WAT     H173673   6.012   7.667   9.843
24477WAT     H273674   6.111   7.538   9.837
24478WAT      O73675   9.638   0.773   0.249
24478WAT     H173676   9.707   0.825   0.198
24478WAT     H273677   9.548   0.791   0.210
24479WAT      O73678   4.048   9.586   2.760
24479WAT     H173679   4.063   9.683   2.739
24479WAT     H273680   4.127   9.550   2.809
24480WAT      O73681   1.247   7.320   2.089
24480WAT     H173682   1.252   7.232   2.135
24480WAT     H273683   1.218   7.306   1.994
24481WAT      O73684   2.099   5.766   9.303
24481WAT     H173685   2.090   5.669   9.282
24481WAT     H273686   2.192   5.785   9.335
24482WAT      O73687   6.727   4.974   1.870
24482WAT     H173688   6.685   4.912   1.803
24482WAT     H273689   6.690   5.066   1.858
24483WAT      O73690   9.748   1.599   1.561
24483WAT     H173691   9.744   1.607   1.661
24483WAT     H273692   9.831   1.646   1.528
24484WAT      O73693   3.068   3.964   4.411
24484WAT     H173694   3.001   3.973   4.337
24484WAT     H273695   3.127   3.886   4.393
24485WAT      O73696   1.448   7.261   1.760
24485WAT     H173697   1.438   7.242   1.662
24485WAT     H273698   1.360   7.288   1.799
24486WAT      O73699   1.339   5.122   7.314
24486WAT     H173700   1.280   5.042   7.323
24486WAT     H273701   1.313   5.172   7.231
24487WAT      O73702   2.479   4.784   5.027
24487WAT     H173703   2.523   4.737   5.104
24487WAT     H273704   2.404   4.841   5.061
24488WAT      O73705   6.608   2.620   1.835
24488WAT     H173706   6.530   2.586   1.888
24488WAT     H273707   6.690   2.567   1.860
24489WAT      O73708   8.669   5.615   3.215
24489WAT     H173709   8.636   5.642   3.305
24489WAT     H273710   8.668   5.516   3.206
24490WAT      O73711   2.185   3.953   6.505
24490WAT     H173712   2.189   3.900   6.590
24490WAT     H273713   2.273   3.998   6.490
24491WAT      O73714   9.033   9.820   8.458
24491WAT     H173715   9.043   9.721   8.449
24491WAT     H273716   9.008   9.859   8.370
24492WAT      O73717   5.069   5.720   9.539
24492WAT     H173718   5.154   5.709   9.591
24492WAT     H273719   5.049   5.817   9.529
24493WAT      O73720   3.880   5.295   7.744
24493WAT     H173721   3.909   5.229   7.813
24493WAT     H273722   3.860   5.383   7.788
24494WAT      O73723   7.262   1.892   3.895
24494WAT     H173724   7.352   1.934   3.907
24494WAT     H273725   7.273   1.800   3.858
24495WAT      O73726   0.767   0.641   2.929
24495WAT     H173727   0.693   0.661   2.992
24495WAT     H273728   0.854   0.671   2.968
24496WAT      O73729   0.530   8.154   1.344
24496WAT     H173730   0.625   8.123   1.339
24496WAT     H273731   0.502   8.163   1.439
24497WAT      O73732   1.428   2.136   3.954
24497WAT     H173733   1.382   2.092   4.031
24497WAT     H273734   1.527   2.129   3.967
24498WAT      O73735   5.880   8.432   5.630
24498WAT     H173736   5.917   8.523   5.646
24498WAT     H273737   5.956   8.367   5.622
24499WAT      O73738   2.562   1.537   8.434
24499WAT     H173739   2.615   1.535   8.519
24499WAT     H273740   2.563   1.447   8.391
24500WAT      O73741   9.205   9.151   8.321
24500WAT     H173742   9.209   9.063   8.369
24500WAT     H273743   9.231   9.224   8.383
24501WAT      O73744   8.181   9.397   9.579
24501WAT     H173745   8.137   9.339   9.648
24501WAT     H273746   8.127   9.395   9.495
24502WAT      O73747   0.629   1.699   8.472
24502WAT     H173748   0.719   1.737   8.492
24502WAT     H273749   0.559   1.768   8.491
24503WAT      O73750   0.206   0.540   4.062
24503WAT     H173751   0.294   0.559   4.019
24503WAT     H273752   0.186   0.609   4.130
24504WAT      O73753   9.037   3.146   4.975
24504WAT     H173754   9.023   3.096   4.889
24504WAT     H273755   9.125   3.193   4.973
24505WAT      O73756   6.698   2.489   0.423
24505WAT     H173757   6.755   2.463   0.346
24505WAT     H273758   6.692   2.589   0.427
24506WAT      O73759   8.912   7.480   7.158
24506WAT     H173760   8.949   7.455   7.248
24506WAT     H273761   8.967   7.438   7.086
24507WAT      O73762   3.479   9.732   8.467
24507WAT     H173763   3.522   9.680   8.541
24507WAT     H273764   3.383   9.705   8.459
24508WAT      O73765   9.063   3.889   6.060
24508WAT     H173766   9.121   3.890   6.142
24508WAT     H273767   8.973   3.926   6.083
24509WAT      O73768   2.314   9.140   3.541
24509WAT     H173769   2.282   9.149   3.635
24509WAT     H273770   2.407   9.178   3.534
24510WAT      O73771   6.385   5.596   4.117
24510WAT     H173772   6.399   5.553   4.028
24510WAT     H273773   6.439   5.680   4.122
24511WAT      O73774   1.214   1.368   8.033
24511WAT     H173775   1.117   1.358   8.011
24511WAT     H273776   1.234   1.462   8.058
24512WAT      O73777   4.217   2.657   6.045
24512WAT     H173778   4.237   2.730   6.110
24512WAT     H273779   4.152   2.593   6.086
24513WAT      O73780   0.808   2.689   6.268
24513WAT     H173781   0.873   2.694   6.192
24513WAT     H273782   0.753   2.605   6.260
24514WAT      O73783   6.108   6.975   1.670
24514WAT     H173784   6.036   7.004   1.733
24514WAT     H273785   6.105   6.876   1.660
24515WAT      O73786   6.620   7.192   3.006
24515WAT     H173787   6.619   7.267   3.073
24515WAT     H273788   6.540   7.134   3.020
24516WAT      O73789   4.540   5.712   3.512
24516WAT     H173790   4.557   5.764   3.596
24516WAT     H273791   4.628   5.684   3.472
24517WAT      O73792   3.186   4.967   6.637
24517WAT     H173793   3.242   5.046   6.612
24517WAT     H273794   3.091   4.997   6.650
24518WAT      O73795   3.631   1.041   2.697
24518WAT     H173796   3.730   1.045   2.682
24518WAT     H273797   3.611   0.983   2.776
24519WAT      O73798   6.376   4.906   4.320
24519WAT     H173799   6.425   4.973   4.263
24519WAT     H273800   6.434   4.825   4.333
24520WAT      O73801   4.868   1.873   6.940
24520WAT     H173802   4.776   1.906   6.960
24520WAT     H273803   4.864   1.777   6.913
24521WAT      O73804   0.271   7.517   9.360
24521WAT     H173805   0.370   7.516   9.341
24521WAT     H273806   0.234   7.606   9.333
24522WAT      O73807   1.702   0.133   0.822
24522WAT     H173808   1.747   0.182   0.897
24522WAT     H273809   1.763   0.060   0.789
24523WAT      O73810   6.231   1.993   0.725
24523WAT     H173811   6.264   1.919   0.665
24523WAT     H273812   6.164   1.956   0.789
24524WAT      O73813   7.616   2.107   1.509
24524WAT     H173814   7.697   2.109   1.567
24524WAT     H273815   7.624   2.177   1.438
24525WAT      O73816   2.048   8.538   9.588
24525WAT     H173817   2.046   8.635   9.563
24525WAT     H273818   2.100   8.527   9.672
24526WAT      O73819   0.093   2.481   8.834
24526WAT     H173820   0.001   2.457   8.800
24526WAT     H273821   0.143   2.397   8.856
24527WAT      O73822   5.550   2.481   8.179
24527WAT     H173823   5.459   2.506   8.147
24527WAT     H273824   5.617   2.546   8.144
24528WAT      O73825   6.507   9.300   5.440
24528WAT     H173826   6.450   9.229   5.480
24528WAT     H273827   6.462   9.336   5.358
24529WAT      O73828   6.410   4.888   6.106
24529WAT     H173829   6.406   4.796   6.068
24529WAT     H273830   6.439   4.952   6.035
24530WAT      O73831   3.649   9.208   7.544
24530WAT     H173832   3.709   9.146   7.596
24530WAT     H273833   3.701   9.249   7.469
24531WAT      O73834   3.859   9.080   1.440
24531WAT     H173835   3.845   9.146   1.514
24531WAT     H273836   3.792   9.096   1.368
24532WAT      O73837   8.511   1.190   5.824
24532WAT     H173838   8.480   1.267   5.768
24532WAT     H273839   8.607   1.203   5.848
24533WAT      O73840   5.834   9.145   6.796
24533WAT     H173841   5.745   9.113   6.764
24533WAT     H273842   5.877   9.201   6.724
24534WAT      O73843   6.964   9.488   1.897
24534WAT     H173844   6.966   9.577   1.853
24534WAT     H273845   6.948   9.417   1.827
24535WAT      O73846   6.647   2.300   0.805
24535WAT     H173847   6.698   2.294   0.719
24535WAT     H273848   6.563   2.246   0.798
24536WAT      O73849   9.016   9.220   5.791
24536WAT     H173850   8.997   9.181   5.701
24536WAT     H273851   9.039   9.317   5.782
24537WAT      O73852   3.769   7.022   8.215
24537WAT     H173853   3.714   7.035   8.133
24537WAT     H273854   3.723   6.957   8.276
24538WAT      O73855   6.754   4.108   2.487
24538WAT     H173856   6.742   4.207   2.477
24538WAT     H273857   6.695   4.061   2.421
24539WAT      O73858   2.549   5.642   1.882
24539WAT     H173859   2.645   5.619   1.895
24539WAT     H273860   2.522   5.620   1.788
24540WAT      O73861   6.721   8.876   8.644
24540WAT     H173862   6.680   8.966   8.660
24540WAT     H273863   6.783   8.882   8.566
24541WAT      O73864   4.189   5.785   8.826
24541WAT     H173865   4.113   5.829   8.875
24541WAT     H273866   4.260   5.760   8.891
24542WAT      O73867   9.437   2.015   9.523
24542WAT     H173868   9.453   1.916   9.519
24542WAT     H273869   9.416   2.049   9.431
24543WAT      O73870   9.270   7.834   4.657
24543WAT     H173871   9.269   7.737   4.631
24543WAT     H273872   9.365   7.867   4.659
24544WAT      O73873   6.892   3.270   7.699
24544WAT     H173874   6.931   3.198   7.756
24544WAT     H273875   6.966   3.326   7.661
24545WAT      O73876   6.131   9.591   7.017
24545WAT     H173877   6.110   9.611   7.113
24545WAT     H273878   6.047   9.563   6.970
24546WAT      O73879   4.796   3.153   2.308
24546WAT     H173880   4.765   3.238   2.264
24546WAT     H273881   4.717   3.098   2.335
24547WAT      O73882   6.543   5.814   3.724
24547WAT     H173883   6.559   5.718   3.699
24547WAT     H273884   6.463   5.819   3.784
24548WAT      O73885   0.683   8.495   7.750
24548WAT     H173886   0.624   8.510   7.829
24548WAT     H273887   0.769   8.453   7.779
24549WAT      O73888   2.823   5.959   6.212
24549WAT     H173889   2.802   5.979   6.308
24549WAT     H273890   2.874   5.873   6.207
24550WAT      O73891   2.065   7.061   1.703
24550WAT     H173892   2.067   6.968   1.666
24550WAT     H273893   2.095   7.060   1.798
24551WAT      O73894   5.837   6.224   1.846
24551WAT     H173895   5.777   6.154   1.807
24551WAT     H273896   5.838   6.215   1.945
24552WAT      O73897   3.192   1.693   1.648
24552WAT     H173898   3.281   1.737   1.655
24552WAT     H273899   3.136   1.740   1.579
24553WAT      O73900   1.631   4.104   7.682
24553WAT     H173901   1.542   4.058   7.690
24553WAT     H273902   1.646   4.161   7.763
24554WAT      O73903   0.966   5.805   3.992
24554WAT     H173904   1.039   5.789   3.926
24554WAT     H273905   0.891   5.741   3.975
24555WAT      O73906   9.207   4.192   5.729
24555WAT     H173907   9.171   4.264   5.788
24555WAT     H273908   9.292   4.156   5.768
24556WAT      O73909   5.007   8.433   9.285
24556WAT     H173910   5.030   8.508   9.348
24556WAT     H273911   4.908   8.426   9.277
24557WAT      O73912   0.493   8.162   1.860
24557WAT     H173913   0.467   8.207   1.774
24557WAT     H273914   0.592   8.161   1.869
24558WAT      O73915   2.571   4.206   3.202
24558WAT     H173916   2.473   4.193   3.189
24558WAT     H273917   2.620   4.130   3.159
24559WAT      O73918   2.958   7.062   4.693
24559WAT     H173919   3.002   7.147   4.723
24559WAT     H273920   2.890   7.082   4.623
24560WAT      O73921   6.809   3.194   3.032
24560WAT     H173922   6.901   3.157   3.039
24560WAT     H273923   6.803   3.253   2.951
24561WAT      O73924   2.862   8.851   3.101
24561WAT     H173925   2.845   8.943   3.138
24561WAT     H273926   2.932   8.806   3.156
24562WAT      O73927   6.629   4.467   7.280
24562WAT     H173928   6.586   4.447   7.368
24562WAT     H273929   6.562   4.512   7.221
24563WAT      O73930   7.657   2.789   2.886
24563WAT     H173931   7.629   2.818   2.978
24563WAT     H273932   7.711   2.705   2.893
24564WAT      O73933   0.438   5.840   4.900
24564WAT     H173934   0.480   5.931   4.901
24564WAT     H273935   0.339   5.849   4.913
24565WAT      O73936   1.156   2.972   4.782
24565WAT     H173937   1.080   2.976   4.846
24565WAT     H273938   1.194   3.063   4.768
24566WAT      O73939   9.629   5.599   8.281
24566WAT     H173940   9.726   5.615   8.260
24566WAT     H273941   9.578   5.590   8.195
24567WAT      O73942   0.169   2.122   3.684
24567WAT     H173943   0.087   2.066   3.673
24567WAT     H273944   0.242   2.066   3.721
24568WAT      O73945   8.942   4.760   7.670
24568WAT     H173946   8.850   4.784   7.639
24568WAT     H273947   8.961   4.665   7.645
24569WAT      O73948   9.268   6.932   4.289
24569WAT     H173949   9.337   6.999   4.320
24569WAT     H273950   9.312   6.864   4.231
24570WAT      O73951   5.513   3.839   5.797
24570WAT     H173952   5.592   3.796   5.753
24570WAT     H273953   5.496   3.928   5.755
24571WAT      O73954   9.010   9.685   0.567
24571WAT     H173955   9.021   9.779   0.599
24571WAT     H273956   9.095   9.655   0.522
24572WAT      O73957   4.357   2.163   1.257
24572WAT     H173958   4.341   2.175   1.355
24572WAT     H273959   4.371   2.252   1.214
24573WAT      O73960   5.196   5.094   7.708
24573WAT     H173961   5.198   5.190   7.680
24573WAT     H273962   5.197   5.088   7.807
24574WAT      O73963   6.326   6.008   9.721
24574WAT     H173964   6.267   5.976   9.795
24574WAT     H273965   6.347   5.932   9.660
24575WAT      O73966   8.579   6.792   0.289
24575WAT     H173967   8.575   6.715   0.352
24575WAT     H273968   8.670   6.796   0.247
24576WAT      O73969   1.879   6.396   5.983
24576WAT     H173970   1.910   6.444   5.901
24576WAT     H273971   1.808   6.330   5.959
24577WAT      O73972   3.769   6.398   4.838
24577WAT     H173973   3.775   6.388   4.739
24577WAT     H273974   3.779   6.495   4.863
24578WAT      O73975   5.115   8.381   9.819
24578WAT     H173976   5.130   8.356   9.915
24578WAT     H273977   5.055   8.313   9.777
24579WAT      O73978   5.922   9.194   4.052
24579WAT     H173979   5.844   9.131   4.049
24579WAT     H273980   5.913   9.254   4.131
24580WAT      O73981   6.344   4.557   3.939
24580WAT     H173982   6.343   4.644   3.890
24580WAT     H273983   6.272   4.557   4.008
24581WAT      O73984   4.847   0.694   8.464
24581WAT     H173985   4.802   0.619   8.513
24581WAT     H273986   4.901   0.748   8.528
24582WAT      O73987   5.515   3.600   8.069
24582WAT     H173988   5.608   3.625   8.100
24582WAT     H273989   5.518   3.570   7.974
24583WAT      O73990   7.461   6.727   4.971
24583WAT     H173991   7.509   6.641   4.987
24583WAT     H273992   7.403   6.749   5.049
24584WAT      O73993   8.002   7.507   2.715
24584WAT     H173994   7.935   7.567   2.758
24584WAT     H273995   7.965   7.414   2.709
24585WAT      O73996   0.603   9.207   4.976
24585WAT     H173997   0.648   9.152   4.905
24585WAT     H273998   0.506   9.215   4.955
24586WAT      O73999   4.236   1.461   0.042
24586WAT     H174000   4.207   1.551   0.009
24586WAT     H274001   4.305   1.472   0.113
24587WAT      O74002   5.823   0.138   8.195
24587WAT     H174003   5.869   0.081   8.126
24587WAT     H274004   5.868   0.227   8.200
24588WAT      O74005   8.643   3.753   1.168
24588WAT     H174006   8.715   3.786   1.107
24588WAT     H274007   8.589   3.683   1.121
24589WAT      O74008   3.365   4.592   2.718
24589WAT     H174009   3.440   4.563   2.659
24589WAT     H274010   3.311   4.662   2.672
24590WAT      O74011   8.734   0.684   4.142
24590WAT     H174012   8.782   0.719   4.062
24590WAT     H274013   8.635   0.699   4.131
24591WAT      O74014   7.855   6.492   0.566
24591WAT     H174015   7.864   6.562   0.496
24591WAT     H274016   7.877   6.402   0.527
24592WAT      O74017   0.523   1.070   2.967
24592WAT     H174018   0.440   1.025   2.935
24592WAT     H274019   0.535   1.157   2.918
24593WAT      O74020   9.326   9.180   4.906
24593WAT     H174021   9.399   9.112   4.897
24593WAT     H274022   9.260   9.148   4.974
24594WAT      O74023   4.101   3.192   2.976
24594WAT     H174024   4.032   3.224   3.041
24594WAT     H274025   4.144   3.110   3.012
24595WAT      O74026   8.257   1.497   1.315
24595WAT     H174027   8.281   1.403   1.342
24595WAT     H274028   8.158   1.504   1.305
24596WAT      O74029   4.199   5.219   5.462
24596WAT     H174030   4.296   5.198   5.470
24596WAT     H274031   4.160   5.232   5.554
24597WAT      O74032   5.652   4.273   8.293
24597WAT     H174033   5.597   4.191   8.277
24597WAT     H274034   5.749   4.249   8.286
24598WAT      O74035   7.534   7.621   7.057
24598WAT     H174036   7.461   7.623   7.126
24598WAT     H274037   7.615   7.578   7.095
24599WAT      O74038   8.628   9.116   1.024
24599WAT     H174039   8.665   9.184   1.087
24599WAT     H274040   8.689   9.104   0.947
24600WAT      O74041   6.959   6.260   6.698
24600WAT     H174042   6.970   6.342   6.643
24600WAT     H274043   6.930   6.184   6.640
24601WAT      O74044   7.025   2.968   7.625
24601WAT     H174045   6.997   2.925   7.711
24601WAT     H274046   7.100   3.032   7.642
24602WAT      O74047   1.669   9.801   6.415
24602WAT     H174048   1.758   9.792   6.460
24602WAT     H274049   1.635   9.894   6.427
24603WAT      O74050   2.465   2.468   8.598
24603WAT     H174051   2.398   2.504   8.663
24603WAT     H274052   2.430   2.481   8.505
24604WAT      O74053   2.040   7.978   3.550
24604WAT     H174054   1.962   7.925   3.583
24604WAT     H274055   2.118   7.963   3.610
24605WAT      O74056   5.806   3.771   0.921
24605WAT     H174057   5.745   3.813   0.988
24605WAT     H274058   5.801   3.820   0.834
24606WAT      O74059   2.410   7.173   8.737
24606WAT     H174060   2.351   7.203   8.812
24606WAT     H274061   2.496   7.139   8.774
24607WAT      O74062   1.802   9.795   3.866
24607WAT     H174063   1.736   9.786   3.940
24607WAT     H274064   1.760   9.767   3.779
24608WAT      O74065   6.375   1.025   9.201
24608WAT     H174066   6.303   0.972   9.246
24608WAT     H274067   6.401   0.980   9.115
24609WAT      O74068   3.774   9.000   4.787
24609WAT     H174069   3.808   8.963   4.701
24609WAT     H274070   3.685   9.045   4.770
24610WAT      O74071   7.890   2.830   9.477
24610WAT     H174072   7.808   2.806   9.529
24610WAT     H274073   7.907   2.760   9.407
24611WAT      O74074   2.733   8.534   6.665
24611WAT     H174075   2.761   8.447   6.703
24611WAT     H274076   2.689   8.589   6.736
24612WAT      O74077   4.152   9.762   9.392
24612WAT     H174078   4.129   9.799   9.302
24612WAT     H274079   4.149   9.836   9.460
24613WAT      O74080   7.694   0.628   1.741
24613WAT     H174081   7.764   0.569   1.782
24613WAT     H274082   7.616   0.572   1.713
24614WAT      O74083   1.015   2.180   0.544
24614WAT     H174084   1.087   2.248   0.527
24614WAT     H274085   0.976   2.195   0.634
24615WAT      O74086   6.632   8.189   5.026
24615WAT     H174087   6.615   8.283   5.053
24615WAT     H274088   6.575   8.165   4.947
24616WAT      O74089   3.416   6.998   4.822
24616WAT     H174090   3.349   6.937   4.780
24616WAT     H274091   3.397   7.093   4.795
24617WAT      O74092   0.882   2.449   3.648
24617WAT     H174093   0.930   2.425   3.563
24617WAT     H274094   0.823   2.528   3.631
24618WAT      O74095   2.835   4.958   5.595
24618WAT     H174096   2.933   4.939   5.602
24618WAT     H274097   2.821   5.053   5.566
24619WAT      O74098   0.235   1.152   1.020
24619WAT     H174099   0.194   1.061   1.015
24619WAT     H274100   0.167   1.219   1.049
24620WAT      O74101   2.864   1.068   4.426
24620WAT     H174102   2.904   1.078   4.334
24620WAT     H274103   2.791   1.000   4.423
24621WAT      O74104   4.744   1.035   1.557
24621WAT     H174105   4.812   0.989   1.614
24621WAT     H274106   4.652   1.010   1.588
24622WAT      O74107   3.691   6.041   6.140
24622WAT     H174108   3.742   6.024   6.224
24622WAT     H274109   3.645   5.957   6.111
24623WAT      O74110   2.983   0.794   1.927
24623WAT     H174111   2.888   0.820   1.944
24623WAT     H274112   2.988   0.697   1.904
24624WAT      O74113   2.887   5.561   8.010
24624WAT     H174114   2.866   5.625   7.936
24624WAT     H274115   2.956   5.496   7.980
24625WAT      O74116   5.686   0.736   8.560
24625WAT     H174117   5.782   0.711   8.549
24625WAT     H274118   5.679   0.815   8.620
24626WAT      O74119   0.702   3.579   7.020
24626WAT     H174120   0.783   3.620   6.976
24626WAT     H274121   0.620   3.607   6.970
24627WAT      O74122   7.844   6.579   7.702
24627WAT     H174123   7.838   6.662   7.758
24627WAT     H274124   7.937   6.544   7.705
24628WAT      O74125   9.559   1.643   2.309
24628WAT     H174126   9.567   1.655   2.408
24628WAT     H274127   9.631   1.694   2.263
24629WAT      O74128   3.896   6.005   6.348
24629WAT     H174129   3.949   6.088   6.370
24629WAT     H274130   3.872   5.958   6.433
24630WAT      O74131   8.287   5.053   4.230
24630WAT     H174132   8.230   4.976   4.262
24630WAT     H274133   8.247   5.139   4.262
24631WAT      O74134   8.356   8.244   7.284
24631WAT     H174135   8.333   8.148   7.265
24631WAT     H274136   8.441   8.267   7.237
24632WAT      O74137   1.258   2.143   8.041
24632WAT     H174138   1.181   2.081   8.051
24632WAT     H274139   1.344   2.091   8.044
24633WAT      O74140   3.784   6.646   4.909
24633WAT     H174141   3.699   6.691   4.936
24633WAT     H274142   3.848   6.648   4.986
24634WAT      O74143   8.887   1.389   7.410
24634WAT     H174144   8.947   1.463   7.380
24634WAT     H274145   8.877   1.392   7.510
24635WAT      O74146   3.682   4.011   0.555
24635WAT     H174147   3.615   3.955   0.604
24635WAT     H274148   3.751   4.044   0.619
24636WAT      O74149   0.452   2.119   9.147
24636WAT     H174150   0.370   2.084   9.192
24636WAT     H274151   0.479   2.206   9.189
24637WAT      O74152   6.167   9.727   7.799
24637WAT     H174153   6.115   9.700   7.880
24637WAT     H274154   6.199   9.645   7.751
24638WAT      O74155   0.954   3.376   1.399
24638WAT     H174156   1.019   3.446   1.429
24638WAT     H274157   0.875   3.419   1.357
24639WAT      O74158   0.755   0.597   4.473
24639WAT     H174159   0.728   0.556   4.386
24639WAT     H274160   0.714   0.546   4.548
24640WAT      O74161   7.841   9.587   1.189
24640WAT     H174162   7.797   9.635   1.113
24640WAT     H274163   7.939   9.578   1.170
24641WAT      O74164   1.009   1.345   5.763
24641WAT     H174165   1.033   1.426   5.711
24641WAT     H274166   0.929   1.364   5.820
24642WAT      O74167   1.005   3.291   0.898
24642WAT     H174168   1.063   3.324   0.972
24642WAT     H274169   0.914   3.269   0.933
24643WAT      O74170   5.707   4.561   0.281
24643WAT     H174171   5.625   4.525   0.235
24643WAT     H274172   5.788   4.533   0.230
24644WAT      O74173   3.355   1.561   9.220
24644WAT     H174174   3.341   1.623   9.298
24644WAT     H274175   3.450   1.532   9.216
24645WAT      O74176   4.652   1.679   6.303
24645WAT     H174177   4.581   1.728   6.252
24645WAT     H274178   4.735   1.736   6.306
24646WAT      O74179   9.176   5.239   5.014
24646WAT     H174180   9.215   5.295   4.941
24646WAT     H274181   9.249   5.192   5.063
24647WAT      O74182   3.835   4.138   0.741
24647WAT     H174183   3.896   4.217   0.748
24647WAT     H274184   3.881   4.057   0.778
24648WAT      O74185   1.700   9.392   5.540
24648WAT     H174186   1.650   9.477   5.524
24648WAT     H274187   1.711   9.377   5.639
24649WAT      O74188   9.888   9.716   6.898
24649WAT     H174189   9.797   9.713   6.856
24649WAT     H274190   9.937   9.797   6.867
24650WAT      O74191   4.352   2.537   6.553
24650WAT     H174192   4.300   2.501   6.631
24650WAT     H274193   4.351   2.471   6.479
24651WAT      O74194   0.192   2.787   3.500
24651WAT     H174195   0.290   2.805   3.509
24651WAT     H274196   0.178   2.710   3.438
24652WAT      O74197   2.497   9.047   0.182
24652WAT     H174198   2.521   9.131   0.134
24652WAT     H274199   2.439   9.069   0.261
24653WAT      O74200   7.286   5.657   7.624
24653WAT     H174201   7.285   5.638   7.722
24653WAT     H274202   7.201   5.623   7.582
24654WAT      O74203   4.510   4.017   8.224
24654WAT     H174204   4.548   3.941   8.276
24654WAT     H274205   4.550   4.103   8.256
24655WAT      O74206   1.993   0.564   5.157
24655WAT     H174207   2.088   0.595   5.158
24655WAT     H274208   1.981   0.493   5.087
24656WAT      O74209   2.775   8.891   4.676
24656WAT     H174210   2.843   8.943   4.727
24656WAT     H274211   2.683   8.915   4.709
24657WAT      O74212   4.199   9.620   0.884
24657WAT     H174213   4.133   9.617   0.959
24657WAT     H274214   4.292   9.612   0.921
24658WAT      O74215   1.707   9.461   8.380
24658WAT     H174216   1.683   9.368   8.406
24658WAT     H274217   1.655   9.526   8.436
24659WAT      O74218   8.419   2.550   8.409
24659WAT     H174219   8.387   2.562   8.503
24659WAT     H274220   8.356   2.489   8.361
24660WAT      O74221   5.531   3.320   0.354
24660WAT     H174222   5.468   3.344   0.280
24660WAT     H274223   5.565   3.404   0.397
24661WAT      O74224   2.179   8.825   7.097
24661WAT     H174225   2.272   8.826   7.134
24661WAT     H274226   2.158   8.733   7.063
24662WAT      O74227   7.241   0.295   7.363
24662WAT     H174228   7.212   0.353   7.439
24662WAT     H274229   7.164   0.279   7.301
24663WAT      O74230   6.072   5.898   9.028
24663WAT     H174231   6.004   5.941   9.088
24663WAT     H274232   6.037   5.895   8.934
24664WAT      O74233   2.415   4.004   1.428
24664WAT     H174234   2.489   4.061   1.465
24664WAT     H274235   2.450   3.912   1.411
24665WAT      O74236   2.122   1.338   5.496
24665WAT     H174237   2.111   1.239   5.486
24665WAT     H274238   2.147   1.358   5.591
24666WAT      O74239   4.979   2.374   5.470
24666WAT     H174240   5.062   2.318   5.459
24666WAT     H274241   4.899   2.317   5.454
24667WAT      O74242   4.963   6.777   1.393
24667WAT     H174243   5.034   6.752   1.459
24667WAT     H274244   4.952   6.704   1.326
24668WAT      O74245   8.823   2.501   5.906
24668WAT     H174246   8.879   2.434   5.858
24668WAT     H274247   8.866   2.525   5.993
24669WAT      O74248   7.922   7.428   6.643
24669WAT     H174249   7.946   7.336   6.675
24669WAT     H274250   7.823   7.441   6.651
24670WAT      O74251   0.009   7.297   3.147
24670WAT     H174252   0.041   7.382   3.106
24670WAT     H274253  -0.084   7.310   3.183
24671WAT      O74254   6.831   3.341   2.126
24671WAT     H174255   6.812   3.439   2.130
24671WAT     H274256   6.803   3.298   2.211
24672WAT      O74257   7.031   2.651   2.101
24672WAT     H174258   6.957   2.607   2.050
24672WAT     H274259   7.109   2.667   2.040
24673WAT      O74260   9.332   4.800   1.035
24673WAT     H174261   9.316   4.826   0.940
24673WAT     H274262   9.282   4.861   1.095
24674WAT      O74263   5.840   9.446   8.163
24674WAT     H174264   5.895   9.428   8.244
24674WAT     H274265   5.748   9.475   8.191
24675WAT      O74266   7.107   0.685   0.207
24675WAT     H174267   7.046   0.624   0.155
24675WAT     H274268   7.192   0.637   0.228
24676WAT      O74269   2.547   9.491   1.205
24676WAT     H174270   2.527   9.570   1.264
24676WAT     H274271   2.595   9.421   1.258
24677WAT      O74272   7.050   7.132   0.526
24677WAT     H174273   6.951   7.135   0.509
24677WAT     H274274   7.072   7.053   0.582
24678WAT      O74275   6.371   2.339   6.272
24678WAT     H174276   6.321   2.301   6.350
24678WAT     H274277   6.346   2.435   6.261
24679WAT      O74278   7.153   3.667   3.353
24679WAT     H174279   7.100   3.738   3.307
24679WAT     H274280   7.162   3.689   3.450
24680WAT      O74281   6.807   2.278   0.578
24680WAT     H174282   6.906   2.267   0.590
24680WAT     H274283   6.789   2.366   0.534
24681WAT      O74284   6.714   1.516   0.387
24681WAT     H174285   6.758   1.605   0.375
24681WAT     H274286   6.764   1.463   0.456
24682WAT      O74287   0.562   7.410   6.474
24682WAT     H174288   0.645   7.430   6.526
24682WAT     H274289   0.584   7.352   6.396
24683WAT      O74290   1.021   2.580   8.141
24683WAT     H174291   0.997   2.591   8.238
24683WAT     H274292   1.100   2.519   8.133
24684WAT      O74293   7.338   7.998   4.405
24684WAT     H174294   7.332   7.957   4.495
24684WAT     H274295   7.432   8.029   4.388
24685WAT      O74296   0.649   4.145   8.271
24685WAT     H174297   0.633   4.102   8.359
24685WAT     H274298   0.562   4.174   8.231
24686WAT      O74299   0.634   6.942   1.128
24686WAT     H174300   0.640   7.025   1.182
24686WAT     H274301   0.564   6.953   1.058
24687WAT      O74302   4.086   6.690   3.920
24687WAT     H174303   4.144   6.670   3.841
24687WAT     H274304   4.113   6.778   3.960
24688WAT      O74305   8.569   1.598   6.502
24688WAT     H174306   8.605   1.506   6.515
24688WAT     H274307   8.517   1.625   6.583
24689WAT      O74308   7.700   2.932   0.857
24689WAT     H174309   7.699   2.856   0.921
24689WAT     H274310   7.731   2.901   0.768
24690WAT      O74311   0.531   3.674   8.913
24690WAT     H174312   0.463   3.711   8.850
24690WAT     H274313   0.598   3.621   8.862
24691WAT      O74314   0.679   1.902   8.024
24691WAT     H174315   0.722   1.941   7.943
24691WAT     H274316   0.747   1.852   8.078
24692WAT      O74317   9.689   3.832   0.624
24692WAT     H174318   9.629   3.781   0.562
24692WAT     H274319   9.634   3.894   0.680
24693WAT      O74320   9.522   4.440   4.347
24693WAT     H174321   9.508   4.341   4.347
24693WAT     H274322   9.526   4.474   4.441
24694WAT      O74323   2.552   4.715   8.353
24694WAT     H174324   2.597   4.803   8.366
24694WAT     H274325   2.583   4.651   8.423
24695WAT      O74326   8.748   7.173   9.514
24695WAT     H174327   8.693   7.214   9.586
24695WAT     H274328   8.777   7.081   9.541
24696WAT      O74329   8.116   8.738   1.242
24696WAT     H174330   8.191   8.697   1.294
24696WAT     H274331   8.098   8.682   1.161
24697WAT      O74332   3.264   2.832   0.471
24697WAT     H174333   3.363   2.838   0.487
24697WAT     H274334   3.217   2.894   0.534
24698WAT      O74335   9.315   3.387   8.855
24698WAT     H174336   9.352   3.380   8.762
24698WAT     H274337   9.306   3.296   8.895
24699WAT      O74338   1.390   3.496   3.661
24699WAT     H174339   1.360   3.485   3.756
24699WAT     H274340   1.401   3.406   3.618
24700WAT      O74341   1.071   3.531   8.885
24700WAT     H174342   1.070   3.482   8.973
24700WAT     H274343   1.002   3.604   8.886
24701WAT      O74344   6.795   7.895   8.982
24701WAT     H174345   6.881   7.853   9.012
24701WAT     H274346   6.803   7.994   8.986
24702WAT      O74347   6.263   0.784   1.101
24702WAT     H174348   6.348   0.735   1.082
24702WAT     H274349   6.280   0.883   1.103
24703WAT      O74350   8.323   8.446   9.590
24703WAT     H174351   8.231   8.483   9.604
24703WAT     H274352   8.350   8.457   9.495
24704WAT      O74353   6.188   7.623   8.785
24704WAT     H174354   6.146   7.712   8.803
24704WAT     H274355   6.275   7.616   8.835
24705WAT      O74356   2.336   6.386   8.850
24705WAT     H174357   2.383   6.310   8.894
24705WAT     H274358   2.322   6.460   8.916
24706WAT      O74359   3.791   4.869   4.007
24706WAT     H174360   3.779   4.908   4.099
24706WAT     H274361   3.887   4.848   3.992
24707WAT      O74362   4.823   6.503   2.527
24707WAT     H174363   4.752   6.568   2.498
24707WAT     H274364   4.847   6.521   2.623
24708WAT      O74365   0.211   3.113   0.889
24708WAT     H174366   0.229   3.023   0.847
24708WAT     H274367   0.220   3.184   0.820
24709WAT      O74368   5.857   5.388   7.231
24709WAT     H174369   5.917   5.440   7.292
24709WAT     H274370   5.803   5.324   7.284
24710WAT      O74371   8.967   2.197   7.558
24710WAT     H174372   8.905   2.254   7.613
24710WAT     H274373   9.060   2.205   7.595
24711WAT      O74374   4.610   7.213   8.167
24711WAT     H174375   4.604   7.303   8.124
24711WAT     H274376   4.663   7.151   8.109
24712WAT      O74377   5.056   9.462   5.097
24712WAT     H174378   5.014   9.393   5.156
24712WAT     H274379   5.112   9.524   5.152
24713WAT      O74380   8.949   3.290   7.564
24713WAT     H174381   9.006   3.270   7.644
24713WAT     H274382   8.866   3.235   7.568
24714WAT      O74383   6.470   5.452   4.523
24714WAT     H174384   6.552   5.448   4.466
24714WAT     H274385   6.442   5.548   4.533
24715WAT      O74386   6.982   2.302   1.132
24715WAT     H174387   7.022   2.222   1.177
24715WAT     H274388   6.887   2.282   1.108
24716WAT      O74389   5.102   3.084   7.514
24716WAT     H174390   5.003   3.090   7.503
24716WAT     H274391   5.126   3.094   7.611
24717WAT      O74392   9.589   4.674   7.160
24717WAT     H174393   9.669   4.618   7.141
24717WAT     H274394   9.617   4.769   7.174
24718WAT      O74395   3.040   8.151   8.289
24718WAT     H174396   3.029   8.058   8.253
24718WAT     H274397   2.973   8.166   8.362
24719WAT      O74398   7.819   7.671   2.837
24719WAT     H174399   7.723   7.654   2.860
24719WAT     H274400   7.834   7.769   2.828
24720WAT      O74401   3.769   1.909   6.067
24720WAT     H174402   3.711   1.834   6.036
24720WAT     H274403   3.712   1.981   6.107
24721WAT      O74404   4.726   2.291   0.681
24721WAT     H174405   4.747   2.199   0.715
24721WAT     H274406   4.653   2.331   0.737
24722WAT      O74407   2.500   2.197   3.686
24722WAT     H174408   2.491   2.227   3.591
24722WAT     H274409   2.477   2.100   3.692
24723WAT      O74410   2.547   3.194   3.591
24723WAT     H174411   2.455   3.184   3.629
24723WAT     H274412   2.540   3.224   3.496
24724WAT      O74413   7.877   6.435   8.036
24724WAT     H174414   7.862   6.402   8.129
24724WAT     H274415   7.847   6.366   7.970
24725WAT      O74416   8.412   7.691   4.605
24725WAT     H174417   8.353   7.664   4.682
24725WAT     H274418   8.495   7.635   4.606
24726WAT      O74419   5.536   2.135   1.276
24726WAT     H174420   5.567   2.143   1.370
24726WAT     H274421   5.532   2.038   1.250
24727WAT      O74422   6.072   4.507   0.364
24727WAT     H174423   6.038   4.520   0.270
24727WAT     H274424   6.168   4.535   0.369
24728WAT      O74425   0.636   5.792   9.030
24728WAT     H174426   0.566   5.862   9.036
24728WAT     H274427   0.722   5.827   9.069
24729WAT      O74428   0.340   0.696   3.546
24729WAT     H174429   0.326   0.766   3.476
24729WAT     H274430   0.300   0.726   3.632
24730WAT      O74431   0.293   7.577   2.744
24730WAT     H174432   0.310   7.673   2.721
24730WAT     H274433   0.221   7.572   2.814
24731WAT      O74434   8.797   1.156   1.431
24731WAT     H174435   8.839   1.207   1.506
24731WAT     H274436   8.821   1.199   1.344
24732WAT      O74437   7.794   2.681   8.665
24732WAT     H174438   7.711   2.631   8.689
24732WAT     H274439   7.827   2.732   8.744
24733WAT      O74440   7.760   2.765   1.616
24733WAT     H174441   7.715   2.793   1.701
24733WAT     H274442   7.856   2.743   1.636
24734WAT      O74443   2.547   1.974   2.888
24734WAT     H174444   2.457   1.967   2.846
24734WAT     H274445   2.606   1.901   2.852
24735WAT      O74446   7.438   3.325   3.481
24735WAT     H174447   7.354   3.272   3.465
24735WAT     H274448   7.508   3.297   3.415
24736WAT      O74449   4.254   6.363   4.976
24736WAT     H174450   4.225   6.278   5.020
24736WAT     H274451   4.189   6.388   4.905
24737WAT      O74452   5.090   4.779   1.722
24737WAT     H174453   5.105   4.685   1.753
24737WAT     H274454   5.169   4.835   1.746
24738WAT      O74455   3.120   0.639   5.038
24738WAT     H174456   3.081   0.729   5.021
24738WAT     H274457   3.209   0.632   4.993
24739WAT      O74458   9.174   6.813   6.710
24739WAT     H174459   9.092   6.804   6.768
24739WAT     H274460   9.175   6.738   6.643
24740WAT      O74461   9.629   3.535   2.703
24740WAT     H174462   9.666   3.443   2.691
24740WAT     H274463   9.657   3.571   2.792
24741WAT      O74464   1.902   7.863   5.868
24741WAT     H174465   1.808   7.891   5.847
24741WAT     H274466   1.939   7.811   5.791
24742WAT      O74467   3.121   0.428   1.620
24742WAT     H174468   3.156   0.335   1.635
24742WAT     H274469   3.120   0.477   1.707
24743WAT      O74470   0.062   1.355   7.322
24743WAT     H174471  -0.003   1.367   7.397
24743WAT     H274472   0.103   1.264   7.327
24744WAT      O74473   1.084   0.361   9.383
24744WAT     H174474   1.060   0.458   9.374
24744WAT     H274475   1.173   0.353   9.427
24745WAT      O74476   3.745   1.310   6.848
24745WAT     H174477   3.728   1.257   6.765
24745WAT     H274478   3.836   1.289   6.883
24746WAT      O74479   1.010   1.268   7.687
24746WAT     H174480   1.075   1.227   7.623
24746WAT     H274481   0.934   1.310   7.637
24747WAT      O74482   7.775   1.560   8.280
24747WAT     H174483   7.702   1.492   8.279
24747WAT     H274484   7.778   1.606   8.191
24748WAT      O74485   7.925   0.589   5.736
24748WAT     H174486   7.933   0.616   5.640
24748WAT     H274487   7.921   0.670   5.794
24749WAT      O74488   8.160   0.677   9.632
24749WAT     H174489   8.178   0.581   9.611
24749WAT     H274490   8.136   0.687   9.728
24750WAT      O74491   1.402   4.946   4.398
24750WAT     H174492   1.494   4.958   4.435
24750WAT     H274493   1.350   5.031   4.411
24751WAT      O74494   8.929   9.304   2.579
24751WAT     H174495   8.940   9.210   2.613
24751WAT     H274496   8.999   9.362   2.622
24752WAT      O74497   7.618   5.432  -0.004
24752WAT     H174498   7.533   5.394   0.032
24752WAT     H274499   7.695   5.381   0.033
24753WAT      O74500   3.803   8.648   9.577
24753WAT     H174501   3.852   8.715   9.634
24753WAT     H274502   3.762   8.579   9.636
24754WAT      O74503   4.655   9.619   7.834
24754WAT     H174504   4.565   9.656   7.858
24754WAT     H274505   4.672   9.634   7.736
24755WAT      O74506   9.376   8.526   5.616
24755WAT     H174507   9.402   8.590   5.543
24755WAT     H274508   9.346   8.440   5.575
24756WAT      O74509   0.576   4.714   0.628
24756WAT     H174510   0.620   4.741   0.714
24756WAT     H274511   0.630   4.642   0.584
24757WAT      O74512   4.699   0.460   0.716
24757WAT     H174513   4.774   0.470   0.651
24757WAT     H274514   4.733   0.427   0.803
24758WAT      O74515   7.434   1.456   4.575
24758WAT     H174516   7.401   1.384   4.636
24758WAT     H274517   7.358   1.491   4.521
24759WAT      O74518   9.746   9.003   2.445
24759WAT     H174519   9.818   9.058   2.402
24759WAT     H274520   9.700   8.949   2.375
24760WAT      O74521   9.531   5.333   5.766
24760WAT     H174522   9.552   5.379   5.853
24760WAT     H274523   9.519   5.401   5.694
24761WAT      O74524   5.641   7.976   5.213
24761WAT     H174525   5.563   8.034   5.188
24761WAT     H274526   5.670   7.998   5.307
24762WAT      O74527   6.689   9.234   7.648
24762WAT     H174528   6.655   9.211   7.556
24762WAT     H274529   6.782   9.198   7.658
24763WAT      O74530   2.130   5.362   0.078
24763WAT     H174531   2.186   5.351   0.160
24763WAT     H274532   2.172   5.432   0.019
24764WAT      O74533   7.517   1.201   7.000
24764WAT     H174534   7.453   1.126   6.984
24764WAT     H274535   7.476   1.267   7.063
24765WAT      O74536   1.256   1.030   3.743
24765WAT     H174537   1.308   0.947   3.761
24765WAT     H274538   1.189   1.044   3.816
24766WAT      O74539   1.969   8.304   2.716
24766WAT     H174540   1.900   8.285   2.647
24766WAT     H274541   1.981   8.223   2.774
24767WAT      O74542   0.990   4.553   5.167
24767WAT     H174543   1.054   4.484   5.133
24767WAT     H274544   0.902   4.510   5.187
24768WAT      O74545   5.450   5.316   9.675
24768WAT     H174546   5.510   5.358   9.743
24768WAT     H274547   5.446   5.218   9.690
24769WAT      O74548   0.217   6.920   3.978
24769WAT     H174549   0.236   7.016   3.998
24769WAT     H274550   0.213   6.868   4.063
24770WAT      O74551   7.463   7.110   1.895
24770WAT     H174552   7.373   7.130   1.935
24770WAT     H274553   7.534   7.125   1.964
24771WAT      O74554   2.732   9.144   4.817
24771WAT     H174555   2.699   9.238   4.809
24771WAT     H274556   2.816   9.143   4.870
24772WAT      O74557   8.774   1.267   5.920
24772WAT     H174558   8.749   1.269   6.017
24772WAT     H274559   8.797   1.360   5.890
24773WAT      O74560   6.329   4.675   5.190
24773WAT     H174561   6.251   4.655   5.131
24773WAT     H274562   6.362   4.768   5.172
24774WAT      O74563   8.501   4.264   7.392
24774WAT     H174564   8.449   4.179   7.394
24774WAT     H274565   8.559   4.266   7.311
24775WAT      O74566   2.888   8.863   6.187
24775WAT     H174567   2.894   8.860   6.087
24775WAT     H274568   2.857   8.954   6.215
24776WAT      O74569   9.133   8.605   0.009
24776WAT     H174570   9.225   8.614  -0.029
24776WAT     H274571   9.100   8.695   0.037
24777WAT      O74572   3.889   4.976   2.054
24777WAT     H174573   3.816   5.029   2.097
24777WAT     H274574   3.972   4.981   2.110
24778WAT      O74575   7.679   3.171   0.543
24778WAT     H174576   7.756   3.142   0.486
24778WAT     H274577   7.638   3.254   0.505
24779WAT      O74578   1.959   2.660   1.396
24779WAT     H174579   1.954   2.654   1.296
24779WAT     H274580   1.899   2.733   1.429
24780WAT      O74581   4.170   7.894   6.258
24780WAT     H174582   4.134   7.834   6.187
24780WAT     H274583   4.114   7.884   6.341
24781WAT      O74584   8.845   5.772   3.082
24781WAT     H174585   8.836   5.796   2.985
24781WAT     H274586   8.767   5.716   3.110
24782WAT      O74587   3.867   8.740   9.325
24782WAT     H174588   3.845   8.671   9.256
24782WAT     H274589   3.851   8.701   9.416
24783WAT      O74590   0.410   2.835   8.009
24783WAT     H174591   0.434   2.760   7.949
24783WAT     H274592   0.415   2.921   7.959
24784WAT      O74593   7.461   7.008   5.277
24784WAT     H174594   7.457   6.982   5.374
24784WAT     H274595   7.400   6.947   5.225
24785WAT      O74596   0.691   2.175   6.732
24785WAT     H174597   0.658   2.121   6.810
24785WAT     H274598   0.630   2.159   6.653
24786WAT      O74599   6.805   1.184   5.601
24786WAT     H174600   6.887   1.197   5.546
24786WAT     H274601   6.775   1.088   5.594
24787WAT      O74602   8.699   5.941   7.001
24787WAT     H174603   8.623   5.879   7.016
24787WAT     H274604   8.669   6.036   7.015
24788WAT      O74605   9.840   5.050   3.539
24788WAT     H174606   9.745   5.079   3.538
24788WAT     H274607   9.844   4.951   3.554
24789WAT      O74608   8.973   4.593   2.177
24789WAT     H174609   8.927   4.677   2.203
24789WAT     H274610   9.025   4.608   2.093
24790WAT      O74611   2.378   1.422   7.377
24790WAT     H174612   2.317   1.501   7.383
24790WAT     H274613   2.419   1.403   7.466
24791WAT      O74614   7.120   1.402   3.613
24791WAT     H174615   7.114   1.386   3.514
24791WAT     H274616   7.183   1.335   3.653
24792WAT      O74617   3.866   1.681   2.669
24792WAT     H174618   3.957   1.709   2.701
24792WAT     H274619   3.856   1.705   2.573
24793WAT      O74620   4.830   5.817   2.289
24793WAT     H174621   4.759   5.884   2.312
24793WAT     H274622   4.918   5.848   2.325
24794WAT      O74623   9.198   7.061   6.784
24794WAT     H174624   9.184   6.981   6.724
24794WAT     H274625   9.147   7.048   6.869
24795WAT      O74626   7.218   0.357   1.861
24795WAT     H174627   7.213   0.411   1.945
24795WAT     H274628   7.213   0.260   1.883
24796WAT      O74629   4.359   1.224   7.858
24796WAT     H174630   4.404   1.187   7.777
24796WAT     H274631   4.429   1.255   7.923
24797WAT      O74632   1.703   6.204   4.459
24797WAT     H174633   1.741   6.248   4.378
24797WAT     H274634   1.612   6.168   4.438
24798WAT      O74635   4.596   8.788   9.574
24798WAT     H174636   4.557   8.750   9.490
24798WAT     H274637   4.523   8.831   9.627
24799WAT      O74638   3.904   0.527   0.263
24799WAT     H174639   3.899   0.497   0.168
24799WAT     H274640   3.993   0.506   0.301
24800WAT      O74641   1.285   6.865   2.894
24800WAT     H174642   1.273   6.844   2.992
24800WAT     H274643   1.352   6.802   2.855
24801WAT      O74644   4.526   9.138   5.458
24801WAT     H174645   4.429   9.143   5.484
24801WAT     H274646   4.552   9.042   5.449
24802WAT      O74647   3.805   7.876   5.544
24802WAT     H174648   3.741   7.824   5.487
24802WAT     H274649   3.882   7.817   5.569
24803WAT      O74650   9.623   7.327   5.611
24803WAT     H174651   9.718   7.356   5.601
24803WAT     H274652   9.565   7.384   5.552
24804WAT      O74653   6.114   8.810   6.964
24804WAT     H174654   6.090   8.789   7.059
24804WAT     H274655   6.204   8.855   6.961
24805WAT      O74656   7.055   9.564   9.664
24805WAT     H174657   7.111   9.558   9.582
24805WAT     H274658   7.067   9.481   9.718
24806WAT      O74659   6.752   9.156   4.405
24806WAT     H174660   6.841   9.144   4.360
24806WAT     H274661   6.767   9.192   4.498
24807WAT      O74662   9.351   0.618   5.500
24807WAT     H174663   9.286   0.543   5.486
24807WAT     H274664   9.421   0.614   5.429
24808WAT      O74665   1.077   7.231   8.883
24808WAT     H174666   1.039   7.308   8.934
24808WAT     H274667   1.039   7.230   8.790
24809WAT      O74668   7.592   5.574   2.462
24809WAT     H174669   7.664   5.641   2.481
24809WAT     H274670   7.625   5.482   2.483
24810WAT      O74671   1.088   3.385   1.150
24810WAT     H174672   1.179   3.399   1.190
24810WAT     H274673   1.025   3.355   1.222
24811WAT      O74674   1.194   8.818   2.342
24811WAT     H174675   1.105   8.862   2.355
24811WAT     H274676   1.258   8.883   2.302
24812WAT      O74677   7.464   5.525   7.463
24812WAT     H174678   7.416   5.485   7.386
24812WAT     H274679   7.401   5.581   7.516
24813WAT      O74680   5.841   4.813   6.035
24813WAT     H174681   5.800   4.722   6.044
24813WAT     H274682   5.858   4.851   6.126
24814WAT      O74683   1.046   0.693   9.645
24814WAT     H174684   1.001   0.607   9.667
24814WAT     H274685   1.000   0.768   9.693
24815WAT      O74686   4.975   1.819   7.292
24815WAT     H174687   4.901   1.864   7.243
24815WAT     H274688   5.014   1.746   7.236
24816WAT      O74689   2.864   4.858   6.457
24816WAT     H174690   2.779   4.853   6.405
24816WAT     H274691   2.872   4.949   6.500
24817WAT      O74692   1.296   3.687   5.549
24817WAT     H174693   1.213   3.742   5.559
24817WAT     H274694   1.373   3.748   5.530
24818WAT      O74695   0.236   9.231   3.602
24818WAT     H174696   0.206   9.143   3.568
24818WAT     H274697   0.322   9.220   3.652
24819WAT      O74698   7.203   4.101   1.713
24819WAT     H174699   7.283   4.110   1.772
24819WAT     H274700   7.141   4.178   1.729
24820WAT      O74701   4.810   4.196   3.040
24820WAT     H174702   4.807   4.196   3.140
24820WAT     H274703   4.736   4.139   3.005
24821WAT      O74704   2.019   0.455   9.142
24821WAT     H174705   1.924   0.482   9.161
24821WAT     H274706   2.022   0.407   9.055
24822WAT      O74707   8.536   1.142   8.352
24822WAT     H174708   8.558   1.214   8.286
24822WAT     H274709   8.591   1.061   8.333
24823WAT      O74710   8.190   9.741   9.251
24823WAT     H174711   8.216   9.652   9.288
24823WAT     H274712   8.240   9.813   9.300
24824WAT      O74713   7.766   4.459   1.405
24824WAT     H174714   7.743   4.390   1.336
24824WAT     H274715   7.830   4.525   1.366
24825WAT      O74716   9.422   1.638   9.145
24825WAT     H174717   9.335   1.620   9.191
24825WAT     H274718   9.429   1.735   9.123
24826WAT      O74719   1.230   0.816   7.249
24826WAT     H174720   1.270   0.908   7.252
24826WAT     H274721   1.297   0.749   7.281
24827WAT      O74722   6.513   2.306   3.935
24827WAT     H174723   6.563   2.228   3.898
24827WAT     H274724   6.538   2.388   3.884
24828WAT      O74725   6.306   5.755   5.956
24828WAT     H174726   6.357   5.835   5.988
24828WAT     H274727   6.246   5.722   6.030
24829WAT      O74728   1.252   6.456   8.574
24829WAT     H174729   1.221   6.505   8.656
24829WAT     H274730   1.328   6.396   8.598
24830WAT      O74731   8.336   3.608   5.089
24830WAT     H174732   8.318   3.700   5.124
24830WAT     H274733   8.350   3.612   4.990
24831WAT      O74734   0.880   5.994   9.081
24831WAT     H174735   0.818   6.045   9.021
24831WAT     H274736   0.964   6.047   9.093
24832WAT      O74737   5.427   2.921   2.425
24832WAT     H174738   5.493   2.901   2.354
24832WAT     H274739   5.339   2.945   2.383
24833WAT      O74740   8.079   4.661   3.290
24833WAT     H174741   8.115   4.570   3.268
24833WAT     H274742   8.139   4.705   3.357
24834WAT      O74743   2.708   0.956   6.377
24834WAT     H174744   2.610   0.933   6.374
24834WAT     H274745   2.759   0.878   6.413
24835WAT      O74746   9.396   1.715   0.942
24835WAT     H174747   9.397   1.676   0.850
24835WAT     H274748   9.464   1.667   0.999
24836WAT      O74749   2.612   2.326   0.774
24836WAT     H174750   2.697   2.354   0.818
24836WAT     H274751   2.610   2.361   0.680
24837WAT      O74752   7.537   1.610   1.046
24837WAT     H174753   7.567   1.702   1.018
24837WAT     H274754   7.526   1.607   1.145
24838WAT      O74755   3.493   9.188   8.279
24838WAT     H174756   3.544   9.224   8.357
24838WAT     H274757   3.440   9.262   8.238
24839WAT      O74758   1.111   1.321   6.313
24839WAT     H174759   1.208   1.301   6.301
24839WAT     H274760   1.060   1.234   6.318
24840WAT      O74761   1.624   5.386   7.908
24840WAT     H174762   1.530   5.352   7.918
24840WAT     H274763   1.671   5.334   7.837
24841WAT      O74764   4.183   8.554   6.131
24841WAT     H174765   4.160   8.624   6.064
24841WAT     H274766   4.281   8.534   6.126
24842WAT      O74767   2.473   1.465   3.305
24842WAT     H174768   2.453   1.513   3.220
24842WAT     H274769   2.427   1.510   3.382
24843WAT      O74770   5.882   3.433   8.177
24843WAT     H174771   5.970   3.446   8.131
24843WAT     H274772   5.819   3.507   8.151
24844WAT      O74773   0.603   2.496   9.617
24844WAT     H174774   0.588   2.444   9.533
24844WAT     H274775   0.660   2.442   9.680
24845WAT      O74776   6.861   6.891   5.983
24845WAT     H174777   6.855   6.861   5.888
24845WAT     H274778   6.906   6.819   6.037
24846WAT      O74779   4.825   8.086   2.557
24846WAT     H174780   4.831   8.137   2.643
24846WAT     H274781   4.767   8.136   2.492
24847WAT      O74782   5.705   0.677   0.078
24847WAT     H174783   5.713   0.640   0.170
24847WAT     H274784   5.772   0.634   0.018
24848WAT      O74785   4.955   9.416   2.392
24848WAT     H174786   4.998   9.334   2.354
24848WAT     H274787   5.019   9.493   2.384
24849WAT      O74788   1.090   2.458   1.314
24849WAT     H174789   1.046   2.426   1.398
24849WAT     H274790   1.189   2.449   1.324
24850WAT      O74791   8.171   8.285   3.526
24850WAT     H174792   8.122   8.244   3.603
24850WAT     H274793   8.106   8.307   3.453
24851WAT      O74794   3.956   4.454   1.694
24851WAT     H174795   3.912   4.364   1.698
24851WAT     H274796   3.932   4.506   1.776
24852WAT      O74797   6.600   1.985   9.572
24852WAT     H174798   6.542   2.064   9.554
24852WAT     H274799   6.631   1.946   9.485
24853WAT      O74800   0.924   3.972   8.592
24853WAT     H174801   0.973   3.971   8.679
24853WAT     H274802   0.977   4.024   8.525
24854WAT      O74803   7.928   2.598   6.815
24854WAT     H174804   7.950   2.687   6.775
24854WAT     H274805   7.903   2.534   6.742
24855WAT      O74806   1.745   0.800   7.965
24855WAT     H174807   1.829   0.755   7.935
24855WAT     H274808   1.700   0.842   7.886
24856WAT      O74809   2.984   7.754   7.382
24856WAT     H174810   2.916   7.768   7.310
24856WAT     H274811   3.055   7.823   7.375
24857WAT      O74812   6.497   3.798   4.277
24857WAT     H174813   6.589   3.837   4.282
24857WAT     H274814   6.472   3.761   4.367
24858WAT      O74815   4.306   5.854   5.291
24858WAT     H174816   4.293   5.943   5.335
24858WAT     H274817   4.217   5.814   5.270
24859WAT      O74818   7.800   4.027   9.813
24859WAT     H174819   7.733   4.100   9.796
24859WAT     H274820   7.752   3.943   9.836
24860WAT      O74821   5.546   0.524   8.191
24860WAT     H174822   5.553   0.563   8.099
24860WAT     H274823   5.637   0.523   8.233
24861WAT      O74824   4.433   1.999   7.956
24861WAT     H174825   4.490   2.065   8.005
24861WAT     H274826   4.440   1.910   8.002
24862WAT      O74827   5.465   1.942   5.007
24862WAT     H174828   5.523   1.896   5.074
24862WAT     H274829   5.509   2.027   4.978
24863WAT      O74830   1.625   1.972   6.153
24863WAT     H174831   1.691   1.981   6.078
24863WAT     H274832   1.549   1.914   6.124
24864WAT      O74833   1.141   5.738   3.806
24864WAT     H174834   1.163   5.806   3.736
24864WAT     H274835   1.167   5.647   3.775
24865WAT      O74836   1.267   8.988   7.168
24865WAT     H174837   1.224   8.966   7.081
24865WAT     H274838   1.213   8.950   7.243
24866WAT      O74839   7.296   1.705   4.929
24866WAT     H174840   7.339   1.673   5.013
24866WAT     H274841   7.245   1.789   4.947
24867WAT      O74842   0.561   7.252   2.369
24867WAT     H174843   0.486   7.227   2.308
24867WAT     H274844   0.615   7.171   2.391
24868WAT      O74845   9.803   4.702   2.116
24868WAT     H174846   9.737   4.774   2.137
24868WAT     H274847   9.755   4.613   2.115
24869WAT      O74848   1.836   5.573   0.411
24869WAT     H174849   1.768   5.630   0.458
24869WAT     H274850   1.923   5.580   0.459
24870WAT      O74851   2.692   1.982   4.224
24870WAT     H174852   2.650   2.073   4.226
24870WAT     H274853   2.736   1.964   4.312
24871WAT      O74854   8.412   2.961   6.819
24871WAT     H174855   8.342   2.904   6.861
24871WAT     H274856   8.475   2.903   6.767
24872WAT      O74857   9.099   8.140   3.039
24872WAT     H174858   9.020   8.197   3.015
24872WAT     H274859   9.168   8.197   3.085
24873WAT      O74860   4.984   3.905   0.797
24873WAT     H174861   4.901   3.961   0.786
24873WAT     H274862   4.967   3.835   0.866
24874WAT      O74863   6.820   7.475   5.946
24874WAT     H174864   6.733   7.456   5.900
24874WAT     H274865   6.874   7.391   5.952
24875WAT      O74866   4.183   2.433   0.429
24875WAT     H174867   4.115   2.427   0.356
24875WAT     H274868   4.212   2.341   0.455
24876WAT      O74869   1.299   1.127   3.107
24876WAT     H174870   1.262   1.037   3.087
24876WAT     H274871   1.283   1.187   3.028
24877WAT      O74872   0.907   2.541   8.421
24877WAT     H174873   1.007   2.540   8.415
24877WAT     H274874   0.879   2.495   8.506
24878WAT      O74875   3.141   5.838   0.373
24878WAT     H174876   3.181   5.854   0.463
24878WAT     H274877   3.097   5.748   0.372
24879WAT      O74878   1.743   4.871   1.028
24879WAT     H174879   1.747   4.971   1.020
24879WAT     H274880   1.650   4.844   1.052
24880WAT      O74881   0.709   9.571   3.060
24880WAT     H174882   0.648   9.500   3.023
24880WAT     H274883   0.684   9.660   3.021
24881WAT      O74884   6.025   6.298   7.941
24881WAT     H174885   6.011   6.378   7.882
24881WAT     H274886   5.951   6.293   8.008
24882WAT      O74887   8.934   5.361   6.964
24882WAT     H174888   9.004   5.314   6.910
24882WAT     H274889   8.849   5.308   6.961
24883WAT      O74890   4.794   2.333   5.759
24883WAT     H174891   4.779   2.357   5.855
24883WAT     H274892   4.853   2.401   5.716
24884WAT      O74893   8.935   1.960   1.317
24884WAT     H174894   8.960   1.909   1.399
24884WAT     H274895   8.843   1.998   1.329
24885WAT      O74896   5.711   7.141   4.133
24885WAT     H174897   5.616   7.111   4.130
24885WAT     H274898   5.715   7.237   4.160
24886WAT      O74899   0.569   2.696   3.128
24886WAT     H174900   0.528   2.611   3.095
24886WAT     H274901   0.511   2.773   3.103
24887WAT      O74902   1.566   1.558   3.192
24887WAT     H174903   1.589   1.640   3.245
24887WAT     H274904   1.488   1.512   3.234
24888WAT      O74905   0.779   1.678   3.249
24888WAT     H174906   0.861   1.728   3.223
24888WAT     H274907   0.713   1.742   3.290
24889WAT      O74908   0.259   8.029   6.621
24889WAT     H174909   0.339   8.059   6.569
24889WAT     H274910   0.198   7.977   6.561
24890WAT      O74911   7.459   7.452   4.616
24890WAT     H174912   7.433   7.416   4.526
24890WAT     H274913   7.510   7.383   4.667
24891WAT      O74914   1.484   0.625   9.394
24891WAT     H174915   1.468   0.636   9.296
24891WAT     H274916   1.547   0.696   9.426
24892WAT      O74917   6.402   6.635   6.255
24892WAT     H174918   6.377   6.575   6.178
24892WAT     H274919   6.330   6.630   6.325
24893WAT      O74920   4.923   8.145   7.013
24893WAT     H174921   4.830   8.150   6.978
24893WAT     H274922   4.947   8.049   7.031
24894WAT      O74923   7.431   8.507   3.465
24894WAT     H174924   7.516   8.560   3.468
24894WAT     H274925   7.369   8.546   3.398
24895WAT      O74926   3.603   7.343   4.893
24895WAT     H174927   3.687   7.291   4.911
24895WAT     H274928   3.584   7.402   4.971
24896WAT      O74929   9.550   7.032   2.916
24896WAT     H174930   9.486   6.959   2.894
24896WAT     H274931   9.629   7.028   2.854
24897WAT      O74932   5.577   2.408   2.714
24897WAT     H174933   5.650   2.340   2.715
24897WAT     H274934   5.611   2.493   2.674
24898WAT      O74935   5.214   4.477   0.279
24898WAT     H174936   5.247   4.463   0.185
24898WAT     H274937   5.275   4.540   0.326
24899WAT      O74938   7.688   4.046   6.212
24899WAT     H174939   7.604   4.050   6.266
24899WAT     H274940   7.675   3.985   6.134
24900WAT      O74941   0.337   6.943   2.802
24900WAT     H174942   0.316   7.002   2.880
24900WAT     H274943   0.433   6.914   2.808
24901WAT      O74944   0.623   7.705   7.863
24901WAT     H174945   0.695   7.674   7.926
24901WAT     H274946   0.535   7.671   7.896
24902WAT      O74947   8.143   3.583   0.855
24902WAT     H174948   8.098   3.497   0.829
24902WAT     H274949   8.081   3.637   0.912
24903WAT      O74950   8.205   8.694   3.196
24903WAT     H174951   8.166   8.749   3.122
24903WAT     H274952   8.281   8.640   3.161
24904WAT      O74953   6.462   0.524   8.359
24904WAT     H174954   6.365   0.511   8.378
24904WAT     H274955   6.478   0.513   8.261
24905WAT      O74956   6.961   6.887   8.867
24905WAT     H174957   6.948   6.789   8.855
24905WAT     H274958   6.975   6.907   8.964
24906WAT      O74959   2.872   7.782   2.228
24906WAT     H174960   2.920   7.763   2.313
24906WAT     H274961   2.889   7.708   2.163
24907WAT      O74962   0.336   9.423   5.869
24907WAT     H174963   0.291   9.352   5.815
24907WAT     H274964   0.277   9.448   5.946
24908WAT      O74965   0.268   6.793   4.235
24908WAT     H174966   0.256   6.881   4.282
24908WAT     H274967   0.359   6.757   4.255
24909WAT      O74968   9.784   5.886   7.502
24909WAT     H174969   9.712   5.900   7.570
24909WAT     H274970   9.862   5.944   7.524
24910WAT      O74971   5.678   4.323   9.767
24910WAT     H174972   5.690   4.225   9.780
24910WAT     H274973   5.767   4.366   9.753
24911WAT      O74974   7.082   8.525   8.770
24911WAT     H174975   7.040   8.615   8.784
24911WAT     H274976   7.018   8.467   8.720
24912WAT      O74977   6.015   8.623   3.181
24912WAT     H174978   6.052   8.640   3.272
24912WAT     H274979   5.942   8.690   3.162
24913WAT      O74980   3.822   7.486   1.597
24913WAT     H174981   3.841   7.518   1.690
24913WAT     H274982   3.895   7.517   1.536
24914WAT      O74983   0.207   7.546   2.373
24914WAT     H174984   0.228   7.466   2.429
24914WAT     H274985   0.144   7.606   2.422
24915WAT      O74986   3.082   0.494   7.364
24915WAT     H174987   3.066   0.584   7.324
24915WAT     H274988   3.047   0.492   7.457
24916WAT      O74989   9.465   3.057   0.020
24916WAT     H174990   9.564   3.058   0.036
24916WAT     H274991   9.420   3.118   0.085
24917WAT      O74992   8.743   1.027   6.292
24917WAT     H174993   8.766   1.116   6.253
24917WAT     H274994   8.826   0.973   6.305
24918WAT      O74995   7.003   7.471   0.111
24918WAT     H174996   6.917   7.421   0.116
24918WAT     H274997   7.035   7.473   0.017
24919WAT      O74998   8.237   2.835   4.504
24919WAT     H174999   8.216   2.744   4.539
24919WAT     H275000   8.236   2.902   4.579
24920WAT      O75001   9.779   8.649   0.439
24920WAT     H175002   9.742   8.566   0.396
24920WAT     H275003   9.864   8.626   0.487
24921WAT      O75004   7.259   8.579   6.113
24921WAT     H175005   7.265   8.649   6.043
24921WAT     H275006   7.176   8.525   6.100
24922WAT      O75007   3.194   1.046   6.426
24922WAT     H175008   3.253   1.118   6.462
24922WAT     H275009   3.121   1.087   6.371
24923WAT      O75010   2.512   6.205   2.507
24923WAT     H175011   2.565   6.257   2.574
24923WAT     H275012   2.414   6.211   2.531
24924WAT      O75013   8.491   2.594   7.620
24924WAT     H175014   8.403   2.602   7.574
24924WAT     H275015   8.546   2.524   7.574
24925WAT      O75016   9.159   2.672   6.235
24925WAT     H175017   9.076   2.630   6.197
24925WAT     H275018   9.146   2.771   6.241
24926WAT      O75019   3.340   8.930   2.686
24926WAT     H175020   3.343   8.833   2.711
24926WAT     H275021   3.270   8.976   2.740
24927WAT      O75022   1.918   9.594   7.451
24927WAT     H175023   1.819   9.581   7.455
24927WAT     H275024   1.958   9.568   7.539
24928WAT      O75025   2.644   7.733   3.956
24928WAT     H175026   2.592   7.806   4.000
24928WAT     H275027   2.586   7.652   3.946
24929WAT      O75028   5.016   4.403   0.042
24929WAT     H175029   4.946   4.360   0.099
24929WAT     H275030   5.050   4.486   0.087
24930WAT      O75031   5.465   5.322   6.635
24930WAT     H175032   5.418   5.256   6.577
24930WAT     H275033   5.422   5.322   6.726
24931WAT      O75034   0.986   7.511   2.315
24931WAT     H175035   0.908   7.465   2.273
24931WAT     H275036   0.956   7.559   2.397
24932WAT      O75037   6.421   8.263   3.996
24932WAT     H175038   6.486   8.240   3.923
24932WAT     H275039   6.333   8.287   3.956
24933WAT      O75040   0.423   6.660   7.570
24933WAT     H175041   0.378   6.728   7.628
24933WAT     H275042   0.364   6.579   7.561
24934WAT      O75043   8.727   9.282   1.230
24934WAT     H175044   8.675   9.368   1.231
24934WAT     H275045   8.741   9.250   1.324
24935WAT      O75046   5.109   5.375   0.197
24935WAT     H175047   5.035   5.330   0.247
24935WAT     H275048   5.116   5.336   0.105
24936WAT      O75049   2.136   2.373   9.213
24936WAT     H175050   2.087   2.291   9.243
24936WAT     H275051   2.188   2.410   9.289
24937WAT      O75052   5.305   0.136   4.827
24937WAT     H175053   5.383   0.164   4.770
24937WAT     H275054   5.311   0.037   4.844
24938WAT      O75055   3.560   3.381   0.756
24938WAT     H175056   3.600   3.358   0.845
24938WAT     H275057   3.558   3.299   0.698
24939WAT      O75058   3.166   0.717   9.470
24939WAT     H175059   3.221   0.657   9.411
24939WAT     H275060   3.214   0.804   9.482
24940WAT      O75061   7.170   9.405   3.410
24940WAT     H175062   7.160   9.383   3.507
24940WAT     H275063   7.182   9.320   3.358
24941WAT      O75064   0.056   0.961   5.266
24941WAT     H175065   0.087   1.053   5.287
24941WAT     H275066  -0.033   0.944   5.308
24942WAT      O75067   5.577   4.511   1.489
24942WAT     H175068   5.603   4.415   1.495
24942WAT     H275069   5.573   4.539   1.393
24943WAT      O75070   0.094   0.925   0.987
24943WAT     H175071   0.036   0.941   1.066
24943WAT     H275072   0.038   0.894   0.910
24944WAT      O75073   1.738   0.138   0.055
24944WAT     H175074   1.695   0.216   0.100
24944WAT     H275075   1.806   0.170  -0.011
24945WAT      O75076   8.549   6.399   0.189
24945WAT     H175077   8.632   6.434   0.145
24945WAT     H275078   8.472   6.408   0.126
24946WAT      O75079   5.585   7.086   1.952
24946WAT     H175080   5.599   7.173   1.905
24946WAT     H275081   5.582   7.012   1.886
24947WAT      O75082   7.670   9.185   0.267
24947WAT     H175083   7.766   9.171   0.288
24947WAT     H275084   7.635   9.263   0.319
24948WAT      O75085   7.115   1.503   1.146
24948WAT     H175086   7.050   1.446   1.197
24948WAT     H275087   7.106   1.598   1.176
24949WAT      O75088   2.581   1.267   1.811
24949WAT     H175089   2.498   1.211   1.811
24949WAT     H275090   2.614   1.277   1.904
24950WAT      O75091   7.760   3.672   5.510
24950WAT     H175092   7.760   3.757   5.563
24950WAT     H275093   7.711   3.687   5.424
24951WAT      O75094   2.744   1.644   1.009
24951WAT     H175095   2.802   1.723   1.031
24951WAT     H275096   2.769   1.567   1.069
24952WAT      O75097   8.487   5.378   6.073
24952WAT     H175098   8.516   5.427   5.991
24952WAT     H275099   8.401   5.331   6.054
24953WAT      O75100   8.319   6.215   2.198
24953WAT     H175101   8.365   6.129   2.221
24953WAT     H275102   8.336   6.237   2.102
24954WAT      O75103   5.483   0.095   6.362
24954WAT     H175104   5.447   0.025   6.423
24954WAT     H275105   5.441   0.086   6.272
24955WAT      O75106   5.288   4.049   6.022
24955WAT     H175107   5.387   4.063   6.024
24955WAT     H275108   5.250   4.064   6.113
24956WAT      O75109   3.119   8.748   1.213
24956WAT     H175110   3.101   8.695   1.297
24956WAT     H275111   3.140   8.685   1.139
24957WAT      O75112   7.906   2.927   5.524
24957WAT     H175113   7.874   2.841   5.563
24957WAT     H275114   7.881   2.931   5.428
24958WAT      O75115   6.875   8.962   1.034
24958WAT     H175116   6.829   8.950   1.122
24958WAT     H275117   6.878   9.060   1.012
24959WAT      O75118   7.630   3.639   2.957
24959WAT     H175119   7.687   3.694   2.897
24959WAT     H275120   7.577   3.698   3.018
24960WAT      O75121   6.593   9.286   2.901
24960WAT     H175122   6.583   9.321   2.994
24960WAT     H275123   6.614   9.362   2.839
24961WAT      O75124   6.855   4.053   9.505
24961WAT     H175125   6.772   4.003   9.532
24961WAT     H275126   6.894   4.012   9.423
24962WAT      O75127   4.109   7.581   6.801
24962WAT     H175128   4.108   7.481   6.798
24962WAT     H275129   4.083   7.618   6.711
24963WAT      O75130   3.218   0.576   4.350
24963WAT     H175131   3.284   0.650   4.337
24963WAT     H275132   3.210   0.556   4.448
24964WAT      O75133   3.637   1.696   3.902
24964WAT     H175134   3.539   1.675   3.908
24964WAT     H275135   3.650   1.795   3.907
24965WAT      O75136   4.519   9.527   4.754
24965WAT     H175137   4.469   9.612   4.738
24965WAT     H275138   4.533   9.514   4.852
24966WAT      O75139   9.302   9.142   8.058
24966WAT     H175140   9.305   9.228   8.007
24966WAT     H275141   9.261   9.159   8.148
24967WAT      O75142   8.330   8.917   4.060
24967WAT     H175143   8.273   8.985   4.106
24967WAT     H275144   8.282   8.829   4.056
24968WAT      O75145   5.772   9.660   7.974
24968WAT     H175146   5.695   9.717   8.003
24968WAT     H275147   5.787   9.588   8.042
24969WAT      O75148   9.517   2.030   8.801
24969WAT     H175149   9.527   1.936   8.768
24969WAT     H275150   9.429   2.040   8.848
24970WAT      O75151   3.468   8.910   1.386
24970WAT     H175152   3.423   8.863   1.462
24970WAT     H275153   3.561   8.875   1.375
24971WAT      O75154   3.585   9.186   9.709
24971WAT     H175155   3.612   9.224   9.620
24971WAT     H275156   3.516   9.245   9.750
24972WAT      O75157   7.306   7.229   2.390
24972WAT     H175158   7.291   7.137   2.426
24972WAT     H275159   7.338   7.289   2.465
24973WAT      O75160   4.124   9.791   8.048
24973WAT     H175161   4.076   9.878   8.056
24973WAT     H275162   4.143   9.755   8.139
24974WAT      O75163   7.616   7.228   3.683
24974WAT     H175164   7.699   7.176   3.701
24974WAT     H275165   7.577   7.199   3.596
24975WAT      O75166   1.523   7.904   2.425
24975WAT     H175167   1.565   7.899   2.516
24975WAT     H275168   1.424   7.891   2.433
24976WAT      O75169   9.490   5.319   6.189
24976WAT     H175170   9.463   5.247   6.125
24976WAT     H275171   9.554   5.282   6.256
24977WAT      O75172   4.990   1.422   5.110
24977WAT     H175173   5.080   1.380   5.116
24977WAT     H275174   4.926   1.358   5.066
24978WAT      O75175   1.533   9.138   0.582
24978WAT     H175176   1.622   9.142   0.627
24978WAT     H275177   1.485   9.055   0.611
24979WAT      O75178   5.972   5.777   0.813
24979WAT     H175179   6.050   5.794   0.873
24979WAT     H275180   5.969   5.680   0.788
24980WAT      O75181   3.742   8.027   2.523
24980WAT     H175182   3.710   8.119   2.499
24980WAT     H275183   3.823   8.034   2.581
24981WAT      O75184   1.691   2.227   5.135
24981WAT     H175185   1.770   2.216   5.196
24981WAT     H275186   1.635   2.304   5.166
24982WAT      O75187   9.741   4.847   7.480
24982WAT     H175188   9.750   4.786   7.558
24982WAT     H275189   9.644   4.861   7.459
24983WAT      O75190   4.769   7.820   2.904
24983WAT     H175191   4.749   7.731   2.947
24983WAT     H275192   4.789   7.806   2.807
24984WAT      O75193   1.902   9.518   6.574
24984WAT     H175194   1.909   9.614   6.600
24984WAT     H275195   1.975   9.466   6.619
24985WAT      O75196   5.404   8.900   2.409
24985WAT     H175197   5.374   8.990   2.376
24985WAT     H275198   5.431   8.843   2.331
24986WAT      O75199   4.900   8.822   6.998
24986WAT     H175200   4.847   8.823   6.914
24986WAT     H275201   4.849   8.867   7.071
24987WAT      O75202   5.005   7.188   7.943
24987WAT     H175203   5.040   7.115   7.884
24987WAT     H275204   4.905   7.187   7.943
24988WAT      O75205   6.668   6.602   1.616
24988WAT     H175206   6.606   6.525   1.630
24988WAT     H275207   6.687   6.612   1.518
24989WAT      O75208   1.107   1.695   6.449
24989WAT     H175209   1.122   1.671   6.353
24989WAT     H275210   1.012   1.679   6.473
24990WAT      O75211   3.732   7.587   4.404
24990WAT     H175212   3.691   7.548   4.486
24990WAT     H275213   3.737   7.687   4.413
24991WAT      O75214   7.043   1.402   5.224
24991WAT     H175215   7.050   1.502   5.223
24991WAT     H275216   7.122   1.363   5.178
24992WAT      O75217   9.538   4.775   2.025
24992WAT     H175218   9.463   4.835   2.049
24992WAT     H275219   9.546   4.770   1.925
24993WAT      O75220   0.422   3.234   7.546
24993WAT     H175221   0.414   3.140   7.514
24993WAT     H275222   0.473   3.289   7.479
24994WAT      O75223   2.989   1.996   6.291
24994WAT     H175224   2.948   1.910   6.260
24994WAT     H275225   3.058   2.025   6.225
24995WAT      O75226   1.868   0.396   8.510
24995WAT     H175227   1.871   0.409   8.410
24995WAT     H275228   1.845   0.482   8.554
24996WAT      O75229   7.297   6.140   3.051
24996WAT     H175230   7.326   6.149   3.146
24996WAT     H275231   7.265   6.046   3.035
24997WAT      O75232   8.451   9.664   7.674
24997WAT     H175233   8.411   9.573   7.684
24997WAT     H275234   8.431   9.718   7.756
24998WAT      O75235   0.021   4.415   6.344
24998WAT     H175236   0.049   4.482   6.413
24998WAT     H275237   0.055   4.324   6.369
24999WAT      O75238   5.699   9.691   6.910
24999WAT     H175239   5.771   9.622   6.905
24999WAT     H275240   5.617   9.651   6.952
25000WAT      O75241   6.208   7.119   8.593
25000WAT     H175242   6.272   7.053   8.630
25000WAT     H275243   6.258   7.198   8.557
25001WAT      O75244   0.115   7.444   7.027
25001WAT     H175245   0.132   7.384   6.949
25001WAT     H275246   0.154   7.534   7.009
25002WAT      O75247   4.870   9.195   4.360
25002WAT     H175248   4.773   9.199   4.336
25002WAT     H275249   4.916   9.127   4.303
25003WAT      O75250   1.636   4.691   1.374
25003WAT     H175251   1.603   4.642   1.455
25003WAT     H275252   1.689   4.629   1.316
25004WAT      O75253   0.231   9.283   6.943
25004WAT     H175254   0.255   9.370   6.899
25004WAT     H275255   0.154   9.241   6.894
25005WAT      O75256   8.531   5.526   1.376
25005WAT     H175257   8.436   5.497   1.362
25005WAT     H275258   8.577   5.531   1.287
25006WAT      O75259   6.550   5.588   8.047
25006WAT     H175260   6.582   5.579   8.142
25006WAT     H275261   6.451   5.580   8.045
25007WAT      O75262   2.152   5.674   1.007
25007WAT     H175263   2.148   5.644   0.912
25007WAT     H275264   2.087   5.749   1.022
25008WAT      O75265   6.508   3.005   7.888
25008WAT     H175266   6.487   2.947   7.966
25008WAT     H275267   6.474   3.097   7.904
25009WAT      O75268   0.577   9.150   3.065
25009WAT     H175269   0.493   9.112   3.104
25009WAT     H275270   0.654   9.089   3.088
25010WAT      O75271   1.864   4.555   2.266
25010WAT     H175272   1.949   4.601   2.240
25010WAT     H275273   1.796   4.624   2.291
25011WAT      O75274   6.832   3.933   3.042
25011WAT     H175275   6.857   4.008   2.979
25011WAT     H275276   6.810   3.971   3.131
25012WAT      O75277   5.695   7.401   9.136
25012WAT     H175278   5.721   7.497   9.130
25012WAT     H275279   5.609   7.393   9.187
25013WAT      O75280   8.422   1.358   0.936
25013WAT     H175281   8.397   1.437   0.992
25013WAT     H275282   8.490   1.303   0.985
25014WAT      O75283   1.589   2.823   6.389
25014WAT     H175284   1.493   2.796   6.383
25014WAT     H275285   1.645   2.761   6.334
25015WAT      O75286   1.785   2.725   5.093
25015WAT     H175287   1.869   2.775   5.114
25015WAT     H275288   1.768   2.729   4.995
25016WAT      O75289   7.697   3.610   4.996
25016WAT     H175290   7.611   3.572   4.964
25016WAT     H275291   7.750   3.645   4.918
25017WAT      O75292   8.592   6.472   7.628
25017WAT     H175293   8.561   6.377   7.626
25017WAT     H275294   8.521   6.531   7.589
25018WAT      O75295   2.921   1.103   4.159
25018WAT     H175296   2.884   1.120   4.068
25018WAT     H275297   2.996   1.167   4.177
25019WAT      O75298   8.082   9.604   5.799
25019WAT     H175299   8.101   9.514   5.759
25019WAT     H275300   8.068   9.593   5.898
25020WAT      O75301   6.253   4.862   6.317
25020WAT     H175302   6.314   4.887   6.242
25020WAT     H275303   6.275   4.917   6.398
25021WAT      O75304   0.981   2.300   7.855
25021WAT     H175305   1.052   2.260   7.797
25021WAT     H275306   0.975   2.248   7.941
25022WAT      O75307   3.002   2.773   3.449
25022WAT     H175308   3.001   2.703   3.520
25022WAT     H275309   3.066   2.846   3.474
25023WAT      O75310   7.895   6.840   5.523
25023WAT     H175311   7.909   6.742   5.506
25023WAT     H275312   7.972   6.876   5.576
25024WAT      O75313   0.614   1.056   7.205
25024WAT     H175314   0.673   1.002   7.145
25024WAT     H275315   0.591   1.001   7.286
25025WAT      O75316   0.189   2.446   7.188
25025WAT     H175317   0.095   2.474   7.168
25025WAT     H275318   0.187   2.356   7.232
25026WAT      O75319   6.598   2.276   7.474
25026WAT     H175320   6.595   2.350   7.407
25026WAT     H275321   6.692   2.243   7.483
25027WAT      O75322   7.321   2.684   8.097
25027WAT     H175323   7.304   2.634   8.012
25027WAT     H275324   7.287   2.778   8.088
25028WAT      O75325   6.435   0.065   6.877
25028WAT     H175326   6.379   0.143   6.847
25028WAT     H275327   6.511   0.051   6.813
25029WAT      O75328   6.624   7.507   8.390
25029WAT     H175329   6.718   7.537   8.371
25029WAT     H275330   6.569   7.586   8.416
25030WAT      O75331   4.049   4.797   6.979
25030WAT     H175332   4.018   4.879   6.932
25030WAT     H275333   4.091   4.734   6.913
25031WAT      O75334   3.480   2.577   5.148
25031WAT     H175335   3.537   2.496   5.137
25031WAT     H275336   3.525   2.642   5.209
25032WAT      O75337   4.602   5.773   2.949
25032WAT     H175338   4.535   5.699   2.953
25032WAT     H275339   4.611   5.815   3.040
25033WAT      O75340   1.526   5.784   1.513
25033WAT     H175341   1.442   5.797   1.566
25033WAT     H275342   1.548   5.869   1.465
25034WAT      O75343   2.557   3.112   0.533
25034WAT     H175344   2.477   3.155   0.574
25034WAT     H275345   2.560   3.132   0.435
25035WAT      O75346   5.657   5.161   2.973
25035WAT     H175347   5.706   5.226   2.914
25035WAT     H275348   5.693   5.166   3.066
25036WAT      O75349   1.061   8.442   4.084
25036WAT     H175350   1.027   8.456   3.991
25036WAT     H275351   1.128   8.513   4.106
25037WAT      O75352   5.180   1.947   1.136
25037WAT     H175353   5.270   1.967   1.174
25037WAT     H275354   5.154   1.854   1.160
25038WAT      O75355   6.160   8.091   1.446
25038WAT     H175356   6.234   8.154   1.425
25038WAT     H275357   6.198   8.003   1.476
25039WAT      O75358   0.346   8.961   1.568
25039WAT     H175359   0.441   8.933   1.583
25039WAT     H275360   0.296   8.886   1.525
25040WAT      O75361   7.098   5.041   7.449
25040WAT     H175362   7.118   4.978   7.524
25040WAT     H275363   7.002   5.031   7.422
25041WAT      O75364   4.684   6.906   7.229
25041WAT     H175365   4.600   6.960   7.239
25041WAT     H275366   4.689   6.871   7.135
25042WAT      O75367   1.708   3.150   8.323
25042WAT     H175368   1.768   3.138   8.244
25042WAT     H275369   1.614   3.126   8.298
25043WAT      O75370   4.350   2.654   3.457
25043WAT     H175371   4.432   2.698   3.493
25043WAT     H275372   4.288   2.724   3.422
25044WAT      O75373   7.959   8.928   7.891
25044WAT     H175374   8.043   8.966   7.929
25044WAT     H275375   7.981   8.853   7.829
25045WAT      O75376   9.880   5.924   6.814
25045WAT     H175377   9.826   6.007   6.797
25045WAT     H275378   9.848   5.879   6.897
25046WAT      O75379   3.358   9.354   1.583
25046WAT     H175380   3.411   9.294   1.522
25046WAT     H275381   3.398   9.446   1.581
25047WAT      O75382   7.372   7.142   7.010
25047WAT     H175383   7.397   7.192   6.927
25047WAT     H275384   7.424   7.058   7.015
25048WAT      O75385   1.812   7.714   4.392
25048WAT     H175386   1.825   7.723   4.491
25048WAT     H275387   1.743   7.778   4.361
25049WAT      O75388   8.247   1.574   5.082
25049WAT     H175389   8.284   1.598   5.172
25049WAT     H275390   8.151   1.547   5.092
25050WAT      O75391   3.603   2.238   4.291
25050WAT     H175392   3.594   2.179   4.371
25050WAT     H275393   3.534   2.310   4.295
25051WAT      O75394   2.444   0.146   3.086
25051WAT     H175395   2.479   0.104   3.170
25051WAT     H275396   2.348   0.171   3.099
25052WAT      O75397   3.049   7.630   5.206
25052WAT     H175398   2.958   7.604   5.241
25052WAT     H275399   3.053   7.730   5.197
25053WAT      O75400   9.113   3.191   4.253
25053WAT     H175401   9.093   3.287   4.276
25053WAT     H275402   9.082   3.172   4.160
25054WAT      O75403   4.826   2.574   9.681
25054WAT     H175404   4.879   2.645   9.635
25054WAT     H275405   4.749   2.616   9.729
25055WAT      O75406   0.405   5.474   1.227
25055WAT     H175407   0.490   5.488   1.176
25055WAT     H275408   0.337   5.429   1.168
25056WAT      O75409   8.255   6.709   0.345
25056WAT     H175410   8.240   6.629   0.403
25056WAT     H275411   8.244   6.684   0.249
25057WAT      O75412   1.698   6.783   2.919
25057WAT     H175413   1.682   6.870   2.966
25057WAT     H275414   1.623   6.765   2.855
25058WAT      O75415   5.190   9.073   9.831
25058WAT     H175416   5.207   9.013   9.909
25058WAT     H275417   5.159   9.019   9.753
25059WAT      O75418   5.953   7.064   9.505
25059WAT     H175419   5.922   7.115   9.424
25059WAT     H275420   5.880   7.004   9.536
25060WAT      O75421   3.522   0.972   3.647
25060WAT     H175422   3.577   1.052   3.624
25060WAT     H275423   3.505   0.918   3.564
25061WAT      O75424   1.079   0.267   0.220
25061WAT     H175425   1.049   0.197   0.285
25061WAT     H275426   1.119   0.344   0.270
25062WAT      O75427   8.883   8.265   0.667
25062WAT     H175428   8.895   8.223   0.757
25062WAT     H275429   8.970   8.265   0.619
25063WAT      O75430   2.519   6.919   3.557
25063WAT     H175431   2.460   6.887   3.482
25063WAT     H275432   2.467   6.920   3.642
25064WAT      O75433   9.200   3.379   3.055
25064WAT     H175434   9.269   3.342   2.993
25064WAT     H275435   9.193   3.478   3.041
25065WAT      O75436   5.573   0.592   7.915
25065WAT     H175437   5.645   0.653   7.883
25065WAT     H275438   5.596   0.497   7.893
25066WAT      O75439   7.323   2.628   0.653
25066WAT     H175440   7.246   2.690   0.639
25066WAT     H275441   7.337   2.574   0.571
25067WAT      O75442   0.860   3.024   3.139
25067WAT     H175443   0.908   3.092   3.196
25067WAT     H275444   0.920   2.995   3.064
25068WAT      O75445   3.547   2.386   6.063
25068WAT     H175446   3.630   2.434   6.092
25068WAT     H275447   3.556   2.359   5.967
25069WAT      O75448   9.441   2.103   7.133
25069WAT     H175449   9.386   2.159   7.195
25069WAT     H275450   9.537   2.127   7.143
25070WAT      O75451   8.960   3.534   9.512
25070WAT     H175452   8.903   3.458   9.544
25070WAT     H275453   8.982   3.521   9.416
25071WAT      O75454   9.511   1.265   5.966
25071WAT     H175455   9.543   1.198   6.032
25071WAT     H275456   9.422   1.301   5.995
25072WAT      O75457   0.212   0.244   4.080
25072WAT     H175458   0.230   0.342   4.088
25072WAT     H275459   0.130   0.230   4.025
25073WAT      O75460   8.157   4.124   4.018
25073WAT     H175461   8.125   4.030   4.011
25073WAT     H275462   8.079   4.186   4.013
25074WAT      O75463   6.044   9.086   1.960
25074WAT     H175464   6.138   9.116   1.943
25074WAT     H275465   5.996   9.074   1.873
25075WAT      O75466   0.262   7.041   4.393
25075WAT     H175467   0.166   7.067   4.383
25075WAT     H275468   0.279   7.015   4.488
25076WAT      O75469   7.259   6.076   0.639
25076WAT     H175470   7.238   5.995   0.583
25076WAT     H275471   7.214   6.156   0.600
25077WAT      O75472   0.935   2.684   4.349
25077WAT     H175473   0.966   2.616   4.282
25077WAT     H275474   0.953   2.651   4.441
25078WAT      O75475   6.568   4.144   3.023
25078WAT     H175476   6.582   4.125   2.926
25078WAT     H275477   6.626   4.221   3.051
25079WAT      O75478   4.408   3.491   2.270
25079WAT     H175479   4.445   3.495   2.177
25079WAT     H275480   4.448   3.565   2.325
25080WAT      O75481   5.998   0.948   0.331
25080WAT     H175482   5.997   0.884   0.408
25080WAT     H275483   5.923   1.013   0.340
25081WAT      O75484   0.146   6.535   0.006
25081WAT     H175485   0.193   6.579   0.082
25081WAT     H275486   0.189   6.561  -0.080
25082WAT      O75487   6.201   9.296   2.955
25082WAT     H175488   6.276   9.232   2.937
25082WAT     H275489   6.217   9.381   2.904
25083WAT      O75490   9.069   4.569   1.059
25083WAT     H175491   9.099   4.556   1.154
25083WAT     H275492   9.127   4.517   0.997
25084WAT      O75493   2.259   4.955   8.867
25084WAT     H175494   2.322   4.997   8.932
25084WAT     H275495   2.171   4.937   8.912
25085WAT      O75496   5.863   0.194   5.310
25085WAT     H175497   5.809   0.121   5.269
25085WAT     H275498   5.953   0.159   5.336
25086WAT      O75499   3.931   2.882   1.080
25086WAT     H175500   3.935   2.825   0.998
25086WAT     H275501   3.837   2.885   1.113
25087WAT      O75502   1.632   8.339   9.180
25087WAT     H175503   1.655   8.417   9.122
25087WAT     H275504   1.610   8.372   9.272
25088WAT      O75505   4.299   1.133   2.255
25088WAT     H175506   4.220   1.080   2.224
25088WAT     H275507   4.322   1.201   2.187
25089WAT      O75508   3.021   3.304   9.598
25089WAT     H175509   3.048   3.386   9.548
25089WAT     H275510   2.934   3.270   9.560
25090WAT      O75511   1.848   7.479   0.120
25090WAT     H175512   1.879   7.384   0.127
25090WAT     H275513   1.927   7.540   0.133
25091WAT      O75514   6.285   1.423   9.351
25091WAT     H175515   6.368   1.368   9.347
25091WAT     H275516   6.277   1.478   9.267
25092WAT      O75517   3.804   6.835   6.162
25092WAT     H175518   3.749   6.899   6.108
25092WAT     H275519   3.757   6.816   6.248
25093WAT      O75520   5.894   4.969   7.114
25093WAT     H175521   5.865   4.962   7.209
25093WAT     H275522   5.990   4.997   7.110
25094WAT      O75523   6.287   1.417   3.216
25094WAT     H175524   6.204   1.394   3.165
25094WAT     H275525   6.277   1.386   3.311
25095WAT      O75526   8.835   6.124   8.953
25095WAT     H175527   8.912   6.183   8.927
25095WAT     H275528   8.782   6.169   9.026
25096WAT      O75529   9.055   5.233   9.811
25096WAT     H175530   8.966   5.233   9.856
25096WAT     H275531   9.043   5.217   9.713
25097WAT      O75532   9.164   0.726   2.411
25097WAT     H175533   9.093   0.774   2.359
25097WAT     H275534   9.253   0.766   2.389
25098WAT      O75535   9.844   4.145   0.653
25098WAT     H175536   9.859   4.072   0.720
25098WAT     H275537   9.803   4.224   0.697
25099WAT      O75538   2.097   1.068   7.891
25099WAT     H175539   2.031   1.098   7.960
25099WAT     H275540   2.149   0.991   7.926
25100WAT      O75541   8.091   2.624   7.196
25100WAT     H175542   8.072   2.714   7.157
25100WAT     H275543   8.057   2.553   7.133
25101WAT      O75544   4.193   5.899   2.462
25101WAT     H175545   4.190   5.991   2.501
25101WAT     H275546   4.279   5.887   2.411
25102WAT      O75547   6.133   2.799   0.678
25102WAT     H175548   6.140   2.707   0.640
25102WAT     H275549   6.224   2.835   0.696
25103WAT      O75550   5.722   2.098   8.917
25103WAT     H175551   5.665   2.023   8.952
25103WAT     H275552   5.788   2.126   8.987
25104WAT      O75553   8.146   5.034   1.540
25104WAT     H175554   8.125   5.086   1.457
25104WAT     H275555   8.114   4.939   1.529
25105WAT      O75556   0.231   2.291   9.566
25105WAT     H175557   0.325   2.261   9.555
25105WAT     H275558   0.183   2.227   9.627
25106WAT      O75559   8.383   7.297   3.651
25106WAT     H175560   8.407   7.260   3.741
25106WAT     H275561   8.435   7.381   3.635
25107WAT      O75562   8.516   5.876   4.058
25107WAT     H175563   8.606   5.887   4.016
25107WAT     H275564   8.447   5.921   4.001
25108WAT      O75565   6.738   6.526   9.147
25108WAT     H175566   6.737   6.458   9.073
25108WAT     H275567   6.661   6.588   9.136
25109WAT      O75568   7.116   4.716   4.647
25109WAT     H175569   7.161   4.688   4.562
25109WAT     H275570   7.059   4.797   4.630
25110WAT      O75571   6.028   7.327   7.471
25110WAT     H175572   5.971   7.329   7.554
25110WAT     H275573   6.114   7.282   7.492
25111WAT      O75574   6.497   4.144   4.305
25111WAT     H175575   6.595   4.140   4.322
25111WAT     H275576   6.479   4.130   4.208
25112WAT      O75577   0.941   5.740   6.696
25112WAT     H175578   1.027   5.709   6.656
25112WAT     H275579   0.922   5.834   6.666
25113WAT      O75580   7.177   0.781   6.793
25113WAT     H175581   7.257   0.722   6.792
25113WAT     H275582   7.155   0.806   6.887
25114WAT      O75583   6.177   6.259   5.602
25114WAT     H175584   6.082   6.287   5.614
25114WAT     H275585   6.224   6.261   5.690
25115WAT      O75586   0.559   6.616   7.064
25115WAT     H175587   0.562   6.647   7.159
25115WAT     H275588   0.484   6.663   7.016
25116WAT      O75589   4.551   0.064   2.164
25116WAT     H175590   4.453   0.047   2.172
25116WAT     H275591   4.589   0.082   2.254
25117WAT      O75592   4.916   8.285   6.648
25117WAT     H175593   4.967   8.332   6.721
25117WAT     H275594   4.962   8.300   6.561
25118WAT      O75595   2.424   0.904   6.301
25118WAT     H175596   2.380   0.948   6.379
25118WAT     H275597   2.354   0.856   6.247
25119WAT      O75598   1.640   7.984   9.514
25119WAT     H175599   1.601   8.072   9.487
25119WAT     H275600   1.729   7.999   9.556
25120WAT      O75601   5.110   2.723   2.394
25120WAT     H175602   5.030   2.720   2.454
25120WAT     H275603   5.088   2.679   2.307
25121WAT      O75604   2.989   1.577   7.213
25121WAT     H175605   3.078   1.569   7.259
25121WAT     H275606   2.994   1.651   7.145
25122WAT      O75607   7.763   4.799   3.780
25122WAT     H175608   7.672   4.763   3.759
25122WAT     H275609   7.755   4.894   3.811
25123WAT      O75610   1.208   0.284   2.516
25123WAT     H175611   1.119   0.241   2.506
25123WAT     H275612   1.217   0.319   2.610
25124WAT      O75613   4.519   3.374   9.078
25124WAT     H175614   4.535   3.401   8.983
25124WAT     H275615   4.483   3.451   9.130
25125WAT      O75616   5.388   2.697   5.925
25125WAT     H175617   5.305   2.752   5.925
25125WAT     H275618   5.394   2.645   5.839
25126WAT      O75619   8.672   0.145   6.738
25126WAT     H175620   8.756   0.093   6.752
25126WAT     H275621   8.645   0.140   6.641
25127WAT      O75622   5.734   3.224   9.129
25127WAT     H175623   5.657   3.182   9.080
25127WAT     H275624   5.700   3.301   9.182
25128WAT      O75625   9.724   5.446   9.591
25128WAT     H175626   9.655   5.450   9.519
25128WAT     H275627   9.815   5.449   9.551
25129WAT      O75628   2.237   0.234   6.152
25129WAT     H175629   2.312   0.292   6.184
25129WAT     H275630   2.237   0.232   6.052
25130WAT      O75631   1.934   3.222   9.385
25130WAT     H175632   1.834   3.216   9.395
25130WAT     H275633   1.964   3.314   9.411
25131WAT      O75634   7.467   1.068   7.617
25131WAT     H175635   7.412   0.985   7.609
25131WAT     H275636   7.560   1.043   7.645
25132WAT      O75637   7.264   4.755   2.950
25132WAT     H175638   7.210   4.711   3.022
25132WAT     H275639   7.252   4.854   2.956
25133WAT      O75640   3.442   9.731   4.470
25133WAT     H175641   3.527   9.753   4.518
25133WAT     H275642   3.429   9.632   4.469
25134WAT      O75643   0.550   5.471   4.688
25134WAT     H175644   0.585   5.561   4.713
25134WAT     H275645   0.492   5.436   4.762
25135WAT      O75646   0.308   7.958   4.199
25135WAT     H175647   0.355   7.887   4.146
25135WAT     H275648   0.260   8.020   4.136
25136WAT      O75649   2.164   7.382   0.768
25136WAT     H175650   2.086   7.325   0.743
25136WAT     H275651   2.239   7.366   0.704
25137WAT      O75652   6.848   4.360   4.832
25137WAT     H175653   6.758   4.365   4.789
25137WAT     H275654   6.909   4.305   4.774
25138WAT      O75655   4.414   3.225   2.305
25138WAT     H175656   4.361   3.223   2.389
25138WAT     H275657   4.405   3.315   2.261
25139WAT      O75658   6.400   9.126   3.428
25139WAT     H175659   6.357   9.186   3.360
25139WAT     H275660   6.332   9.099   3.496
25140WAT      O75661   3.400   7.633   7.316
25140WAT     H175662   3.422   7.659   7.411
25140WAT     H275663   3.467   7.675   7.254
25141WAT      O75664   9.262   1.997   6.406
25141WAT     H175665   9.165   2.019   6.413
25141WAT     H275666   9.313   2.080   6.380
25142WAT      O75667   1.471   6.704   2.774
25142WAT     H175668   1.506   6.727   2.683
25142WAT     H275669   1.407   6.628   2.766
25143WAT      O75670   4.357   1.051   7.374
25143WAT     H175671   4.287   1.102   7.424
25143WAT     H275672   4.318   0.965   7.340
25144WAT      O75673   1.714   6.238   5.082
25144WAT     H175674   1.798   6.259   5.133
25144WAT     H275675   1.689   6.142   5.099
25145WAT      O75676   1.639   5.133   5.349
25145WAT     H175677   1.711   5.160   5.285
25145WAT     H275678   1.673   5.061   5.410
25146WAT      O75679   5.808   4.691   7.929
25146WAT     H175680   5.867   4.745   7.869
25146WAT     H275681   5.755   4.626   7.874
25147WAT      O75682   0.311   3.802   1.493
25147WAT     H175683   0.246   3.796   1.417
25147WAT     H275684   0.261   3.807   1.580
25148WAT      O75685   1.065   9.055   0.990
25148WAT     H175686   1.037   9.149   1.008
25148WAT     H275687   0.984   8.999   0.974
25149WAT      O75688   0.398   1.916   0.260
25149WAT     H175689   0.399   1.914   0.360
25149WAT     H275690   0.304   1.913   0.227
25150WAT      O75691   2.607   6.068   0.311
25150WAT     H175692   2.537   5.999   0.290
25150WAT     H275693   2.692   6.022   0.336
25151WAT      O75694   2.024   4.427   0.850
25151WAT     H175695   2.050   4.369   0.928
25151WAT     H275696   1.959   4.496   0.881
25152WAT      O75697   3.198   0.951   2.005
25152WAT     H175698   3.247   0.980   1.924
25152WAT     H275699   3.128   0.884   1.980
25153WAT      O75700   2.367   2.517   3.256
25153WAT     H175701   2.320   2.444   3.305
25153WAT     H275702   2.302   2.566   3.198
25154WAT      O75703   9.241   6.757   4.497
25154WAT     H175704   9.254   6.832   4.431
25154WAT     H275705   9.213   6.675   4.448
25155WAT      O75706   7.212   1.109   0.892
25155WAT     H175707   7.127   1.071   0.856
25155WAT     H275708   7.247   1.178   0.828
25156WAT      O75709   8.808   3.012   2.952
25156WAT     H175710   8.723   2.970   2.983
25156WAT     H275711   8.872   3.018   3.029
25157WAT      O75712   6.831   8.699   5.602
25157WAT     H175713   6.906   8.733   5.658
25157WAT     H275714   6.867   8.668   5.514
25158WAT      O75715   0.397   2.288   1.588
25158WAT     H175716   0.346   2.373   1.599
25158WAT     H275717   0.482   2.292   1.640
25159WAT      O75718   5.772   0.528   3.969
25159WAT     H175719   5.773   0.546   3.871
25159WAT     H275720   5.677   0.522   4.001
25160WAT      O75721   0.281   8.645   8.594
25160WAT     H175722   0.246   8.561   8.635
25160WAT     H275723   0.372   8.666   8.631
25161WAT      O75724   8.183   1.112   7.183
25161WAT     H175725   8.224   1.166   7.256
25161WAT     H275726   8.243   1.114   7.103
25162WAT      O75727   4.896   0.551   8.927
25162WAT     H175728   4.949   0.477   8.968
25162WAT     H275729   4.928   0.639   8.962
25163WAT      O75730   5.060   7.666   3.523
25163WAT     H175731   4.982   7.655   3.461
25163WAT     H275732   5.144   7.675   3.469
25164WAT      O75733   5.009   1.490   8.851
25164WAT     H175734   4.947   1.478   8.928
25164WAT     H275735   5.088   1.545   8.879
25165WAT      O75736   5.539   0.536   6.971
25165WAT     H175737   5.445   0.507   6.989
25165WAT     H275738   5.578   0.480   6.898
25166WAT      O75739   4.377   8.071   0.946
25166WAT     H175740   4.466   8.103   0.980
25166WAT     H275741   4.390   7.985   0.896
25167WAT      O75742   1.760   3.074   1.632
25167WAT     H175743   1.789   3.067   1.727
25167WAT     H275744   1.793   3.161   1.594
25168WAT      O75745   2.770   1.924   6.594
25168WAT     H175746   2.863   1.963   6.590
25168WAT     H275747   2.759   1.856   6.522
25169WAT      O75748   6.671   4.313   4.546
25169WAT     H175749   6.702   4.401   4.509
25169WAT     H275750   6.734   4.241   4.517
25170WAT      O75751   5.513   6.164   4.066
25170WAT     H175752   5.502   6.263   4.068
25170WAT     H275753   5.423   6.120   4.062
25171WAT      O75754   1.445   5.780   2.510
25171WAT     H175755   1.380   5.729   2.566
25171WAT     H275756   1.449   5.740   2.418
25172WAT      O75757   3.713   5.219   8.518
25172WAT     H175758   3.724   5.315   8.544
25172WAT     H275759   3.638   5.211   8.452
25173WAT      O75760   1.263   8.512   7.274
25173WAT     H175761   1.341   8.510   7.337
25173WAT     H275762   1.180   8.490   7.324
25174WAT      O75763   9.279   8.034   7.322
25174WAT     H175764   9.186   8.020   7.358
25174WAT     H275765   9.327   7.946   7.319
25175WAT      O75766   2.257   3.598   1.504
25175WAT     H175767   2.325   3.659   1.464
25175WAT     H275768   2.219   3.639   1.587
25176WAT      O75769   5.320   1.420   7.706
25176WAT     H175770   5.255   1.345   7.720
25176WAT     H275771   5.407   1.396   7.748
25177WAT      O75772   0.602   9.041   9.357
25177WAT     H175773   0.553   8.977   9.415
25177WAT     H275774   0.636   8.994   9.275
25178WAT      O75775   6.903   5.629   7.305
25178WAT     H175776   6.930   5.725   7.300
25178WAT     H275777   6.808   5.620   7.274
25179WAT      O75778   4.157   9.253   2.595
25179WAT     H175779   4.097   9.225   2.670
25179WAT     H275780   4.125   9.339   2.556
25180WAT      O75781   6.674   9.802   1.141
25180WAT     H175782   6.657   9.747   1.060
25180WAT     H275783   6.644   9.896   1.125
25181WAT      O75784   9.422   6.455   6.892
25181WAT     H175785   9.346   6.391   6.889
25181WAT     H275786   9.508   6.405   6.880
25182WAT      O75787   9.128   1.738   4.723
25182WAT     H175788   9.065   1.802   4.767
25182WAT     H275789   9.221   1.775   4.726
25183WAT      O75790   5.368   2.980   6.084
25183WAT     H175791   5.451   2.940   6.045
25183WAT     H275792   5.372   2.976   6.183
25184WAT      O75793   3.877   7.014   2.879
25184WAT     H175794   3.807   7.084   2.885
25184WAT     H275795   3.835   6.923   2.884
25185WAT      O75796   6.769   0.658   4.355
25185WAT     H175797   6.790   0.723   4.282
25185WAT     H275798   6.778   0.703   4.444
25186WAT      O75799   2.447   4.845   6.560
25186WAT     H175800   2.372   4.900   6.526
25186WAT     H275801   2.519   4.838   6.490
25187WAT      O75802   6.167   4.026   6.177
25187WAT     H175803   6.069   4.043   6.182
25187WAT     H275804   6.195   3.965   6.251
25188WAT      O75805   3.267   6.516   2.857
25188WAT     H175806   3.339   6.582   2.882
25188WAT     H275807   3.181   6.542   2.902
25189WAT      O75808   0.399   8.215   6.021
25189WAT     H175809   0.394   8.159   5.939
25189WAT     H275810   0.354   8.166   6.097
25190WAT      O75811   2.454   5.253   4.930
25190WAT     H175812   2.513   5.173   4.922
25190WAT     H275813   2.508   5.332   4.958
25191WAT      O75814   7.592   8.219   4.542
25191WAT     H175815   7.637   8.237   4.630
25191WAT     H275816   7.599   8.299   4.483
25192WAT      O75817   3.587   7.544   1.021
25192WAT     H175818   3.589   7.606   0.942
25192WAT     H275819   3.667   7.562   1.079
25193WAT      O75820   3.493   2.746   1.197
25193WAT     H175821   3.587   2.771   1.175
25193WAT     H275822   3.462   2.799   1.277
25194WAT      O75823   2.749   8.154   5.882
25194WAT     H175824   2.753   8.091   5.804
25194WAT     H275825   2.747   8.248   5.849
25195WAT      O75826   3.144   0.555   1.860
25195WAT     H175827   3.231   0.603   1.865
25195WAT     H275828   3.136   0.492   1.937
25196WAT      O75829   8.806   5.280   0.873
25196WAT     H175830   8.770   5.332   0.796
25196WAT     H275831   8.737   5.216   0.905
25197WAT      O75832   7.266   2.973   5.752
25197WAT     H175833   7.333   2.908   5.788
25197WAT     H275834   7.264   3.055   5.810
25198WAT      O75835   0.478   0.288   3.812
25198WAT     H175836   0.380   0.270   3.815
25198WAT     H275837   0.496   0.365   3.750
25199WAT      O75838   2.544   9.289   7.308
25199WAT     H175839   2.623   9.293   7.247
25199WAT     H275840   2.464   9.257   7.257
25200WAT      O75841   1.733   2.309   9.318
25200WAT     H175842   1.817   2.261   9.292
25200WAT     H275843   1.707   2.282   9.411
25201WAT      O75844   8.809   4.959   1.013
25201WAT     H175845   8.884   4.909   0.968
25201WAT     H275846   8.847   5.030   1.071
25202WAT      O75847   2.417   8.307   5.599
25202WAT     H175848   2.347   8.378   5.607
25202WAT     H275849   2.492   8.340   5.542
25203WAT      O75850   3.939   0.050   0.041
25203WAT     H175851   4.031   0.023   0.011
25203WAT     H275852   3.870  -0.000  -0.011
25204WAT      O75853   5.221   6.918   9.434
25204WAT     H175854   5.212   6.829   9.389
25204WAT     H275855   5.215   6.991   9.367
25205WAT      O75856   2.655   6.112   2.110
25205WAT     H175857   2.676   6.124   2.207
25205WAT     H275858   2.728   6.154   2.055
25206WAT      O75859   2.369   8.413   0.476
25206WAT     H175860   2.287   8.431   0.529
25206WAT     H275861   2.405   8.498   0.440
25207WAT      O75862   6.785   2.901   2.439
25207WAT     H175863   6.735   2.862   2.517
25207WAT     H275864   6.871   2.851   2.427
25208WAT      O75865   7.395   0.783   9.788
25208WAT     H175866   7.399   0.823   9.696
25208WAT     H275867   7.350   0.848   9.850
25209WAT      O75868   2.320   4.924   2.437
25209WAT     H175869   2.365   4.991   2.498
25209WAT     H275870   2.371   4.838   2.440
25210WAT      O75871   7.207   0.943   7.211
25210WAT     H175872   7.152   0.862   7.231
25210WAT     H275873   7.147   1.022   7.200
25211WAT      O75874   1.513   5.053   9.102
25211WAT     H175875   1.600   5.027   9.144
25211WAT     H275876   1.530   5.091   9.011
25212WAT      O75877   5.598   4.036   0.316
25212WAT     H175878   5.509   4.080   0.327
25212WAT     H275879   5.590   3.940   0.342
25213WAT      O75880   8.193   6.452   0.220
25213WAT     H175881   8.222   6.464   0.315
25213WAT     H275882   8.246   6.378   0.178
25214WAT      O75883   7.515   2.937   8.831
25214WAT     H175884   7.517   2.848   8.876
25214WAT     H275885   7.474   3.005   8.893
25215WAT      O75886   4.525   2.695   2.776
25215WAT     H175887   4.426   2.679   2.768
25215WAT     H275888   4.561   2.725   2.688
25216WAT      O75889   5.405   5.506   1.528
25216WAT     H175890   5.456   5.587   1.499
25216WAT     H275891   5.329   5.533   1.587
25217WAT      O75892   2.781   9.226   2.467
25217WAT     H175893   2.796   9.137   2.510
25217WAT     H275894   2.860   9.284   2.483
25218WAT      O75895   2.135   3.549   8.041
25218WAT     H175896   2.125   3.646   8.017
25218WAT     H275897   2.150   3.496   7.958
25219WAT      O75898   6.662   1.816   4.185
25219WAT     H175899   6.675   1.820   4.284
25219WAT     H275900   6.566   1.829   4.163
25220WAT      O75901   1.241   2.676   3.446
25220WAT     H175902   1.331   2.691   3.404
25220WAT     H275903   1.209   2.762   3.487
25221WAT      O75904   5.057   9.302   1.181
25221WAT     H175905   5.047   9.255   1.093
25221WAT     H275906   5.016   9.246   1.253
25222WAT      O75907   1.880   6.241   5.699
25222WAT     H175908   1.823   6.232   5.780
25222WAT     H275909   1.944   6.164   5.695
25223WAT      O75910   3.851   2.112   4.584
25223WAT     H175911   3.915   2.182   4.617
25223WAT     H275912   3.793   2.082   4.660
25224WAT      O75913   5.100   0.068   0.911
25224WAT     H175914   5.084   0.055   1.009
25224WAT     H275915   5.193   0.104   0.897
25225WAT      O75916   1.572   3.683   6.472
25225WAT     H175917   1.632   3.638   6.406
25225WAT     H275918   1.500   3.733   6.424
25226WAT      O75919   7.240   0.763   1.475
25226WAT     H175920   7.145   0.744   1.450
25226WAT     H275921   7.265   0.707   1.555
25227WAT      O75922   3.539   4.808   5.911
25227WAT     H175923   3.626   4.800   5.959
25227WAT     H275924   3.479   4.870   5.960
25228WAT      O75925   5.940   4.674   0.785
25228WAT     H175926   6.015   4.615   0.754
25228WAT     H275927   5.968   4.723   0.867
25229WAT      O75928   3.634   6.402   5.214
25229WAT     H175929   3.591   6.449   5.137
25229WAT     H275930   3.575   6.326   5.243
25230WAT      O75931   3.475   7.058   4.165
25230WAT     H175932   3.429   7.002   4.234
25230WAT     H275933   3.443   7.153   4.173
25231WAT      O75934   7.061   0.388   7.596
25231WAT     H175935   6.999   0.460   7.628
25231WAT     H275936   7.033   0.300   7.635
25232WAT      O75937   2.540   3.804   0.675
25232WAT     H175938   2.547   3.872   0.747
25232WAT     H275939   2.534   3.712   0.715
25233WAT      O75940   9.861   3.549   9.103
25233WAT     H175941   9.961   3.545   9.104
25233WAT     H275942   9.825   3.458   9.122
25234WAT      O75943   0.293   0.899   3.375
25234WAT     H175944   0.213   0.912   3.316
25234WAT     H275945   0.279   0.947   3.462
25235WAT      O75946   6.717   5.627   2.379
25235WAT     H175947   6.779   5.549   2.367
25235WAT     H275948   6.726   5.663   2.471
25236WAT      O75949   5.219   3.255   1.338
25236WAT     H175950   5.158   3.290   1.267
25236WAT     H275951   5.223   3.321   1.413
25237WAT      O75952   9.883   7.076   3.596
25237WAT     H175953   9.866   7.070   3.694
25237WAT     H275954   9.799   7.052   3.546
25238WAT      O75955   4.378   4.291   0.530
25238WAT     H175956   4.414   4.253   0.615
25238WAT     H275957   4.280   4.272   0.523
25239WAT      O75958   7.425   5.943   8.029
25239WAT     H175959   7.458   6.035   8.052
25239WAT     H275960   7.329   5.948   8.003
25240WAT      O75961   3.877   0.558   8.508
25240WAT     H175962   3.810   0.493   8.471
25240WAT     H275963   3.966   0.512   8.517
25241WAT      O75964   0.656   3.020   7.423
25241WAT     H175965   0.755   3.039   7.423
25241WAT     H275966   0.625   3.010   7.329
25242WAT      O75967   2.632   6.563   1.961
25242WAT     H175968   2.709   6.538   1.902
25242WAT     H275969   2.569   6.485   1.967
25243WAT      O75970   3.254   5.305   5.839
25243WAT     H175971   3.158   5.332   5.842
25243WAT     H275972   3.288   5.289   5.931
25244WAT      O75973   8.461   9.653   5.508
25244WAT     H175974   8.541   9.638   5.451
25244WAT     H275975   8.425   9.745   5.492
25245WAT      O75976   2.555   7.211   2.150
25245WAT     H175977   2.562   7.113   2.132
25245WAT     H275978   2.579   7.229   2.245
25246WAT      O75979   7.557   7.686   5.635
25246WAT     H175980   7.480   7.734   5.593
25246WAT     H275981   7.633   7.681   5.570
25247WAT      O75982   4.424   3.958   9.702
25247WAT     H175983   4.389   3.973   9.795
25247WAT     H275984   4.348   3.958   9.637
25248WAT      O75985   2.581   3.625   6.021
25248WAT     H175986   2.635   3.553   6.064
25248WAT     H275987   2.547   3.688   6.091
25249WAT      O75988   2.630   8.362   2.451
25249WAT     H175989   2.570   8.336   2.526
25249WAT     H275990   2.707   8.415   2.486
25250WAT      O75991   1.367   5.569   8.165
25250WAT     H175992   1.366   5.527   8.074
25250WAT     H275993   1.308   5.516   8.226
25251WAT      O75994   6.141   3.854   8.422
25251WAT     H175995   6.120   3.853   8.324
25251WAT     H275996   6.200   3.777   8.445
25252WAT      O75997   9.330   6.584   3.643
25252WAT     H175998   9.325   6.577   3.543
25252WAT     H275999   9.398   6.521   3.678
25253WAT      O76000   1.306   6.428   3.992
25253WAT     H176001   1.225   6.374   3.971
25253WAT     H276002   1.375   6.370   4.035
25254WAT      O76003   4.817   3.381   2.735
25254WAT     H176004   4.794   3.471   2.699
25254WAT     H276005   4.880   3.335   2.672
25255WAT      O76006   4.777   9.672   8.262
25255WAT     H176007   4.708   9.744   8.273
25255WAT     H276008   4.824   9.684   8.174
25256WAT      O76009   2.438   8.969   4.583
25256WAT     H176010   2.447   8.892   4.520
25256WAT     H276011   2.394   8.938   4.668
25257WAT      O76012   9.842   5.434   3.522
25257WAT     H176013   9.893   5.517   3.501
25257WAT     H276014   9.868   5.401   3.613
25258WAT      O76015   7.065   3.322   0.782
25258WAT     H176016   7.009   3.310   0.700
25258WAT     H276017   7.159   3.295   0.762
25259WAT      O76018   2.744   2.016   1.282
25259WAT     H176019   2.805   1.969   1.219
25259WAT     H276020   2.706   1.949   1.347
25260WAT      O76021   7.992   1.985   7.556
25260WAT     H176022   8.016   2.060   7.493
25260WAT     H276023   8.072   1.959   7.609
25261WAT      O76024   3.726   2.970   4.988
25261WAT     H176025   3.781   3.015   5.058
25261WAT     H276026   3.633   3.008   4.990
25262WAT      O76027   4.939   7.689   3.873
25262WAT     H176028   4.872   7.637   3.820
25262WAT     H276029   4.891   7.758   3.927
25263WAT      O76030   3.115   0.699   5.591
25263WAT     H176031   3.032   0.690   5.646
25263WAT     H276032   3.144   0.609   5.559
25264WAT      O76033   5.425   3.488   6.415
25264WAT     H176034   5.329   3.498   6.389
25264WAT     H276035   5.447   3.391   6.425
25265WAT      O76036   7.387   9.117   0.187
25265WAT     H176037   7.478   9.152   0.211
25265WAT     H276038   7.323   9.138   0.260
25266WAT      O76039   7.965   8.672   0.316
25266WAT     H176040   8.048   8.656   0.264
25266WAT     H276041   7.887   8.675   0.254
25267WAT      O76042   1.780   6.367   0.582
25267WAT     H176043   1.831   6.306   0.641
25267WAT     H276044   1.781   6.332   0.488
25268WAT      O76045   4.808   7.121   0.692
25268WAT     H176046   4.852   7.043   0.737
25268WAT     H276047   4.878   7.186   0.662
25269WAT      O76048   1.110   7.109   3.212
25269WAT     H176049   1.090   7.050   3.290
25269WAT     H276050   1.209   7.112   3.197
25270WAT      O76051   0.789   7.344   2.223
25270WAT     H176052   0.710   7.308   2.272
25270WAT     H276053   0.768   7.350   2.125
25271WAT      O76054   2.806   7.587   9.868
25271WAT     H176055   2.783   7.681   9.893
25271WAT     H276056   2.739   7.553   9.801
25272WAT      O76057   8.882   4.691   3.680
25272WAT     H176058   8.891   4.659   3.775
25272WAT     H276059   8.927   4.626   3.619
25273WAT      O76060   9.419   3.634   3.160
25273WAT     H176061   9.493   3.677   3.212
25273WAT     H276062   9.333   3.679   3.180
25274WAT      O76063   4.089   7.738   5.387
25274WAT     H176064   3.992   7.715   5.394
25274WAT     H276065   4.110   7.766   5.294
25275WAT      O76066   3.184   6.111   5.878
25275WAT     H176067   3.281   6.124   5.862
25275WAT     H276068   3.138   6.199   5.879
25276WAT      O76069   7.667   6.019   2.629
25276WAT     H176070   7.738   6.086   2.606
25276WAT     H276071   7.581   6.047   2.585
25277WAT      O76072   6.205   6.456   7.366
25277WAT     H176073   6.263   6.408   7.301
25277WAT     H276074   6.129   6.500   7.317
25278WAT      O76075   7.377   4.170   0.600
25278WAT     H176076   7.464   4.153   0.647
25278WAT     H276077   7.387   4.247   0.537
25279WAT      O76078   1.921   7.340   9.335
25279WAT     H176079   2.005   7.362   9.287
25279WAT     H276080   1.901   7.242   9.325
25280WAT      O76081   1.649   8.039   8.496
25280WAT     H176082   1.687   7.951   8.525
25280WAT     H276083   1.644   8.042   8.397
25281WAT      O76084   5.245   1.337   6.739
25281WAT     H176085   5.230   1.294   6.650
25281WAT     H276086   5.303   1.418   6.727
25282WAT      O76087   0.260   0.731   7.929
25282WAT     H176088   0.185   0.668   7.910
25282WAT     H276089   0.262   0.751   8.027
25283WAT      O76090   7.539   3.845   4.426
25283WAT     H176091   7.460   3.832   4.486
25283WAT     H276092   7.605   3.771   4.441
25284WAT      O76093   8.851   3.994   1.627
25284WAT     H176094   8.815   3.959   1.540
25284WAT     H276095   8.852   4.094   1.625
25285WAT      O76096   7.543   1.312   3.996
25285WAT     H176097   7.526   1.277   3.904
25285WAT     H276098   7.636   1.288   4.024
25286WAT      O76099   8.649   1.547   8.139
25286WAT     H176100   8.623   1.452   8.125
25286WAT     H276101   8.572   1.597   8.179
25287WAT      O76102   4.112   1.031   2.066
25287WAT     H176103   4.026   0.987   2.093
25287WAT     H276104   4.112   1.048   1.968
25288WAT      O76105   9.479   3.367   4.254
25288WAT     H176106   9.480   3.275   4.215
25288WAT     H276107   9.483   3.434   4.180
25289WAT      O76108   1.355   0.260   2.281
25289WAT     H176109   1.300   0.209   2.214
25289WAT     H276110   1.303   0.267   2.366
25290WAT      O76111   6.734   6.636   0.870
25290WAT     H176112   6.636   6.656   0.873
25290WAT     H276113   6.784   6.718   0.843
25291WAT      O76114   5.835   2.379   0.342
25291WAT     H176115   5.827   2.280   0.349
25291WAT     H276116   5.807   2.422   0.428
25292WAT      O76117   2.447   9.705   5.374
25292WAT     H176118   2.390   9.627   5.399
25292WAT     H276119   2.415   9.787   5.421
25293WAT      O76120   3.781   7.553   1.862
25293WAT     H176121   3.779   7.517   1.956
25293WAT     H276122   3.835   7.637   1.860
25294WAT      O76123   5.821   7.168   4.453
25294WAT     H176124   5.793   7.094   4.393
25294WAT     H276125   5.918   7.158   4.477
25295WAT      O76126   5.340   1.503   2.803
25295WAT     H176127   5.258   1.447   2.794
25295WAT     H276128   5.421   1.447   2.787
25296WAT      O76129   4.642   0.017   7.569
25296WAT     H176130   4.676   0.036   7.477
25296WAT     H276131   4.714   0.036   7.636
25297WAT      O76132   9.570   6.632   9.820
25297WAT     H176133   9.504   6.560   9.799
25297WAT     H276134   9.521   6.717   9.841
25298WAT      O76135   4.870   9.095   1.258
25298WAT     H176136   4.816   9.038   1.321
25298WAT     H276137   4.884   9.045   1.172
25299WAT      O76138   2.603   7.976   3.010
25299WAT     H176139   2.696   7.980   3.045
25299WAT     H276140   2.580   8.064   2.967
25300WAT      O76141   1.578   2.502   4.812
25300WAT     H176142   1.649   2.431   4.813
25300WAT     H276143   1.492   2.462   4.844
25301WAT      O76144   4.691   9.764   0.770
25301WAT     H176145   4.741   9.677   0.766
25301WAT     H276146   4.634   9.774   0.689
25302WAT      O76147   6.803   7.314   0.151
25302WAT     H176148   6.703   7.310   0.141
25302WAT     H276149   6.838   7.221   0.164
25303WAT      O76150   3.882   1.328   8.921
25303WAT     H176151   3.818   1.262   8.960
25303WAT     H276152   3.875   1.414   8.972
25304WAT      O76153   4.817   0.952   8.808
25304WAT     H176154   4.769   1.000   8.735
25304WAT     H276155   4.867   0.874   8.770
25305WAT      O76156   1.495   0.351   0.964
25305WAT     H176157   1.569   0.416   0.977
25305WAT     H276158   1.501   0.312   0.872
25306WAT      O76159   0.858   1.654   9.617
25306WAT     H176160   0.802   1.708   9.553
25306WAT     H276161   0.951   1.690   9.619
25307WAT      O76162   2.157   9.659   3.501
25307WAT     H176163   2.097   9.645   3.422
25307WAT     H276164   2.165   9.572   3.551
25308WAT      O76165   1.512   6.093   9.222
25308WAT     H176166   1.528   6.171   9.161
25308WAT     H276167   1.600   6.051   9.244
25309WAT      O76168   6.092   8.972   5.761
25309WAT     H176169   6.056   9.039   5.826
25309WAT     H276170   6.190   8.959   5.778
25310WAT      O76171   5.847   7.457   1.098
25310WAT     H176172   5.938   7.462   1.057
25310WAT     H276173   5.814   7.363   1.097
25311WAT      O76174   9.722   1.414   2.052
25311WAT     H176175   9.741   1.465   1.969
25311WAT     H276176   9.806   1.367   2.082
25312WAT      O76177   9.055   4.886   6.152
25312WAT     H176178   9.153   4.870   6.149
25312WAT     H276179   9.036   4.982   6.135
25313WAT      O76180   4.031   1.922   1.519
25313WAT     H176181   4.085   1.869   1.453
25313WAT     H276182   3.957   1.968   1.470
25314WAT      O76183   8.645   7.900   7.692
25314WAT     H176184   8.567   7.893   7.754
25314WAT     H276185   8.714   7.961   7.733
25315WAT      O76186   2.113   5.586   8.954
25315WAT     H176187   2.190   5.650   8.957
25315WAT     H276188   2.121   5.529   8.872
25316WAT      O76189   0.514   7.659   5.321
25316WAT     H176190   0.429   7.609   5.335
25316WAT     H276191   0.496   7.757   5.319
25317WAT      O76192   9.623   4.923   2.269
25317WAT     H176193   9.603   4.827   2.292
25317WAT     H276194   9.560   4.983   2.317
25318WAT      O76195   3.072   1.362   8.712
25318WAT     H176196   3.099   1.352   8.616
25318WAT     H276197   3.050   1.458   8.730
25319WAT      O76198   9.407   5.719   2.233
25319WAT     H176199   9.340   5.742   2.304
25319WAT     H276200   9.463   5.799   2.213
25320WAT      O76201   6.113   6.061   5.417
25320WAT     H176202   6.050   6.080   5.342
25320WAT     H276203   6.150   6.146   5.453
25321WAT      O76204   7.146   3.201   4.801
25321WAT     H176205   7.134   3.258   4.882
25321WAT     H276206   7.090   3.236   4.726
25322WAT      O76207   9.579   1.902   3.045
25322WAT     H176208   9.482   1.887   3.029
25322WAT     H276209   9.628   1.815   3.038
25323WAT      O76210   3.395   7.909   0.280
25323WAT     H176211   3.430   7.816   0.268
25323WAT     H276212   3.297   7.904   0.301
25324WAT      O76213   2.169   4.384   4.032
25324WAT     H176214   2.074   4.383   4.000
25324WAT     H276215   2.218   4.460   3.989
25325WAT      O76216   5.678   8.477   8.171
25325WAT     H176217   5.695   8.504   8.076
25325WAT     H276218   5.743   8.406   8.197
25326WAT      O76219   9.662   5.484   1.576
25326WAT     H176220   9.734   5.447   1.519
25326WAT     H276221   9.626   5.413   1.637
25327WAT      O76222   1.347   7.218   3.157
25327WAT     H176223   1.410   7.213   3.233
25327WAT     H276224   1.367   7.300   3.103
25328WAT      O76225   2.301   5.407   4.115
25328WAT     H176226   2.245   5.371   4.040
25328WAT     H276227   2.306   5.507   4.107
25329WAT      O76228   2.970   5.015   4.104
25329WAT     H176229   2.977   4.959   4.022
25329WAT     H276230   2.925   4.963   4.176
25330WAT      O76231   3.114   6.545   3.233
25330WAT     H176232   3.141   6.572   3.141
25330WAT     H276233   3.139   6.618   3.298
25331WAT      O76234   9.154   8.267   9.727
25331WAT     H176235   9.199   8.346   9.686
25331WAT     H276236   9.197   8.183   9.695
25332WAT      O76237   7.342   7.887   4.654
25332WAT     H176238   7.308   7.795   4.669
25332WAT     H276239   7.331   7.941   4.737
25333WAT      O76240   5.120   1.655   9.321
25333WAT     H176241   5.215   1.675   9.294
25333WAT     H276242   5.059   1.720   9.277
25334WAT      O76243   9.808   9.457   6.609
25334WAT     H176244   9.709   9.471   6.606
25334WAT     H276245   9.854   9.536   6.567
25335WAT      O76246   7.299   8.699   8.524
25335WAT     H176247   7.269   8.604   8.537
25335WAT     H276248   7.383   8.715   8.576
25336WAT      O76249   4.757   7.022   0.441
25336WAT     H176250   4.764   7.035   0.539
25336WAT     H276251   4.666   7.051   0.410
25337WAT      O76252   4.762   0.718   1.932
25337WAT     H176253   4.717   0.648   1.877
25337WAT     H276254   4.799   0.790   1.872
25338WAT      O76255   6.852   9.574   0.139
25338WAT     H176256   6.782   9.532   0.196
25338WAT     H276257   6.883   9.508   0.070
25339WAT      O76258   3.374   3.694   2.796
25339WAT     H176259   3.311   3.764   2.762
25339WAT     H276260   3.434   3.733   2.865
25340WAT      O76261   2.058   6.205   4.701
25340WAT     H176262   2.066   6.300   4.669
25340WAT     H276263   2.001   6.203   4.783
25341WAT      O76264   1.924   1.769   0.828
25341WAT     H176265   1.975   1.834   0.885
25341WAT     H276266   1.827   1.793   0.827
25342WAT      O76267   1.820   7.077   9.622
25342WAT     H176268   1.823   7.002   9.556
25342WAT     H276269   1.893   7.064   9.690
25343WAT      O76270   0.255   4.463   6.950
25343WAT     H176271   0.193   4.521   7.004
25343WAT     H276272   0.349   4.493   6.965
25344WAT      O76273   0.095   1.052   4.219
25344WAT     H176274   0.075   1.124   4.153
25344WAT     H276275   0.026   1.053   4.292
25345WAT      O76276   7.019   0.202   1.099
25345WAT     H176277   7.061   0.220   1.187
25345WAT     H276278   6.933   0.252   1.091
25346WAT      O76279   9.759   7.068   1.724
25346WAT     H176280   9.728   7.042   1.633
25346WAT     H276281   9.822   7.145   1.717
25347WAT      O76282   5.280   7.210   1.758
25347WAT     H176283   5.333   7.273   1.702
25347WAT     H276284   5.213   7.163   1.701
25348WAT      O76285   6.057   1.779   7.498
25348WAT     H176286   6.080   1.872   7.472
25348WAT     H276287   6.099   1.715   7.434
25349WAT      O76288   1.936   2.058   2.373
25349WAT     H176289   1.871   2.084   2.302
25349WAT     H276290   1.907   1.972   2.415
25350WAT      O76291   3.928   6.149   5.558
25350WAT     H176292   3.887   6.238   5.580
25350WAT     H276293   3.956   6.103   5.642
25351WAT      O76294   6.414   0.173   9.631
25351WAT     H176295   6.465   0.212   9.708
25351WAT     H276296   6.470   0.106   9.583
25352WAT      O76297   9.122   2.988   0.030
25352WAT     H176298   9.160   2.917   0.090
25352WAT     H276299   9.117   2.953  -0.063
25353WAT      O76300   9.852   4.027   2.771
25353WAT     H176301   9.765   3.977   2.774
25353WAT     H276302   9.858   4.078   2.686
25354WAT      O76303   0.848   2.019   8.287
25354WAT     H176304   0.808   2.098   8.334
25354WAT     H276305   0.811   1.935   8.327
25355WAT      O76306   9.432   9.160   1.863
25355WAT     H176307   9.459   9.123   1.774
25355WAT     H276308   9.449   9.259   1.865
25356WAT      O76309   7.449   3.228   1.764
25356WAT     H176310   7.411   3.319   1.782
25356WAT     H276311   7.548   3.236   1.750
25357WAT      O76312   7.806   3.716   0.290
25357WAT     H176313   7.853   3.676   0.369
25357WAT     H276314   7.872   3.732   0.217
25358WAT      O76315   9.315   9.524   9.754
25358WAT     H176316   9.320   9.498   9.657
25358WAT     H276317   9.277   9.448   9.807
25359WAT      O76318   7.216   4.826   4.917
25359WAT     H176319   7.118   4.840   4.930
25359WAT     H276320   7.236   4.817   4.820
25360WAT      O76321   9.376   2.634   1.743
25360WAT     H176322   9.362   2.685   1.658
25360WAT     H276323   9.352   2.691   1.821
25361WAT      O76324   8.841   3.473   7.840
25361WAT     H176325   8.872   3.505   7.751
25361WAT     H276326   8.843   3.373   7.843
25362WAT      O76327   0.389   7.263   2.883
25362WAT     H176328   0.440   7.341   2.847
25362WAT     H276329   0.360   7.281   2.977
25363WAT      O76330   4.522   6.371   5.798
25363WAT     H176331   4.475   6.372   5.886
25363WAT     H276332   4.461   6.411   5.729
25364WAT      O76333   5.271   5.016   2.742
25364WAT     H176334   5.269   5.097   2.684
25364WAT     H276335   5.302   4.937   2.689
25365WAT      O76336   1.989   0.058   7.529
25365WAT     H176337   2.035   0.147   7.526
25365WAT     H276338   2.057  -0.015   7.536
25366WAT      O76339   4.242   7.051   0.845
25366WAT     H176340   4.224   6.952   0.846
25366WAT     H276341   4.340   7.066   0.831
25367WAT      O76342   5.743   4.425   0.900
25367WAT     H176343   5.661   4.435   0.956
25367WAT     H276344   5.823   4.422   0.960
25368WAT      O76345   2.557   1.641   9.400
25368WAT     H176346   2.567   1.600   9.309
25368WAT     H276347   2.481   1.705   9.399
25369WAT      O76348   3.373   2.811   6.353
25369WAT     H176349   3.389   2.767   6.265
25369WAT     H276350   3.325   2.898   6.339
25370WAT      O76351   2.595   7.172   5.742
25370WAT     H176352   2.548   7.243   5.794
25370WAT     H276353   2.570   7.082   5.779
25371WAT      O76354   3.102   2.423   3.119
25371WAT     H176355   3.150   2.356   3.174
25371WAT     H276356   3.042   2.478   3.177
25372WAT      O76357   9.601   8.319   5.870
25372WAT     H176358   9.589   8.408   5.914
25372WAT     H276359   9.602   8.247   5.939
25373WAT      O76360   2.566   8.814   8.419
25373WAT     H176361   2.517   8.727   8.405
25373WAT     H276362   2.628   8.830   8.342
25374WAT      O76363   4.127   1.176   3.337
25374WAT     H176364   4.101   1.250   3.399
25374WAT     H276365   4.154   1.096   3.390
25375WAT      O76366   4.448   8.882   7.524
25375WAT     H176367   4.413   8.939   7.450
25375WAT     H276368   4.480   8.795   7.486
25376WAT      O76369   4.077   9.675   4.093
25376WAT     H176370   3.981   9.666   4.066
25376WAT     H276371   4.083   9.731   4.176
25377WAT      O76372   6.172   0.344   4.771
25377WAT     H176373   6.189   0.431   4.817
25377WAT     H276374   6.195   0.354   4.674
25378WAT      O76375   2.281   7.174   2.513
25378WAT     H176376   2.286   7.239   2.438
25378WAT     H276377   2.368   7.174   2.564
25379WAT      O76378   2.105   0.605   1.751
25379WAT     H176379   2.195   0.644   1.732
25379WAT     H276380   2.094   0.519   1.701
25380WAT      O76381   2.313   4.165   4.088
25380WAT     H176382   2.242   4.106   4.125
25380WAT     H276383   2.289   4.260   4.104
25381WAT      O76384   3.956   2.655   0.272
25381WAT     H176385   4.011   2.693   0.198
25381WAT     H276386   4.011   2.649   0.356
25382WAT      O76387   8.147   6.307   6.862
25382WAT     H176388   8.063   6.328   6.813
25382WAT     H276389   8.158   6.208   6.868
25383WAT      O76390   4.941   5.003   0.779
25383WAT     H176391   4.945   4.974   0.874
25383WAT     H276392   4.941   4.922   0.719
25384WAT      O76393   1.120   8.859   9.250
25384WAT     H176394   1.040   8.895   9.296
25384WAT     H276395   1.093   8.787   9.186
25385WAT      O76396   1.297   6.891   7.187
25385WAT     H176397   1.227   6.961   7.173
25385WAT     H276398   1.347   6.910   7.272
25386WAT      O76399   5.495   7.613   0.814
25386WAT     H176400   5.576   7.591   0.759
25386WAT     H276401   5.428   7.659   0.756
25387WAT      O76402   3.618   7.711   6.793
25387WAT     H176403   3.708   7.693   6.833
25387WAT     H276404   3.552   7.645   6.830
25388WAT      O76405   8.492   6.340   6.043
25388WAT     H176406   8.393   6.328   6.047
25388WAT     H276407   8.531   6.271   5.982
25389WAT      O76408   6.357   5.482   8.360
25389WAT     H176409   6.449   5.521   8.358
25389WAT     H276410   6.343   5.434   8.447
25390WAT      O76411   9.119   7.162   4.489
25390WAT     H176412   9.111   7.084   4.550
25390WAT     H276413   9.033   7.175   4.439
25391WAT      O76414   2.973   8.039   6.293
25391WAT     H176415   2.879   8.019   6.263
25391WAT     H276416   2.999   8.131   6.262
25392WAT      O76417   6.512   5.838   4.110
25392WAT     H176418   6.606   5.837   4.076
25392WAT     H276419   6.489   5.929   4.143
25393WAT      O76420   0.339   7.131   9.801
25393WAT     H176421   0.257   7.186   9.791
25393WAT     H276422   0.320   7.055   9.864
25394WAT      O76423   0.702   2.238   2.792
25394WAT     H176424   0.666   2.146   2.801
25394WAT     H276425   0.755   2.246   2.707
25395WAT      O76426   6.491   9.458   1.423
25395WAT     H176427   6.446   9.404   1.351
25395WAT     H276428   6.576   9.413   1.451
25396WAT      O76429   1.661   4.756   8.810
25396WAT     H176430   1.644   4.742   8.712
25396WAT     H276431   1.584   4.719   8.862
25397WAT      O76432   0.160   6.632   7.891
25397WAT     H176433   0.068   6.595   7.904
25397WAT     H276434   0.158   6.704   7.821
25398WAT      O76435   1.373   0.386   3.525
25398WAT     H176436   1.371   0.416   3.429
25398WAT     H276437   1.299   0.429   3.575
25399WAT      O76438   1.162   2.109   6.091
25399WAT     H176439   1.204   2.099   6.001
25399WAT     H276440   1.222   2.070   6.161
25400WAT      O76441   1.540   6.803   5.131
25400WAT     H176442   1.534   6.862   5.050
25400WAT     H276443   1.459   6.816   5.188
25401WAT      O76444   0.400   4.757   8.113
25401WAT     H176445   0.376   4.853   8.104
25401WAT     H276446   0.319   4.705   8.141
25402WAT      O76447   2.576   1.863   5.764
25402WAT     H176448   2.585   1.960   5.788
25402WAT     H276449   2.526   1.815   5.836
25403WAT      O76450   5.906   1.017   3.418
25403WAT     H176451   5.909   1.020   3.518
25403WAT     H276452   5.890   0.923   3.388
25404WAT      O76453   3.974   0.275   6.489
25404WAT     H176454   3.961   0.284   6.588
25404WAT     H276455   4.067   0.303   6.465
25405WAT      O76456   7.196   2.884   9.816
25405WAT     H176457   7.165   2.950   9.884
25405WAT     H276458   7.260   2.928   9.753
25406WAT      O76459   5.715   5.333   6.508
25406WAT     H176460   5.633   5.317   6.563
25406WAT     H276461   5.759   5.246   6.488
25407WAT      O76462   2.852   0.649   4.582
25407WAT     H176463   2.846   0.550   4.566
25407WAT     H276464   2.797   0.673   4.662
25408WAT      O76465   0.180   8.682   1.790
25408WAT     H176466   0.227   8.758   1.835
25408WAT     H276467   0.212   8.674   1.695
25409WAT      O76468   7.298   9.284   5.502
25409WAT     H176469   7.328   9.292   5.407
25409WAT     H276470   7.225   9.216   5.509
25410WAT      O76471   0.746   6.142   1.678
25410WAT     H176472   0.707   6.086   1.605
25410WAT     H276473   0.687   6.221   1.695
25411WAT      O76474   9.812   7.361   0.772
25411WAT     H176475   9.765   7.383   0.687
25411WAT     H276476   9.909   7.348   0.755
25412WAT      O76477   3.901   3.986   0.304
25412WAT     H176478   3.965   3.976   0.227
25412WAT     H276479   3.914   3.912   0.369
25413WAT      O76480   8.086   9.192   3.806
25413WAT     H176481   8.156   9.121   3.805
25413WAT     H276482   8.093   9.246   3.722
25414WAT      O76483   3.308   8.858   0.583
25414WAT     H176484   3.337   8.925   0.515
25414WAT     H276485   3.211   8.837   0.571
25415WAT      O76486   6.632   5.672   7.203
25415WAT     H176487   6.581   5.728   7.267
25415WAT     H276488   6.586   5.584   7.191
25416WAT      O76489   1.494   9.023   7.329
25416WAT     H176490   1.510   9.099   7.391
25416WAT     H276491   1.425   9.049   7.261
25417WAT      O76492   8.578   8.212   2.428
25417WAT     H176493   8.631   8.152   2.489
25417WAT     H276494   8.568   8.168   2.339
25418WAT      O76495   6.148   1.310   2.460
25418WAT     H176496   6.186   1.399   2.435
25418WAT     H276497   6.062   1.322   2.509
25419WAT      O76498   4.321   1.495   2.856
25419WAT     H176499   4.305   1.557   2.933
25419WAT     H276500   4.376   1.417   2.886
25420WAT      O76501   4.877   2.345   9.817
25420WAT     H176502   4.878   2.442   9.795
25420WAT     H276503   4.967   2.317   9.851
25421WAT      O76504   5.127   6.970   1.948
25421WAT     H176505   5.210   7.025   1.948
25421WAT     H276506   5.069   6.998   2.024
25422WAT      O76507   3.300   0.828   7.738
25422WAT     H176508   3.292   0.835   7.638
25422WAT     H276509   3.358   0.903   7.771
25423WAT      O76510   3.190   9.350   4.242
25423WAT     H176511   3.096   9.328   4.270
25423WAT     H276512   3.215   9.293   4.163
25424WAT      O76513   2.592   1.757   1.785
25424WAT     H176514   2.549   1.679   1.740
25424WAT     H276515   2.680   1.729   1.824
25425WAT      O76516   1.152   7.045   9.881
25425WAT     H176517   1.155   6.975   9.810
25425WAT     H276518   1.065   7.094   9.875
25426WAT      O76519   3.475   7.248   8.976
25426WAT     H176520   3.476   7.344   9.005
25426WAT     H276521   3.461   7.189   9.055
25427WAT      O76522   5.935   4.895   3.537
25427WAT     H176523   5.869   4.822   3.518
25427WAT     H276524   5.926   4.924   3.633
25428WAT      O76525   1.473   2.622   4.596
25428WAT     H176526   1.514   2.584   4.679
25428WAT     H276527   1.545   2.655   4.535
25429WAT      O76528   5.505   1.973   3.236
25429WAT     H176529   5.438   1.978   3.311
25429WAT     H276530   5.499   2.056   3.181
25430WAT      O76531   5.352   3.602   7.802
25430WAT     H176532   5.400   3.553   7.729
25430WAT     H276533   5.275   3.546   7.834
25431WAT      O76534   8.055   3.535   4.849
25431WAT     H176535   8.125   3.607   4.849
25431WAT     H276536   8.087   3.457   4.902
25432WAT      O76537   1.043   1.919   7.887
25432WAT     H176538   1.113   1.943   7.819
25432WAT     H276539   0.963   1.977   7.872
25433WAT      O76540   2.660   8.290   1.038
25433WAT     H176541   2.698   8.209   0.992
25433WAT     H276542   2.588   8.261   1.101
25434WAT      O76543   6.859   2.076   1.367
25434WAT     H176544   6.958   2.080   1.356
25434WAT     H276545   6.817   2.036   1.286
25435WAT      O76546   3.883   4.994   3.055
25435WAT     H176547   3.845   5.042   3.134
25435WAT     H276548   3.889   4.896   3.076
25436WAT      O76549   3.629   6.351   0.539
25436WAT     H176550   3.600   6.413   0.466
25436WAT     H276551   3.726   6.364   0.556
25437WAT      O76552   5.779   4.909   6.823
25437WAT     H176553   5.718   4.885   6.748
25437WAT     H276554   5.797   4.828   6.879
25438WAT      O76555   3.214   3.606   2.179
25438WAT     H176556   3.140   3.541   2.160
25438WAT     H276557   3.183   3.673   2.246
25439WAT      O76558   1.962   3.417   3.600
25439WAT     H176559   2.015   3.482   3.545
25439WAT     H276560   1.939   3.337   3.544
25440WAT      O76561   6.576   6.321   5.982
25440WAT     H176562   6.484   6.308   5.945
25440WAT     H276563   6.573   6.317   6.082
25441WAT      O76564   8.820   5.035   0.191
25441WAT     H176565   8.798   5.067   0.283
25441WAT     H276566   8.773   4.948   0.173
25442WAT      O76567   9.564   9.719   9.281
25442WAT     H176568   9.469   9.690   9.269
25442WAT     H276569   9.566   9.812   9.317
25443WAT      O76570   4.501   7.636   7.695
25443WAT     H176571   4.563   7.712   7.714
25443WAT     H276572   4.458   7.649   7.606
25444WAT      O76573   6.716   5.818   9.870
25444WAT     H176574   6.733   5.797   9.967
25444WAT     H276575   6.803   5.840   9.825
25445WAT      O76576   0.391   7.847   4.658
25445WAT     H176577   0.360   7.804   4.573
25445WAT     H276578   0.345   7.804   4.736
25446WAT      O76579   2.034   6.494   9.667
25446WAT     H176580   1.979   6.472   9.587
25446WAT     H276581   2.012   6.431   9.742
25447WAT      O76582   9.646   0.664   0.866
25447WAT     H176583   9.728   0.673   0.923
25447WAT     H276584   9.642   0.572   0.828
25448WAT      O76585   0.314   6.458   0.370
25448WAT     H176586   0.252   6.380   0.372
25448WAT     H276587   0.409   6.426   0.368
25449WAT      O76588   4.699   4.004   9.341
25449WAT     H176589   4.751   4.070   9.287
25449WAT     H276590   4.661   4.050   9.421
25450WAT      O76591   8.928   4.573   3.911
25450WAT     H176592   9.007   4.601   3.966
25450WAT     H276593   8.937   4.477   3.886
25451WAT      O76594   7.917   4.105   3.276
25451WAT     H176595   7.891   4.008   3.278
25451WAT     H276596   7.836   4.162   3.283
25452WAT      O76597   2.403   4.353   5.926
25452WAT     H176598   2.326   4.326   5.984
25452WAT     H276599   2.425   4.278   5.863
25453WAT      O76600   1.349   5.152   8.079
25453WAT     H176601   1.406   5.071   8.092
25453WAT     H276602   1.358   5.184   7.984
25454WAT      O76603   0.855   8.849   6.915
25454WAT     H176604   0.942   8.897   6.927
25454WAT     H276605   0.823   8.860   6.821
25455WAT      O76606   9.323   2.207   1.727
25455WAT     H176607   9.250   2.249   1.780
25455WAT     H276608   9.398   2.182   1.788
25456WAT      O76609   6.646   9.713   5.080
25456WAT     H176610   6.591   9.739   5.000
25456WAT     H276611   6.586   9.700   5.159
25457WAT      O76612   7.250   9.562   7.642
25457WAT     H176613   7.219   9.524   7.555
25457WAT     H276614   7.301   9.646   7.624
25458WAT      O76615   2.607   8.988   3.589
25458WAT     H176616   2.688   9.021   3.542
25458WAT     H276617   2.590   9.043   3.670
25459WAT      O76618   2.956   5.025   7.531
25459WAT     H176619   2.903   4.973   7.464
25459WAT     H276620   3.022   5.084   7.484
25460WAT      O76621   1.560   1.747   8.218
25460WAT     H176622   1.651   1.732   8.256
25460WAT     H276623   1.549   1.844   8.194
25461WAT      O76624   2.992   0.354   2.031
25461WAT     H176625   3.048   0.315   2.105
25461WAT     H276626   2.959   0.280   1.972
25462WAT      O76627   2.914   7.754   0.909
25462WAT     H176628   3.010   7.782   0.919
25462WAT     H276629   2.911   7.662   0.870
25463WAT      O76630   2.489   9.348   5.530
25463WAT     H176631   2.434   9.408   5.471
25463WAT     H276632   2.479   9.254   5.499
25464WAT      O76633   4.856   3.910   0.035
25464WAT     H176634   4.909   3.974   0.090
25464WAT     H276635   4.896   3.904  -0.056
25465WAT      O76636   7.533   9.569   4.529
25465WAT     H176637   7.479   9.514   4.592
25465WAT     H276638   7.474   9.633   4.481
25466WAT      O76639   9.130   1.233   4.835
25466WAT     H176640   9.131   1.333   4.829
25466WAT     H276641   9.116   1.205   4.930
25467WAT      O76642   9.616   3.073   7.616
25467WAT     H176643   9.630   3.144   7.684
25467WAT     H276644   9.697   3.015   7.611
25468WAT      O76645   5.529   7.339   4.880
25468WAT     H176646   5.438   7.377   4.862
25468WAT     H276647   5.577   7.326   4.793
25469WAT      O76648   4.139   2.792   8.301
25469WAT     H176649   4.072   2.832   8.364
25469WAT     H276650   4.109   2.700   8.275
25470WAT      O76651   2.177   0.633   2.650
25470WAT     H176652   2.123   0.622   2.567
25470WAT     H276653   2.242   0.708   2.638
25471WAT      O76654   0.535   4.297   8.672
25471WAT     H176655   0.492   4.384   8.694
25471WAT     H276656   0.514   4.231   8.745
25472WAT      O76657   0.964   0.122   0.433
25472WAT     H176658   0.948   0.160   0.524
25472WAT     H276659   0.987   0.025   0.440
25473WAT      O76660   4.545   6.546   1.453
25473WAT     H176661   4.618   6.508   1.395
25473WAT     H276662   4.523   6.638   1.422
25474WAT      O76663   6.625   1.189   3.038
25474WAT     H176664   6.662   1.251   3.107
25474WAT     H276665   6.655   1.096   3.059
25475WAT      O76666   5.478   5.943   0.306
25475WAT     H176667   5.505   6.036   0.281
25475WAT     H276668   5.523   5.918   0.392
25476WAT      O76669   4.833   5.387   6.713
25476WAT     H176670   4.862   5.382   6.617
25476WAT     H276671   4.772   5.311   6.734
25477WAT      O76672   4.420   2.138   3.090
25477WAT     H176673   4.321   2.124   3.101
25477WAT     H276674   4.469   2.065   3.138
25478WAT      O76675   2.141   9.592   4.386
25478WAT     H176676   2.117   9.594   4.289
25478WAT     H276677   2.058   9.593   4.441
25479WAT      O76678   2.841   1.338   1.730
25479WAT     H176679   2.898   1.266   1.691
25479WAT     H276680   2.759   1.298   1.771
25480WAT      O76681   0.591   4.778   2.697
25480WAT     H176682   0.630   4.686   2.694
25480WAT     H276683   0.513   4.783   2.634
25481WAT      O76684   6.077   6.653   2.083
25481WAT     H176685   6.069   6.690   2.176
25481WAT     H276686   6.022   6.708   2.021
25482WAT      O76687   9.025   4.594   0.206
25482WAT     H176688   8.998   4.668   0.144
25482WAT     H276689   9.125   4.590   0.210
25483WAT      O76690   1.202   5.706   4.482
25483WAT     H176691   1.130   5.635   4.485
25483WAT     H276692   1.280   5.672   4.429
25484WAT      O76693   4.188   5.978   5.933
25484WAT     H176694   4.177   6.075   5.911
25484WAT     H276695   4.285   5.956   5.941
25485WAT      O76696   5.712   2.901   8.849
25485WAT     H176697   5.758   2.984   8.879
25485WAT     H276698   5.653   2.922   8.771
25486WAT      O76699   6.295   0.057   9.855
25486WAT     H176700   6.372   0.086   9.798
25486WAT     H276701   6.297  -0.043   9.865
25487WAT      O76702   3.543   0.230   8.261
25487WAT     H176703   3.471   0.162   8.269
25487WAT     H276704   3.504   0.319   8.234
25488WAT      O76705   6.682   2.689   4.183
25488WAT     H176706   6.598   2.638   4.200
25488WAT     H276707   6.760   2.627   4.185
25489WAT      O76708   8.150   1.820   2.438
25489WAT     H176709   8.234   1.800   2.489
25489WAT     H276710   8.072   1.786   2.490
25490WAT      O76711   0.217   3.062   0.586
25490WAT     H176712   0.316   3.060   0.595
25490WAT     H276713   0.183   2.972   0.559
25491WAT      O76714   0.148   5.337   6.599
25491WAT     H176715   0.194   5.284   6.528
25491WAT     H276716   0.131   5.278   6.679
25492WAT      O76717   8.863   5.999   6.476
25492WAT     H176718   8.778   6.013   6.425
25492WAT     H276719   8.841   5.988   6.573
25493WAT      O76720   1.547   1.401   6.835
25493WAT     H176721   1.524   1.498   6.821
25493WAT     H276722   1.601   1.368   6.758
25494WAT      O76723   7.478   1.461   3.157
25494WAT     H176724   7.492   1.454   3.256
25494WAT     H276725   7.561   1.494   3.113
25495WAT      O76726   3.872   1.086   3.826
25495WAT     H176727   3.953   1.097   3.883
25495WAT     H276728   3.892   1.023   3.751
25496WAT      O76729   5.470   3.002   0.311
25496WAT     H176730   5.374   3.027   0.305
25496WAT     H276731   5.478   2.906   0.339
25497WAT      O76732   8.444   9.773   6.016
25497WAT     H176733   8.396   9.692   6.050
25497WAT     H276734   8.539   9.749   5.998
25498WAT      O76735   7.671   0.148   1.677
25498WAT     H176736   7.735   0.223   1.695
25498WAT     H276737   7.691   0.072   1.739
25499WAT      O76738   9.503   4.503   4.069
25499WAT     H176739   9.501   4.601   4.050
25499WAT     H276740   9.509   4.488   4.168
25500WAT      O76741   3.965   0.557   6.077
25500WAT     H176742   4.044   0.614   6.057
25500WAT     H276743   3.895   0.571   6.006
25501WAT      O76744   8.583   1.907   3.315
25501WAT     H176745   8.615   1.878   3.405
25501WAT     H276746   8.487   1.932   3.319
25502WAT      O76747   1.225   4.913   0.321
25502WAT     H176748   1.263   4.968   0.395
25502WAT     H276749   1.208   4.970   0.242
25503WAT      O76750   6.334   6.676   7.009
25503WAT     H176751   6.256   6.655   7.068
25503WAT     H276752   6.417   6.639   7.051
25504WAT      O76753   2.055   2.941   2.935
25504WAT     H176754   2.025   2.859   2.887
25504WAT     H276755   2.136   2.979   2.892
25505WAT      O76756   5.029   7.126   0.426
25505WAT     H176757   5.072   7.116   0.516
25505WAT     H276758   4.937   7.088   0.429
25506WAT      O76759   0.466   0.695   2.590
25506WAT     H176760   0.502   0.687   2.496
25506WAT     H276761   0.367   0.684   2.588
25507WAT      O76762   6.559   0.808   2.643
25507WAT     H176763   6.636   0.870   2.632
25507WAT     H276764   6.476   0.861   2.660
25508WAT      O76765   3.201   9.340   0.643
25508WAT     H176766   3.243   9.300   0.562
25508WAT     H276767   3.244   9.301   0.725
25509WAT      O76768   5.620   6.775   9.817
25509WAT     H176769   5.526   6.800   9.841
25509WAT     H276770   5.652   6.835   9.744
25510WAT      O76771   3.121   8.633   3.966
25510WAT     H176772   3.053   8.618   3.894
25510WAT     H276773   3.204   8.582   3.944
25511WAT      O76774   2.319   4.193   8.388
25511WAT     H176775   2.289   4.271   8.441
25511WAT     H276776   2.266   4.187   8.303
25512WAT      O76777   6.320   2.183   6.767
25512WAT     H176778   6.420   2.181   6.759
25512WAT     H276779   6.288   2.095   6.802
25513WAT      O76780   7.737   3.666   4.470
25513WAT     H176781   7.798   3.630   4.400
25513WAT     H276782   7.676   3.594   4.503
25514WAT      O76783   5.549   6.722   0.829
25514WAT     H176784   5.543   6.787   0.754
25514WAT     H276785   5.511   6.634   0.799
25515WAT      O76786   5.536   5.930   6.270
25515WAT     H176787   5.515   6.006   6.331
25515WAT     H276788   5.546   5.964   6.177
25516WAT      O76789   9.312   1.160   4.645
25516WAT     H176790   9.231   1.197   4.690
25516WAT     H276791   9.359   1.234   4.596
25517WAT      O76792   7.453   1.749   5.442
25517WAT     H176793   7.461   1.700   5.528
25517WAT     H276794   7.371   1.806   5.443
25518WAT      O76795   4.558   0.670   0.428
25518WAT     H176796   4.506   0.752   0.452
25518WAT     H276797   4.655   0.686   0.445
25519WAT      O76798   0.617   1.852   9.152
25519WAT     H176799   0.540   1.914   9.165
25519WAT     H276800   0.671   1.847   9.236
25520WAT      O76801   1.217   6.536   2.759
25520WAT     H176802   1.253   6.457   2.710
25520WAT     H276803   1.178   6.601   2.692
25521WAT      O76804   4.046   2.194   6.571
25521WAT     H176805   4.042   2.154   6.479
25521WAT     H276806   4.077   2.125   6.636
25522WAT      O76807   4.742   7.171   1.266
25522WAT     H176808   4.693   7.125   1.193
25522WAT     H276809   4.737   7.116   1.350
25523WAT      O76810   0.220   3.101   4.575
25523WAT     H176811   0.311   3.085   4.614
25523WAT     H276812   0.156   3.036   4.615
25524WAT      O76813   2.388   4.634   8.996
25524WAT     H176814   2.466   4.650   8.935
25524WAT     H276815   2.375   4.715   9.054
25525WAT      O76816   6.527   4.686   1.849
25525WAT     H176817   6.546   4.684   1.948
25525WAT     H276818   6.533   4.593   1.812
25526WAT      O76819   4.845   7.660   1.350
25526WAT     H176820   4.789   7.600   1.293
25526WAT     H276821   4.786   7.708   1.416
25527WAT      O76822   5.603   1.273   4.327
25527WAT     H176823   5.544   1.195   4.348
25527WAT     H276824   5.572   1.352   4.381
25528WAT      O76825   8.978   2.287   4.764
25528WAT     H176826   8.941   2.245   4.681
25528WAT     H276827   8.903   2.316   4.823
25529WAT      O76828   9.607   4.991   5.382
25529WAT     H176829   9.529   5.015   5.324
25529WAT     H276830   9.616   5.058   5.456
25530WAT      O76831   3.920   7.738   2.036
25530WAT     H176832   3.974   7.721   1.954
25530WAT     H276833   3.936   7.664   2.102
25531WAT      O76834   3.165   1.290   1.855
25531WAT     H176835   3.208   1.203   1.831
25531WAT     H276836   3.201   1.322   1.943
25532WAT      O76837   4.397   4.858   3.473
25532WAT     H176838   4.471   4.795   3.451
25532WAT     H276839   4.310   4.809   3.472
25533WAT      O76840   4.950   0.676   3.687
25533WAT     H176841   4.905   0.636   3.767
25533WAT     H276842   5.025   0.617   3.658
25534WAT      O76843   8.878   1.677   2.082
25534WAT     H176844   8.819   1.750   2.049
25534WAT     H276845   8.869   1.597   2.022
25535WAT      O76846   6.396   0.053   5.156
25535WAT     H176847   6.391  -0.043   5.131
25535WAT     H276848   6.323   0.075   5.221
25536WAT      O76849   6.322   5.385   1.317
25536WAT     H176850   6.401   5.367   1.376
25536WAT     H276851   6.350   5.445   1.242
25537WAT      O76852   7.092   6.706   8.536
25537WAT     H176853   7.097   6.710   8.436
25537WAT     H276854   7.088   6.799   8.573
25538WAT      O76855   9.193   5.772   0.256
25538WAT     H176856   9.213   5.711   0.333
25538WAT     H276857   9.137   5.848   0.288
25539WAT      O76858   4.978   4.098   3.547
25539WAT     H176859   4.932   4.180   3.513
25539WAT     H276860   5.041   4.063   3.478
25540WAT      O76861   9.682   0.593   6.929
25540WAT     H176862   9.725   0.614   6.842
25540WAT     H276863   9.715   0.656   6.999
25541WAT      O76864   2.199   1.751   5.245
25541WAT     H176865   2.290   1.733   5.281
25541WAT     H276866   2.147   1.666   5.240
25542WAT      O76867   2.726   8.933   2.603
25542WAT     H176868   2.723   8.917   2.701
25542WAT     H276869   2.637   8.909   2.563
25543WAT      O76870   1.351   4.893   2.867
25543WAT     H176871   1.340   4.819   2.800
25543WAT     H276872   1.444   4.929   2.862
25544WAT      O76873   9.593   4.991   3.286
25544WAT     H176874   9.661   4.919   3.296
25544WAT     H276875   9.574   5.031   3.376
25545WAT      O76876   8.901   7.924   1.614
25545WAT     H176877   8.836   7.879   1.553
25545WAT     H276878   8.923   7.862   1.690
25546WAT      O76879   9.427   5.246   8.826
25546WAT     H176880   9.520   5.210   8.829
25546WAT     H276881   9.423   5.320   8.758
25547WAT      O76882   4.205   4.353   6.521
25547WAT     H176883   4.155   4.269   6.540
25547WAT     H276884   4.289   4.332   6.471
25548WAT      O76885   4.891   5.292   8.698
25548WAT     H176886   4.974   5.306   8.644
25548WAT     H276887   4.852   5.380   8.723
25549WAT      O76888   0.604   8.222   9.207
25549WAT     H176889   0.524   8.279   9.189
25549WAT     H276890   0.681   8.256   9.153
25550WAT      O76891   6.891   9.382   3.954
25550WAT     H176892   6.978   9.381   3.904
25550WAT     H276893   6.899   9.441   4.034
25551WAT      O76894   5.415   8.059   9.875
25551WAT     H176895   5.405   8.049   9.776
25551WAT     H276896   5.475   8.137   9.894
25552WAT      O76897   5.426   6.471   1.079
25552WAT     H176898   5.473   6.525   1.149
25552WAT     H276899   5.367   6.531   1.026
25553WAT      O76900   6.537   6.022   3.491
25553WAT     H176901   6.519   5.974   3.406
25553WAT     H276902   6.519   5.962   3.568
25554WAT      O76903   5.842   7.395   3.040
25554WAT     H176904   5.823   7.356   3.130
25554WAT     H276905   5.848   7.495   3.047
25555WAT      O76906   6.546   3.779   3.472
25555WAT     H176907   6.643   3.806   3.470
25555WAT     H276908   6.519   3.746   3.381
25556WAT      O76909   6.979   0.777   1.354
25556WAT     H176910   6.910   0.718   1.397
25556WAT     H276911   7.034   0.723   1.291
25557WAT      O76912   9.371   1.424   1.830
25557WAT     H176913   9.320   1.344   1.862
25557WAT     H276914   9.454   1.395   1.785
25558WAT      O76915   9.023   5.573   1.831
25558WAT     H176916   8.954   5.646   1.830
25558WAT     H276917   9.114   5.614   1.841
25559WAT      O76918   7.197   4.473   1.910
25559WAT     H176919   7.150   4.537   1.850
25559WAT     H276920   7.291   4.458   1.877
25560WAT      O76921   6.023   7.088   6.155
25560WAT     H176922   5.977   7.010   6.112
25560WAT     H276923   6.109   7.106   6.107
25561WAT      O76924   7.453   1.844   2.752
25561WAT     H176925   7.415   1.879   2.837
25561WAT     H276926   7.432   1.907   2.678
25562WAT      O76927   2.053   6.784   3.608
25562WAT     H176928   1.970   6.729   3.602
25562WAT     H276929   2.054   6.833   3.696
25563WAT      O76930   5.783   5.647   0.262
25563WAT     H176931   5.698   5.629   0.213
25563WAT     H276932   5.766   5.646   0.360
25564WAT      O76933   1.355   4.202   8.379
25564WAT     H176934   1.257   4.197   8.399
25564WAT     H276935   1.368   4.205   8.280
25565WAT      O76936   9.812   3.475   1.453
25565WAT     H176937   9.858   3.387   1.452
25565WAT     H276938   9.723   3.466   1.498
25566WAT      O76939   0.994   4.659   2.358
25566WAT     H176940   1.009   4.744   2.307
25566WAT     H276941   0.919   4.608   2.317
25567WAT      O76942   5.196   7.917   9.850
25567WAT     H176943   5.282   7.968   9.859
25567WAT     H276944   5.148   7.946   9.767
25568WAT      O76945   2.526   0.819   7.557
25568WAT     H176946   2.484   0.908   7.539
25568WAT     H276947   2.454   0.755   7.585
25569WAT      O76948   2.580   6.681   3.208
25569WAT     H176949   2.676   6.704   3.226
25569WAT     H276950   2.575   6.594   3.159
25570WAT      O76951   7.591   0.114   3.878
25570WAT     H176952   7.547   0.202   3.861
25570WAT     H276953   7.665   0.100   3.811
25571WAT      O76954   6.729   2.111   0.337
25571WAT     H176955   6.819   2.114   0.294
25571WAT     H276956   6.728   2.174   0.415
25572WAT      O76957   9.068   7.064   0.993
25572WAT     H176958   9.008   6.995   1.033
25572WAT     H276959   9.039   7.084   0.899
25573WAT      O76960   8.879   0.264   6.918
25573WAT     H176961   8.874   0.346   6.975
25573WAT     H276962   8.836   0.187   6.966
25574WAT      O76963   9.176   0.250   9.159
25574WAT     H176964   9.150   0.236   9.254
25574WAT     H276965   9.191   0.348   9.143
25575WAT      O76966   2.901   6.896   4.926
25575WAT     H176967   2.929   6.936   4.839
25575WAT     H276968   2.879   6.969   4.991
25576WAT      O76969   1.062   8.464   6.214
25576WAT     H176970   0.994   8.495   6.147
25576WAT     H276971   1.146   8.517   6.202
25577WAT      O76972   8.993   4.491   9.021
25577WAT     H176973   8.950   4.581   9.008
25577WAT     H276974   8.922   4.423   9.039
25578WAT      O76975   2.441   8.878   5.246
25578WAT     H176976   2.457   8.907   5.152
25578WAT     H276977   2.462   8.780   5.254
25579WAT      O76978   5.688   4.305   2.905
25579WAT     H176979   5.642   4.226   2.864
25579WAT     H276980   5.657   4.389   2.860
25580WAT      O76981   1.919   0.521   3.920
25580WAT     H176982   1.889   0.426   3.917
25580WAT     H276983   1.895   0.567   3.834
25581WAT      O76984   2.418   5.891   9.213
25581WAT     H176985   2.392   5.906   9.309
25581WAT     H276986   2.459   5.975   9.176
25582WAT      O76987   6.506   1.729   1.368
25582WAT     H176988   6.602   1.713   1.346
25582WAT     H276989   6.498   1.804   1.434
25583WAT      O76990   4.098   9.570   6.045
25583WAT     H176991   4.074   9.510   5.968
25583WAT     H276992   4.065   9.529   6.130
25584WAT      O76993   4.871   6.528   3.699
25584WAT     H176994   4.810   6.449   3.695
25584WAT     H276995   4.947   6.515   3.635
25585WAT      O76996   0.332   3.186   4.260
25585WAT     H176997   0.369   3.104   4.304
25585WAT     H276998   0.390   3.265   4.282
25586WAT      O76999   9.676   6.816   9.302
25586WAT     H177000   9.703   6.775   9.389
25586WAT     H277001   9.693   6.915   9.305
25587WAT      O77002   8.525   6.389   3.448
25587WAT     H177003   8.547   6.315   3.384
25587WAT     H277004   8.446   6.440   3.413
25588WAT      O77005   3.731   7.683   7.516
25588WAT     H177006   3.674   7.761   7.539
25588WAT     H277007   3.677   7.599   7.522
25589WAT      O77008   7.799   5.171   1.425
25589WAT     H177009   7.748   5.226   1.358
25589WAT     H277010   7.890   5.210   1.437
25590WAT      O77011   9.192   1.614   1.656
25590WAT     H177012   9.248   1.534   1.679
25590WAT     H277013   9.242   1.698   1.680
25591WAT      O77014   2.752   0.698   0.016
25591WAT     H177015   2.818   0.624   0.005
25591WAT     H277016   2.678   0.668   0.076
25592WAT      O77017   9.688   5.610   3.678
25592WAT     H177018   9.756   5.566   3.620
25592WAT     H277019   9.728   5.692   3.719
25593WAT      O77020   1.239   9.455   3.526
25593WAT     H177021   1.140   9.472   3.525
25593WAT     H277022   1.286   9.533   3.567
25594WAT      O77023   1.869   6.362   1.615
25594WAT     H177024   1.965   6.386   1.630
25594WAT     H277025   1.825   6.434   1.561
25595WAT      O77026   7.729   7.150   0.036
25595WAT     H177027   7.659   7.215   0.066
25595WAT     H277028   7.759   7.173  -0.056
25596WAT      O77029   7.985   7.855   6.277
25596WAT     H177030   7.980   7.921   6.202
25596WAT     H277031   7.921   7.780   6.260
25597WAT      O77032   1.745   4.840   5.725
25597WAT     H177033   1.746   4.742   5.743
25597WAT     H277034   1.787   4.858   5.636
25598WAT      O77035   1.383   9.383   0.657
25598WAT     H177036   1.416   9.289   0.658
25598WAT     H277037   1.285   9.385   0.677
25599WAT      O77038   4.696   3.339   6.226
25599WAT     H177039   4.721   3.353   6.322
25599WAT     H277040   4.725   3.248   6.197
25600WAT      O77041   8.887   9.066   1.554
25600WAT     H177042   8.806   9.008   1.553
25600WAT     H277043   8.937   9.052   1.640
25601WAT      O77044   0.431   2.245   1.125
25601WAT     H177045   0.468   2.279   1.210
25601WAT     H277046   0.475   2.159   1.101
25602WAT      O77047   1.851   9.169   3.833
25602WAT     H177048   1.839   9.071   3.814
25602WAT     H277049   1.945   9.187   3.860
25603WAT      O77050   4.324   5.058   3.933
25603WAT     H177051   4.360   5.096   4.018
25603WAT     H277052   4.314   4.959   3.941
25604WAT      O77053   2.590   5.323   8.070
25604WAT     H177054   2.509   5.380   8.084
25604WAT     H277055   2.569   5.228   8.093
25605WAT      O77056   6.391   1.977   3.235
25605WAT     H177057   6.468   2.040   3.226
25605WAT     H277058   6.396   1.907   3.164
25606WAT      O77059   8.590   7.330   5.378
25606WAT     H177060   8.508   7.306   5.325
25606WAT     H277061   8.662   7.263   5.359
25607WAT      O77062   3.718   5.700   3.686
25607WAT     H177063   3.753   5.705   3.593
25607WAT     H277064   3.619   5.684   3.684
25608WAT      O77065   6.898   8.862   0.481
25608WAT     H177066   6.858   8.783   0.528
25608WAT     H277067   6.991   8.878   0.514
25609WAT      O77068   0.107   4.891   2.762
25609WAT     H177069   0.096   4.986   2.792
25609WAT     H277070   0.184   4.849   2.810
25610WAT      O77071   1.504   4.259   6.035
25610WAT     H177072   1.546   4.184   5.983
25610WAT     H277073   1.456   4.222   6.114
25611WAT      O77074   6.054   5.177   6.076
25611WAT     H177075   6.146   5.160   6.111
25611WAT     H277076   6.006   5.240   6.137
25612WAT      O77077   5.315   1.211   5.751
25612WAT     H177078   5.258   1.293   5.749
25612WAT     H277079   5.313   1.171   5.843
25613WAT      O77080   4.891   3.207   1.064
25613WAT     H177081   4.845   3.159   1.140
25613WAT     H277082   4.941   3.140   1.009
25614WAT      O77083   4.545   1.476   2.166
25614WAT     H177084   4.642   1.450   2.161
25614WAT     H277085   4.521   1.500   2.260
25615WAT      O77086   2.490   9.437   0.229
25615WAT     H177087   2.504   9.425   0.328
25615WAT     H277088   2.393   9.447   0.210
25616WAT      O77089   0.997   5.827   8.153
25616WAT     H177090   1.016   5.915   8.197
25616WAT     H277091   1.068   5.807   8.087
25617WAT      O77092   3.668   3.709   3.100
25617WAT     H177093   3.579   3.670   3.075
25617WAT     H277094   3.707   3.757   3.022
25618WAT      O77095   3.188   0.272   2.193
25618WAT     H177096   3.221   0.365   2.175
25618WAT     H277097   3.162   0.265   2.290
25619WAT      O77098   0.802   6.224   6.558
25619WAT     H177099   0.748   6.238   6.475
25619WAT     H277100   0.809   6.311   6.608
25620WAT      O77101   6.165   4.892   6.801
25620WAT     H177102   6.217   4.889   6.886
25620WAT     H277103   6.085   4.951   6.812
25621WAT      O77104   9.052   6.899   5.638
25621WAT     H177105   9.038   6.801   5.653
25621WAT     H277106   9.100   6.912   5.551
25622WAT      O77107   9.413   1.748   6.772
25622WAT     H177108   9.356   1.666   6.762
25622WAT     H277109   9.421   1.771   6.869
25623WAT      O77110   4.977   6.911   8.802
25623WAT     H177111   4.963   6.876   8.895
25623WAT     H277112   4.891   6.945   8.766
25624WAT      O77113   7.036   6.999   9.120
25624WAT     H177114   6.944   7.035   9.104
25624WAT     H277115   7.036   6.942   9.202
25625WAT      O77116   7.866   0.746   0.501
25625WAT     H177117   7.790   0.689   0.469
25625WAT     H277118   7.864   0.834   0.453
25626WAT      O77119   8.819   5.100   6.743
25626WAT     H177120   8.720   5.104   6.729
25626WAT     H277121   8.864   5.075   6.657
25627WAT      O77122   5.765   6.083   0.569
25627WAT     H177123   5.781   6.053   0.663
25627WAT     H277124   5.729   6.177   0.571
25628WAT      O77125   3.335   8.391   4.417
25628WAT     H177126   3.236   8.380   4.420
25628WAT     H277127   3.378   8.313   4.461
25629WAT      O77128   9.839   9.177   6.518
25629WAT     H177129   9.794   9.088   6.531
25629WAT     H277130   9.830   9.231   6.602
25630WAT      O77131   1.730   5.252   6.357
25630WAT     H177132   1.773   5.186   6.294
25630WAT     H277133   1.641   5.279   6.321
25631WAT      O77134   5.727   0.653   1.935
25631WAT     H177135   5.804   0.623   1.880
25631WAT     H277136   5.678   0.574   1.972
25632WAT      O77137   3.750   8.113   9.144
25632WAT     H177138   3.714   8.188   9.199
25632WAT     H277139   3.818   8.062   9.196
25633WAT      O77140   4.626   1.242   6.435
25633WAT     H177141   4.640   1.202   6.345
25633WAT     H277142   4.713   1.272   6.473
25634WAT      O77143   2.794   9.179   0.295
25634WAT     H177144   2.855   9.249   0.261
25634WAT     H277145   2.819   9.090   0.257
25635WAT      O77146   3.070   9.200   8.015
25635WAT     H177147   3.093   9.286   8.060
25635WAT     H277148   3.116   9.194   7.926
25636WAT      O77149   9.522   9.727   4.519
25636WAT     H177150   9.537   9.630   4.541
25636WAT     H277151   9.496   9.735   4.422
25637WAT      O77152   2.435   8.462   6.657
25637WAT     H177153   2.433   8.516   6.742
25637WAT     H277154   2.493   8.507   6.590
25638WAT      O77155   0.969   3.722   9.085
25638WAT     H177156   0.925   3.805   9.050
25638WAT     H277157   0.899   3.661   9.122
25639WAT      O77158   1.030   3.161   9.739
25639WAT     H177159   1.087   3.144   9.659
25639WAT     H277160   0.935   3.139   9.717
25640WAT      O77161   7.357   5.952   1.877
25640WAT     H177162   7.275   5.928   1.825
25640WAT     H277163   7.333   6.021   1.946
25641WAT      O77164   0.448   5.566   6.995
25641WAT     H177165   0.510   5.492   7.018
25641WAT     H277166   0.493   5.654   7.012
25642WAT      O77167   5.622   5.162   2.521
25642WAT     H177168   5.708   5.172   2.571
25642WAT     H277169   5.589   5.068   2.530
25643WAT      O77170   1.016   6.244   9.613
25643WAT     H177171   1.026   6.178   9.538
25643WAT     H277172   1.010   6.194   9.700
25644WAT      O77173   6.936   7.303   1.894
25644WAT     H177174   6.885   7.385   1.920
25644WAT     H277175   6.884   7.221   1.920
25645WAT      O77176   1.631   0.734   1.753
25645WAT     H177177   1.614   0.644   1.713
25645WAT     H277178   1.599   0.804   1.690
25646WAT      O77179   3.549   3.253   8.813
25646WAT     H177180   3.518   3.179   8.754
25646WAT     H277181   3.567   3.335   8.758
25647WAT      O77182   0.579   3.350   7.347
25647WAT     H177183   0.629   3.382   7.427
25647WAT     H277184   0.642   3.339   7.270
25648WAT      O77185   6.937   8.561   3.640
25648WAT     H177186   6.936   8.660   3.631
25648WAT     H277187   6.980   8.536   3.727
25649WAT      O77188   4.735   4.675   2.207
25649WAT     H177189   4.648   4.717   2.231
25649WAT     H277190   4.738   4.657   2.109
25650WAT      O77191   7.815   2.344   3.697
25650WAT     H177192   7.824   2.258   3.747
25650WAT     H277193   7.805   2.325   3.599
25651WAT      O77194   1.935   3.123   8.792
25651WAT     H177195   2.024   3.082   8.812
25651WAT     H277196   1.891   3.071   8.719
25652WAT      O77197   9.739   4.033   1.053
25652WAT     H177198   9.686   4.101   1.002
25652WAT     H277199   9.692   4.012   1.138
25653WAT      O77200   5.707   3.785   7.205
25653WAT     H177201   5.710   3.861   7.140
25653WAT     H277202   5.634   3.722   7.178
25654WAT      O77203   0.571   2.004   2.134
25654WAT     H177204   0.656   1.981   2.180
25654WAT     H277205   0.497   2.008   2.201
25655WAT      O77206   9.156   9.622   7.089
25655WAT     H177207   9.179   9.706   7.139
25655WAT     H277208   9.201   9.544   7.133
25656WAT      O77209   7.690   3.093   9.323
25656WAT     H177210   7.772   3.053   9.363
25656WAT     H277211   7.635   3.136   9.395
25657WAT      O77212   6.470   3.434   2.828
25657WAT     H177213   6.535   3.361   2.808
25657WAT     H277214   6.410   3.405   2.903
25658WAT      O77215   3.876   1.003   3.222
25658WAT     H177216   3.796   1.051   3.258
25658WAT     H277217   3.960   1.048   3.254
25659WAT      O77218   5.643   2.321   4.590
25659WAT     H177219   5.652   2.411   4.548
25659WAT     H277220   5.604   2.257   4.523
25660WAT      O77221   6.640   7.004   0.190
25660WAT     H177222   6.593   7.091   0.175
25660WAT     H277223   6.585   6.946   0.251
25661WAT      O77224   4.463   2.800   5.202
25661WAT     H177225   4.459   2.763   5.295
25661WAT     H277226   4.558   2.824   5.180
25662WAT      O77227   0.149   7.747   5.662
25662WAT     H177228   0.218   7.679   5.638
25662WAT     H277229   0.082   7.754   5.587
25663WAT      O77230   5.291   1.692   2.579
25663WAT     H177231   5.193   1.707   2.585
25663WAT     H277232   5.322   1.640   2.658
25664WAT      O77233   3.726   4.207   7.995
25664WAT     H177234   3.733   4.306   8.008
25664WAT     H277235   3.759   4.161   8.077
25665WAT      O77236   1.190   8.616   0.084
25665WAT     H177237   1.227   8.526   0.107
25665WAT     H277238   1.090   8.612   0.082
25666WAT      O77239   2.271   4.138   2.034
25666WAT     H177240   2.185   4.185   2.055
25666WAT     H277241   2.333   4.146   2.112
25667WAT      O77242   6.076   0.797   4.126
25667WAT     H177243   6.038   0.717   4.171
25667WAT     H277244   6.176   0.795   4.132
25668WAT      O77245   2.972   1.863   5.570
25668WAT     H177246   3.005   1.903   5.655
25668WAT     H277247   3.027   1.898   5.493
25669WAT      O77248   2.264   8.849   8.819
25669WAT     H177249   2.240   8.752   8.827
25669WAT     H277250   2.266   8.875   8.723
25670WAT      O77251   4.658   3.177   8.752
25670WAT     H177252   4.634   3.082   8.729
25670WAT     H277253   4.752   3.179   8.786
25671WAT      O77254   8.455   9.055   8.036
25671WAT     H177255   8.484   8.992   8.108
25671WAT     H277256   8.535   9.106   8.003
25672WAT      O77257   0.045   0.303   7.086
25672WAT     H177258  -0.046   0.310   7.045
25672WAT     H277259   0.058   0.379   7.150
25673WAT      O77260   1.688   5.799   8.257
25673WAT     H177261   1.714   5.704   8.241
25673WAT     H277262   1.754   5.860   8.212
25674WAT      O77263   7.001   0.232   3.033
25674WAT     H177264   7.067   0.225   3.108
25674WAT     H277265   6.998   0.145   2.984
25675WAT      O77266   3.255   4.558   3.290
25675WAT     H177267   3.353   4.570   3.307
25675WAT     H277268   3.225   4.471   3.330
25676WAT      O77269   6.702   6.864   4.555
25676WAT     H177270   6.651   6.788   4.596
25676WAT     H277271   6.668   6.882   4.463
25677WAT      O77272   1.070   6.090   2.299
25677WAT     H177273   1.067   6.002   2.347
25677WAT     H277274   1.126   6.080   2.216
25678WAT      O77275   8.823   7.338   0.076
25678WAT     H177276   8.790   7.244   0.064
25678WAT     H277277   8.869   7.368  -0.008
25679WAT      O77278   8.006   7.184   0.988
25679WAT     H177279   8.023   7.281   1.007
25679WAT     H277280   7.907   7.168   0.981
25680WAT      O77281   0.981   5.479   8.733
25680WAT     H177282   1.000   5.412   8.662
25680WAT     H277283   0.914   5.442   8.798
25681WAT      O77284   8.931   1.556   1.596
25681WAT     H177285   8.862   1.602   1.652
25681WAT     H277286   9.021   1.568   1.638
25682WAT      O77287   4.060   9.093   8.550
25682WAT     H177288   4.102   9.174   8.591
25682WAT     H277289   4.126   9.018   8.549
25683WAT      O77290   4.111   1.425   2.332
25683WAT     H177291   4.147   1.361   2.401
25683WAT     H277292   4.110   1.380   2.243
25684WAT      O77293   6.839   2.402   8.248
25684WAT     H177294   6.813   2.460   8.170
25684WAT     H277295   6.938   2.407   8.261
25685WAT      O77296   7.689   7.526   6.025
25685WAT     H177297   7.615   7.463   6.050
25685WAT     H277298   7.650   7.609   5.986
25686WAT      O77299   9.162   5.366   1.006
25686WAT     H177300   9.143   5.422   0.925
25686WAT     H277301   9.235   5.408   1.060
25687WAT      O77302   2.346   1.511   2.808
25687WAT     H177303   2.316   1.435   2.750
25687WAT     H277304   2.442   1.532   2.788
25688WAT      O77305   9.856   1.257   6.896
25688WAT     H177306   9.876   1.312   6.815
25688WAT     H277307   9.780   1.195   6.877
25689WAT      O77308   2.213   8.872   8.274
25689WAT     H177309   2.227   8.883   8.175
25689WAT     H277310   2.280   8.807   8.310
25690WAT      O77311   7.897   8.685   9.688
25690WAT     H177312   7.808   8.641   9.684
25690WAT     H277313   7.916   8.715   9.781
25691WAT      O77314   3.903   9.050   4.290
25691WAT     H177315   3.910   8.999   4.205
25691WAT     H277316   3.843   9.129   4.278
25692WAT      O77317   8.841   6.793   4.597
25692WAT     H177318   8.817   6.698   4.578
25692WAT     H277319   8.760   6.844   4.625
25693WAT      O77320   0.675   9.709   5.673
25693WAT     H177321   0.761   9.676   5.632
25693WAT     H277322   0.655   9.655   5.755
25694WAT      O77323   0.749   0.637   8.148
25694WAT     H177324   0.675   0.573   8.169
25694WAT     H277325   0.814   0.639   8.224
25695WAT      O77326   1.754   9.432   8.733
25695WAT     H177327   1.806   9.506   8.689
25695WAT     H277328   1.740   9.454   8.829
25696WAT      O77329   9.676   4.550   3.660
25696WAT     H177330   9.753   4.594   3.614
25696WAT     H277331   9.609   4.520   3.592
25697WAT      O77332   3.511   7.340   1.914
25697WAT     H177333   3.430   7.373   1.964
25697WAT     H277334   3.482   7.284   1.837
25698WAT      O77335   9.807   6.251   0.151
25698WAT     H177336   9.805   6.339   0.105
25698WAT     H277337   9.887   6.199   0.122
25699WAT      O77338   5.741   9.076   8.789
25699WAT     H177339   5.805   9.138   8.833
25699WAT     H277340   5.682   9.033   8.858
25700WAT      O77341   6.660   9.389   3.823
25700WAT     H177342   6.609   9.475   3.820
25700WAT     H277343   6.738   9.398   3.884
25701WAT      O77344   2.457   2.491   9.636
25701WAT     H177345   2.533   2.503   9.700
25701WAT     H277346   2.387   2.433   9.677
25702WAT      O77347   5.406   7.791   7.712
25702WAT     H177348   5.406   7.759   7.807
25702WAT     H277349   5.314   7.822   7.688
25703WAT      O77350   4.295   6.099   3.142
25703WAT     H177351   4.296   6.182   3.085
25703WAT     H277352   4.377   6.097   3.199
25704WAT      O77353   5.777   3.417   9.573
25704WAT     H177354   5.708   3.403   9.502
25704WAT     H277355   5.746   3.376   9.658
25705WAT      O77356   3.700   0.050   4.545
25705WAT     H177357   3.657   0.031   4.634
25705WAT     H277358   3.782  -0.006   4.535
25706WAT      O77359   3.058   3.369   0.556
25706WAT     H177360   3.092   3.318   0.477
25706WAT     H277361   2.972   3.329   0.587
25707WAT      O77362   4.289   0.788   2.156
25707WAT     H177363   4.202   0.833   2.136
25707WAT     H277364   4.343   0.780   2.072
25708WAT      O77365   7.278   8.604   4.522
25708WAT     H177366   7.257   8.635   4.430
25708WAT     H277367   7.218   8.527   4.547
25709WAT      O77368   7.336   5.447   1.069
25709WAT     H177369   7.288   5.364   1.097
25709WAT     H277370   7.385   5.429   0.983
25710WAT      O77371   7.928   3.527   9.137
25710WAT     H177372   7.849   3.555   9.191
25710WAT     H277373   7.909   3.543   9.040
25711WAT      O77374   6.532   1.663   2.079
25711WAT     H177375   6.516   1.650   1.981
25711WAT     H277376   6.614   1.719   2.092
25712WAT      O77377   2.329   0.558   8.465
25712WAT     H177378   2.234   0.565   8.493
25712WAT     H277379   2.387   0.547   8.546
25713WAT      O77380   0.949   6.143   4.702
25713WAT     H177381   1.000   6.062   4.732
25713WAT     H277382   0.851   6.126   4.713
25714WAT      O77383   8.293   3.401   9.411
25714WAT     H177384   8.319   3.441   9.499
25714WAT     H277385   8.318   3.464   9.337
25715WAT      O77386   0.987   2.876   1.585
25715WAT     H177387   1.011   2.969   1.557
25715WAT     H277388   0.934   2.832   1.512
25716WAT      O77389   9.461   3.301   2.881
25716WAT     H177390   9.513   3.382   2.905
25716WAT     H277391   9.436   3.304   2.784
25717WAT      O77392   4.910   2.962   5.364
25717WAT     H177393   4.822   2.939   5.405
25717WAT     H277394   4.916   3.062   5.351
25718WAT      O77395   7.658   9.447   7.083
25718WAT     H177396   7.604   9.521   7.044
25718WAT     H277397   7.715   9.407   7.011
25719WAT      O77398   8.177   2.873   9.437
25719WAT     H177399   8.080   2.855   9.457
25719WAT     H277400   8.199   2.968   9.461
25720WAT      O77401   3.849   4.956   1.183
25720WAT     H177402   3.856   4.925   1.278
25720WAT     H277403   3.941   4.976   1.148
25721WAT      O77404   5.153   3.771   6.792
25721WAT     H177405   5.217   3.801   6.721
25721WAT     H277406   5.180   3.681   6.826
25722WAT      O77407   3.831   3.453   8.910
25722WAT     H177408   3.898   3.492   8.973
25722WAT     H277409   3.857   3.472   8.816
25723WAT      O77410   7.901   4.451   3.544
25723WAT     H177411   7.898   4.484   3.449
25723WAT     H277412   7.956   4.369   3.549
25724WAT      O77413   1.403   6.139   6.338
25724WAT     H177414   1.326   6.077   6.324
25724WAT     H277415   1.371   6.233   6.334
25725WAT      O77416   4.732   6.641   2.064
25725WAT     H177417   4.663   6.705   2.098
25725WAT     H277418   4.818   6.689   2.050
25726WAT      O77419   0.082   6.269   2.944
25726WAT     H177420   0.123   6.220   2.867
25726WAT     H277421   0.092   6.367   2.931
25727WAT      O77422   0.160   8.433   8.735
25727WAT     H177423   0.064   8.459   8.721
25727WAT     H277424   0.182   8.354   8.677
25728WAT      O77425   3.217   8.050   8.838
25728WAT     H177426   3.285   7.978   8.827
25728WAT     H277427   3.255   8.124   8.894
25729WAT      O77428   0.239   7.417   8.683
25729WAT     H177429   0.142   7.415   8.657
25729WAT     H277430   0.248   7.391   8.780
25730WAT      O77431   0.017   0.495   3.299
25730WAT     H177432   0.044   0.516   3.393
25730WAT     H277433  -0.073   0.450   3.300
25731WAT      O77434   2.881   6.135   0.503
25731WAT     H177435   2.885   6.088   0.415
25731WAT     H277436   2.969   6.177   0.522
25732WAT      O77437   0.258   4.077   5.900
25732WAT     H177438   0.184   4.051   5.837
25732WAT     H277439   0.325   4.003   5.904
25733WAT      O77440   4.173   1.332   8.539
25733WAT     H177441   4.153   1.322   8.442
25733WAT     H277442   4.167   1.428   8.565
25734WAT      O77443   5.189   8.493   1.115
25734WAT     H177444   5.164   8.580   1.072
25734WAT     H277445   5.171   8.418   1.052
25735WAT      O77446   6.527   2.977   4.400
25735WAT     H177447   6.521   3.011   4.494
25735WAT     H277448   6.448   2.919   4.381
25736WAT      O77449   5.894   1.210   7.082
25736WAT     H177450   5.828   1.234   7.010
25736WAT     H277451   5.845   1.193   7.167
25737WAT      O77452   9.670   7.796   0.454
25737WAT     H177453   9.604   7.854   0.502
25737WAT     H277454   9.662   7.813   0.356
25738WAT      O77455   0.573   0.270   8.735
25738WAT     H177456   0.589   0.322   8.818
25738WAT     H277457   0.646   0.203   8.723
25739WAT      O77458   6.814   0.863   4.549
25739WAT     H177459   6.881   0.917   4.496
25739WAT     H277460   6.722   0.898   4.530
25740WAT      O77461   2.774   0.605   9.371
25740WAT     H177462   2.786   0.702   9.350
25740WAT     H277463   2.691   0.592   9.424
25741WAT      O77464   4.052   2.558   8.189
25741WAT     H177465   4.082   2.574   8.095
25741WAT     H277466   3.968   2.505   8.188
25742WAT      O77467   0.033   0.210   4.793
25742WAT     H177468   0.005   0.131   4.737
25742WAT     H277469   0.019   0.189   4.890
25743WAT      O77470   2.134   8.752   6.256
25743WAT     H177471   2.210   8.713   6.308
25743WAT     H277472   2.151   8.850   6.240
25744WAT      O77473   0.616   0.959   6.659
25744WAT     H177474   0.545   0.893   6.633
25744WAT     H277475   0.582   1.016   6.734
25745WAT      O77476   1.476   2.684   3.320
25745WAT     H177477   1.481   2.765   3.260
25745WAT     H277478   1.568   2.646   3.331
25746WAT      O77479   7.572   1.653   5.961
25746WAT     H177480   7.656   1.707   5.957
25746WAT     H277481   7.521   1.677   6.044
25747WAT      O77482   7.471   8.302   8.140
25747WAT     H177483   7.423   8.390   8.144
25747WAT     H277484   7.570   8.318   8.139
25748WAT      O77485   4.833   5.975   0.877
25748WAT     H177486   4.891   5.953   0.955
25748WAT     H277487   4.794   5.891   0.839
25749WAT      O77488   9.684   3.987   9.065
25749WAT     H177489   9.704   3.903   9.016
25749WAT     H277490   9.616   4.041   9.013
25750WAT      O77491   7.185   7.425   8.113
25750WAT     H177492   7.209   7.329   8.103
25750WAT     H277493   7.110   7.447   8.051
25751WAT      O77494   8.948   8.823   0.384
25751WAT     H177495   9.021   8.764   0.350
25751WAT     H277496   8.982   8.877   0.461
25752WAT      O77497   2.060   5.703   2.955
25752WAT     H177498   2.092   5.614   2.920
25752WAT     H277499   2.130   5.772   2.937
25753WAT      O77500   2.001   6.478   5.750
25753WAT     H177501   1.977   6.390   5.709
25753WAT     H277502   1.994   6.550   5.681
25754WAT      O77503   1.329   0.718   6.215
25754WAT     H177504   1.304   0.780   6.289
25754WAT     H277505   1.403   0.758   6.161
25755WAT      O77506   1.349   8.508   1.971
25755WAT     H177507   1.331   8.448   2.049
25755WAT     H277508   1.330   8.603   1.997
25756WAT      O77509   9.799   0.651   8.968
25756WAT     H177510   9.856   0.591   9.023
25756WAT     H277511   9.754   0.718   9.027
25757WAT      O77512   7.801   6.710   7.960
25757WAT     H177513   7.706   6.730   7.987
25757WAT     H277514   7.818   6.612   7.970
25758WAT      O77515   2.589   0.889   8.983
25758WAT     H177516   2.579   0.790   8.996
25758WAT     H277517   2.535   0.918   8.904
25759WAT      O77518   9.376   0.426   6.792
25759WAT     H177519   9.455   0.427   6.731
25759WAT     H277520   9.399   0.475   6.877
25760WAT      O77521   9.708   5.594   6.271
25760WAT     H177522   9.713   5.632   6.178
25760WAT     H277523   9.649   5.652   6.327
25761WAT      O77524   1.270   1.816   4.694
25761WAT     H177525   1.191   1.863   4.733
25761WAT     H277526   1.350   1.830   4.753
25762WAT      O77527   6.787   2.942   6.514
25762WAT     H177528   6.744   3.030   6.532
25762WAT     H277529   6.720   2.881   6.470
25763WAT      O77530   7.603   4.194   9.766
25763WAT     H177531   7.540   4.271   9.765
25763WAT     H277532   7.590   4.140   9.683
25764WAT      O77533   9.364   1.152   2.162
25764WAT     H177534   9.291   1.107   2.213
25764WAT     H277535   9.389   1.237   2.206
25765WAT      O77536   8.480   5.738   7.048
25765WAT     H177537   8.505   5.647   7.081
25765WAT     H277538   8.387   5.760   7.079
25766WAT      O77539   9.233   1.812   0.215
25766WAT     H177540   9.197   1.821   0.122
25766WAT     H277541   9.304   1.880   0.231
25767WAT      O77542   3.693   3.372   6.913
25767WAT     H177543   3.766   3.304   6.921
25767WAT     H277544   3.621   3.353   6.978
25768WAT      O77545   2.232   0.237   1.608
25768WAT     H177546   2.161   0.299   1.576
25768WAT     H277547   2.319   0.262   1.566
25769WAT      O77548   1.831   6.752   1.238
25769WAT     H177549   1.916   6.796   1.212
25769WAT     H277550   1.758   6.820   1.244
25770WAT      O77551   8.211   3.681   5.743
25770WAT     H177552   8.303   3.676   5.782
25770WAT     H277553   8.165   3.593   5.753
25771WAT      O77554   3.610   1.834   1.912
25771WAT     H177555   3.689   1.894   1.901
25771WAT     H277556   3.639   1.738   1.902
25772WAT      O77557   8.489   8.753   5.337
25772WAT     H177558   8.424   8.793   5.402
25772WAT     H277559   8.542   8.682   5.382
25773WAT      O77560   7.336   7.182   8.071
25773WAT     H177561   7.304   7.101   8.119
25773WAT     H277562   7.362   7.157   7.978
25774WAT      O77563   6.598   8.602   0.802
25774WAT     H177564   6.618   8.693   0.837
25774WAT     H277565   6.511   8.569   0.840
25775WAT      O77566   3.163   1.916   8.206
25775WAT     H177567   3.209   2.004   8.216
25775WAT     H277568   3.095   1.921   8.133
25776WAT      O77569   7.120   8.734   9.042
25776WAT     H177570   7.154   8.654   8.993
25776WAT     H277571   7.154   8.817   8.997
25777WAT      O77572   0.840   4.765   7.957
25777WAT     H177573   0.805   4.734   8.045
25777WAT     H277574   0.907   4.838   7.971
25778WAT      O77575   8.606   9.714   2.893
25778WAT     H177576   8.578   9.701   2.798
25778WAT     H277577   8.669   9.792   2.899
25779WAT      O77578   0.244   5.655   7.901
25779WAT     H177579   0.181   5.684   7.973
25779WAT     H277580   0.231   5.714   7.821
25780WAT      O77581   2.817   9.821   1.084
25780WAT     H177582   2.858   9.827   0.993
25780WAT     H277583   2.730   9.869   1.084
25781WAT      O77584   1.516   7.341   5.564
25781WAT     H177585   1.491   7.395   5.644
25781WAT     H277586   1.435   7.326   5.507
25782WAT      O77587   0.066   7.842   4.633
25782WAT     H177588   0.105   7.842   4.541
25782WAT     H277589   0.008   7.923   4.644
25783WAT      O77590   6.804   6.935   2.654
25783WAT     H177591   6.756   7.006   2.604
25783WAT     H277592   6.773   6.845   2.623
25784WAT      O77593   0.122   2.120   7.549
25784WAT     H177594   0.157   2.042   7.601
25784WAT     H277595   0.154   2.114   7.455
25785WAT      O77596   0.110   4.268   4.266
25785WAT     H177597   0.087   4.201   4.195
25785WAT     H277598   0.201   4.247   4.303
25786WAT      O77599   0.049   0.868   1.287
25786WAT     H177600   0.007   0.957   1.305
25786WAT     H277601  -0.023   0.803   1.262
25787WAT      O77602   4.940   4.616   8.188
25787WAT     H177603   5.021   4.655   8.231
25787WAT     H277604   4.879   4.690   8.158
25788WAT      O77605   7.482   1.137   0.271
25788WAT     H177606   7.502   1.041   0.289
25788WAT     H277607   7.441   1.146   0.180
25789WAT      O77608   8.473   5.436   7.550
25789WAT     H177609   8.538   5.457   7.477
25789WAT     H277610   8.431   5.521   7.583
25790WAT      O77611   1.365   5.218   7.578
25790WAT     H177612   1.309   5.162   7.516
25790WAT     H277613   1.398   5.298   7.528
25791WAT      O77614   4.111   1.656   8.284
25791WAT     H177615   4.208   1.664   8.309
25791WAT     H277616   4.103   1.601   8.200
25792WAT      O77617   6.704   6.065   5.298
25792WAT     H177618   6.684   5.970   5.322
25792WAT     H277619   6.801   6.083   5.314
25793WAT      O77620   6.580   5.885   8.824
25793WAT     H177621   6.540   5.964   8.778
25793WAT     H277622   6.507   5.820   8.847
25794WAT      O77623   1.304   0.389   4.208
25794WAT     H177624   1.265   0.322   4.145
25794WAT     H277625   1.300   0.480   4.167
25795WAT      O77626   7.675   8.087   6.071
25795WAT     H177627   7.670   8.025   6.149
25795WAT     H277628   7.702   8.037   5.989
25796WAT      O77629   0.164   9.614   5.235
25796WAT     H177630   0.201   9.538   5.288
25796WAT     H277631   0.155   9.694   5.293
25797WAT      O77632   6.006   2.270   2.920
25797WAT     H177633   6.081   2.334   2.934
25797WAT     H277634   6.035   2.178   2.946
25798WAT      O77635   2.217   1.482   0.965
25798WAT     H177636   2.177   1.510   0.878
25798WAT     H277637   2.240   1.563   1.019
25799WAT      O77638   6.864   8.033   8.007
25799WAT     H177639   6.883   8.128   7.985
25799WAT     H277640   6.802   7.994   7.938
25800WAT      O77641   7.155   9.382   5.744
25800WAT     H177642   7.063   9.361   5.776
25800WAT     H277643   7.167   9.345   5.651
25801WAT      O77644   7.187   7.845   3.492
25801WAT     H177645   7.145   7.764   3.452
25801WAT     H277646   7.221   7.905   3.419
25802WAT      O77647   5.456   2.504   7.863
25802WAT     H177648   5.555   2.489   7.872
25802WAT     H277649   5.439   2.565   7.785
25803WAT      O77650   1.983   6.217   0.728
25803WAT     H177651   2.070   6.207   0.680
25803WAT     H277652   1.998   6.267   0.813
25804WAT      O77653   5.439   4.136   5.361
25804WAT     H177654   5.529   4.120   5.402
25804WAT     H277655   5.447   4.206   5.290
25805WAT      O77656   0.308   6.196   6.618
25805WAT     H177657   0.259   6.135   6.555
25805WAT     H277658   0.375   6.142   6.670
25806WAT      O77659   4.999   7.189   3.266
25806WAT     H177660   4.994   7.098   3.225
25806WAT     H277661   4.978   7.183   3.363
25807WAT      O77662   8.509   3.999   7.201
25807WAT     H177663   8.470   3.937   7.132
25807WAT     H277664   8.571   4.063   7.156
25808WAT      O77665   4.912   8.217   1.912
25808WAT     H177666   4.929   8.267   1.828
25808WAT     H277667   4.813   8.214   1.930
25809WAT      O77668   1.437   0.952   7.784
25809WAT     H177669   1.490   1.020   7.734
25809WAT     H277670   1.347   0.988   7.804
25810WAT      O77671   4.588   5.154   9.304
25810WAT     H177672   4.651   5.136   9.228
25810WAT     H277673   4.575   5.070   9.357
25811WAT      O77674   7.533   1.545   6.607
25811WAT     H177675   7.567   1.567   6.698
25811WAT     H277676   7.561   1.617   6.543
25812WAT      O77677   2.364   5.927   4.060
25812WAT     H177678   2.357   5.955   4.156
25812WAT     H277679   2.406   6.000   4.007
25813WAT      O77680   1.300   2.008   6.292
25813WAT     H177681   1.225   1.974   6.350
25813WAT     H277682   1.328   2.098   6.324
25814WAT      O77683   6.259   6.656   3.314
25814WAT     H177684   6.348   6.640   3.271
25814WAT     H277685   6.272   6.704   3.401
25815WAT      O77686   3.337   6.275   7.263
25815WAT     H177687   3.316   6.325   7.180
25815WAT     H277688   3.368   6.339   7.334
25816WAT      O77689   3.738   3.841   3.528
25816WAT     H177690   3.819   3.836   3.471
25816WAT     H277691   3.765   3.839   3.625
25817WAT      O77692   7.851   5.430   6.959
25817WAT     H177693   7.780   5.457   7.023
25817WAT     H277694   7.810   5.389   6.878
25818WAT      O77695   9.237   3.145   1.579
25818WAT     H177696   9.192   3.086   1.513
25818WAT     H277697   9.181   3.150   1.663
25819WAT      O77698   0.851   7.184   5.681
25819WAT     H177699   0.865   7.206   5.778
25819WAT     H277700   0.796   7.257   5.639
25820WAT      O77701   3.191   9.291   8.384
25820WAT     H177702   3.177   9.197   8.354
25820WAT     H277703   3.194   9.352   8.304
25821WAT      O77704   4.668   3.488   2.957
25821WAT     H177705   4.729   3.453   2.886
25821WAT     H277706   4.574   3.484   2.925
25822WAT      O77707   4.567   0.511   9.693
25822WAT     H177708   4.523   0.424   9.673
25822WAT     H277709   4.506   0.586   9.669
25823WAT      O77710   4.448   3.219   6.605
25823WAT     H177711   4.483   3.131   6.637
25823WAT     H277712   4.431   3.213   6.506
25824WAT      O77713   6.252   3.787   2.695
25824WAT     H177714   6.284   3.848   2.768
25824WAT     H277715   6.198   3.840   2.629
25825WAT      O77716   0.978   2.839   3.530
25825WAT     H177717   0.909   2.781   3.487
25825WAT     H277718   0.980   2.821   3.629
25826WAT      O77719   9.136   2.044   2.774
25826WAT     H177720   9.170   1.961   2.818
25826WAT     H277721   9.118   2.114   2.844
25827WAT      O77722   4.199   2.113   5.540
25827WAT     H177723   4.167   2.102   5.634
25827WAT     H277724   4.124   2.145   5.483
25828WAT      O77725   8.200   9.647   0.334
25828WAT     H177726   8.122   9.684   0.284
25828WAT     H277727   8.281   9.646   0.275
25829WAT      O77728   1.830   2.509   6.808
25829WAT     H177729   1.908   2.459   6.846
25829WAT     H277730   1.851   2.607   6.806
25830WAT      O77731   0.587   1.490   6.545
25830WAT     H177732   0.656   1.434   6.499
25830WAT     H277733   0.566   1.450   6.634
25831WAT      O77734   8.552   0.714   2.840
25831WAT     H177735   8.467   0.761   2.861
25831WAT     H277736   8.555   0.627   2.889
25832WAT      O77737   5.539   2.513   4.371
25832WAT     H177738   5.541   2.424   4.325
25832WAT     H277739   5.450   2.556   4.355
25833WAT      O77740   9.363   0.123   8.867
25833WAT     H177741   9.449   0.071   8.875
25833WAT     H277742   9.289   0.060   8.842
25834WAT      O77743   0.231   0.964   5.029
25834WAT     H177744   0.191   0.942   5.119
25834WAT     H277745   0.326   0.936   5.027
25835WAT      O77746   6.252   4.416   1.522
25835WAT     H177747   6.248   4.321   1.555
25835WAT     H277748   6.346   4.439   1.500
25836WAT      O77749   3.294   6.993   9.414
25836WAT     H177750   3.276   7.084   9.451
25836WAT     H277751   3.208   6.944   9.402
25837WAT      O77752   5.626   7.991   3.299
25837WAT     H177753   5.526   7.995   3.300
25837WAT     H277754   5.660   7.983   3.393
25838WAT      O77755   2.084   7.899   6.499
25838WAT     H177756   2.135   7.843   6.565
25838WAT     H277757   2.149   7.951   6.443
25839WAT      O77758   2.249   7.356   2.306
25839WAT     H177759   2.253   7.448   2.343
25839WAT     H277760   2.248   7.360   2.206
25840WAT      O77761   2.551   3.806   2.915
25840WAT     H177762   2.534   3.905   2.921
25840WAT     H277763   2.476   3.764   2.863
25841WAT      O77764   6.718   1.043   3.947
25841WAT     H177765   6.763   1.106   3.883
25841WAT     H277766   6.688   0.962   3.897
25842WAT      O77767   3.561   2.884   9.475
25842WAT     H177768   3.551   2.934   9.389
25842WAT     H277769   3.658   2.870   9.495
25843WAT      O77770   8.927   3.508   5.848
25843WAT     H177771   9.020   3.543   5.833
25843WAT     H277772   8.912   3.428   5.791
25844WAT      O77773   6.168   3.615   6.173
25844WAT     H177774   6.164   3.531   6.228
25844WAT     H277775   6.212   3.596   6.086
25845WAT      O77776   3.334   2.251   7.225
25845WAT     H177777   3.254   2.195   7.246
25845WAT     H277778   3.328   2.338   7.273
25846WAT      O77779   0.496   4.512   1.594
25846WAT     H177780   0.464   4.425   1.558
25846WAT     H277781   0.580   4.539   1.547
25847WAT      O77782   5.161   5.766   4.303
25847WAT     H177783   5.226   5.799   4.371
25847WAT     H277784   5.118   5.844   4.257
25848WAT      O77785   2.352   0.944   5.644
25848WAT     H177786   2.259   0.908   5.646
25848WAT     H277787   2.369   0.990   5.557
25849WAT      O77788   3.424   7.031   6.190
25849WAT     H177789   3.352   6.979   6.236
25849WAT     H277790   3.512   7.008   6.232
25850WAT      O77791   4.876   6.731   5.241
25850WAT     H177792   4.869   6.633   5.222
25850WAT     H277793   4.785   6.772   5.234
25851WAT      O77794   7.710   1.030   1.807
25851WAT     H177795   7.766   0.965   1.756
25851WAT     H277796   7.644   1.073   1.745
25852WAT      O77797   7.624   5.653   4.732
25852WAT     H177798   7.691   5.626   4.801
25852WAT     H277799   7.617   5.753   4.730
25853WAT      O77800   3.596   9.418   3.752
25853WAT     H177801   3.693   9.414   3.727
25853WAT     H277802   3.587   9.439   3.850
25854WAT      O77803   9.888   3.720   8.273
25854WAT     H177804   9.824   3.645   8.283
25854WAT     H277805   9.859   3.797   8.328
25855WAT      O77806   9.217   8.657   1.249
25855WAT     H177807   9.300   8.677   1.195
25855WAT     H277808   9.216   8.714   1.331
25856WAT      O77809   3.407   8.192   9.018
25856WAT     H177810   3.485   8.249   8.992
25856WAT     H277811   3.432   8.137   9.097
25857WAT      O77812   2.975   5.408   3.632
25857WAT     H177813   2.931   5.415   3.722
25857WAT     H277814   2.989   5.312   3.609
25858WAT      O77815   9.520   2.946   3.625
25858WAT     H177816   9.511   2.889   3.707
25858WAT     H277817   9.515   3.042   3.650
25859WAT      O77818   2.379   3.740   5.296
25859WAT     H177819   2.413   3.720   5.204
25859WAT     H277820   2.284   3.770   5.290
25860WAT      O77821   2.481   4.099   6.220
25860WAT     H177822   2.482   4.000   6.237
25860WAT     H277823   2.552   4.122   6.154
25861WAT      O77824   5.163   2.044   4.916
25861WAT     H177825   5.176   2.073   5.010
25861WAT     H277826   5.083   1.985   4.910
25862WAT      O77827   8.951   9.298   9.760
25862WAT     H177828   9.011   9.366   9.802
25862WAT     H277829   8.863   9.297   9.808
25863WAT      O77830   2.248   1.684   6.604
25863WAT     H177831   2.191   1.658   6.682
25863WAT     H277832   2.218   1.773   6.569
25864WAT      O77833   9.011   6.741   0.292
25864WAT     H177834   8.993   6.741   0.390
25864WAT     H277835   9.069   6.663   0.269
25865WAT      O77836   7.208   7.473   0.291
25865WAT     H177837   7.141   7.439   0.225
25865WAT     H277838   7.197   7.423   0.377
25866WAT      O77839   8.671   6.128   6.298
25866WAT     H177840   8.580   6.104   6.333
25866WAT     H277841   8.673   6.225   6.273
25867WAT      O77842   5.502   8.817   7.624
25867WAT     H177843   5.561   8.738   7.643
25867WAT     H277844   5.499   8.875   7.705
25868WAT      O77845   7.514   2.972   4.906
25868WAT     H177846   7.427   2.970   4.956
25868WAT     H277847   7.509   2.909   4.828
25869WAT      O77848   9.619   5.838   9.046
25869WAT     H177849   9.624   5.924   8.995
25869WAT     H277850   9.523   5.819   9.069
25870WAT      O77851   3.151   6.618   5.464
25870WAT     H177852   3.130   6.689   5.532
25870WAT     H277853   3.198   6.660   5.386
25871WAT      O77854   7.647   4.429   3.666
25871WAT     H177855   7.740   4.450   3.637
25871WAT     H277856   7.633   4.462   3.760
25872WAT      O77857   4.901   8.403   6.966
25872WAT     H177858   4.904   8.467   7.043
25872WAT     H277859   4.903   8.309   7.002
25873WAT      O77860   5.253   9.430   8.846
25873WAT     H177861   5.237   9.518   8.800
25873WAT     H277862   5.269   9.359   8.778
25874WAT      O77863   6.383   0.004   1.265
25874WAT     H177864   6.385   0.019   1.166
25874WAT     H277865   6.472  -0.031   1.295
25875WAT      O77866   2.592   9.359   4.797
25875WAT     H177867   2.541   9.309   4.727
25875WAT     H277868   2.535   9.434   4.832
25876WAT      O77869   9.306   5.943   7.360
25876WAT     H177870   9.320   5.860   7.414
25876WAT     H277871   9.333   6.023   7.413
25877WAT      O77872   5.028   8.727   3.231
25877WAT     H177873   5.016   8.772   3.142
25877WAT     H277874   4.991   8.634   3.226
25878WAT      O77875   8.147   2.790   5.471
25878WAT     H177876   8.076   2.858   5.489
25878WAT     H277877   8.217   2.830   5.411
25879WAT      O77878   4.263   4.999   2.568
25879WAT     H177879   4.205   5.060   2.515
25879WAT     H277880   4.344   5.048   2.600
25880WAT      O77881   2.288   1.326   4.005
25880WAT     H177882   2.251   1.416   4.029
25880WAT     H277883   2.238   1.289   3.926
25881WAT      O77884   5.226   9.625   0.016
25881WAT     H177885   5.292   9.692   0.052
25881WAT     H277886   5.208   9.555   0.085
25882WAT      O77887   4.280   0.655   5.355
25882WAT     H177888   4.313   0.640   5.261
25882WAT     H277889   4.224   0.737   5.358
25883WAT      O77890   6.958   8.694   6.400
25883WAT     H177891   6.996   8.768   6.345
25883WAT     H277892   6.891   8.642   6.346
25884WAT      O77893   2.045   3.473   9.433
25884WAT     H177894   2.101   3.481   9.350
25884WAT     H277895   2.089   3.523   9.507
25885WAT      O77896   7.415   6.178   6.742
25885WAT     H177897   7.396   6.246   6.671
25885WAT     H277898   7.399   6.219   6.832
25886WAT      O77899   2.540   5.356   4.424
25886WAT     H177900   2.469   5.421   4.452
25886WAT     H277901   2.517   5.319   4.334
25887WAT      O77902   4.073   5.690   4.265
25887WAT     H177903   4.135   5.721   4.193
25887WAT     H277904   3.991   5.650   4.225
25888WAT      O77905   3.559   7.827   2.527
25888WAT     H177906   3.604   7.916   2.538
25888WAT     H277907   3.619   7.755   2.562
25889WAT      O77908   6.455   5.864   3.281
25889WAT     H177909   6.428   5.785   3.336
25889WAT     H277910   6.519   5.835   3.210
25890WAT      O77911   6.958   1.139   5.010
25890WAT     H177912   6.992   1.069   5.073
25890WAT     H277913   6.917   1.096   4.930
25891WAT      O77914   6.403   5.546   2.548
25891WAT     H177915   6.327   5.491   2.582
25891WAT     H277916   6.430   5.513   2.458
25892WAT      O77917   6.126   7.649   5.283
25892WAT     H177918   6.104   7.694   5.369
25892WAT     H277919   6.055   7.582   5.261
25893WAT      O77920   9.692   8.406   0.295
25893WAT     H177921   9.769   8.351   0.263
25893WAT     H277922   9.621   8.346   0.331
25894WAT      O77923   6.087   8.219   7.517
25894WAT     H177924   6.158   8.199   7.449
25894WAT     H277925   5.999   8.186   7.482
25895WAT      O77926   5.804   4.378   3.719
25895WAT     H177927   5.712   4.358   3.753
25895WAT     H277928   5.871   4.350   3.787
25896WAT      O77929   2.749   7.239   1.207
25896WAT     H177930   2.698   7.262   1.124
25896WAT     H277931   2.728   7.305   1.279
25897WAT      O77932   1.401   8.406   1.722
25897WAT     H177933   1.451   8.321   1.741
25897WAT     H277934   1.373   8.448   1.808
25898WAT      O77935   0.266   8.796   1.318
25898WAT     H177936   0.267   8.895   1.325
25898WAT     H277937   0.333   8.767   1.249
25899WAT      O77938   7.517   7.322   0.019
25899WAT     H177939   7.427   7.278   0.013
25899WAT     H277940   7.542   7.360  -0.070
25900WAT      O77941   6.579   7.267   1.369
25900WAT     H177942   6.651   7.335   1.381
25900WAT     H277943   6.537   7.278   1.279
25901WAT      O77944   7.312   6.899   8.174
25901WAT     H177945   7.323   6.876   8.270
25901WAT     H277946   7.218   6.929   8.157
25902WAT      O77947   8.232   6.076   3.643
25902WAT     H177948   8.230   6.147   3.714
25902WAT     H277949   8.143   6.032   3.637
25903WAT      O77950   4.344   5.946   4.966
25903WAT     H177951   4.292   5.881   4.909
25903WAT     H277952   4.280   6.001   5.019
25904WAT      O77953   0.771   3.582   6.049
25904WAT     H177954   0.768   3.599   5.951
25904WAT     H277955   0.848   3.632   6.089
25905WAT      O77956   5.150   4.714   8.334
25905WAT     H177957   5.245   4.683   8.340
25905WAT     H277958   5.142   4.803   8.380
25906WAT      O77959   5.513   3.886   3.283
25906WAT     H177960   5.468   3.829   3.215
25906WAT     H277961   5.467   3.974   3.289
25907WAT      O77962   3.554   7.473   3.313
25907WAT     H177963   3.508   7.517   3.236
25907WAT     H277964   3.614   7.539   3.358
25908WAT      O77965   4.337   3.792   1.574
25908WAT     H177966   4.378   3.831   1.492
25908WAT     H277967   4.409   3.753   1.632
25909WAT      O77968   2.650   6.015   7.497
25909WAT     H177969   2.703   5.962   7.563
25909WAT     H277970   2.711   6.050   7.426
25910WAT      O77971   7.546   2.499   0.012
25910WAT     H177972   7.469   2.560  -0.008
25910WAT     H277973   7.539   2.418  -0.046
25911WAT      O77974   9.453   1.465   4.000
25911WAT     H177975   9.372   1.442   4.055
25911WAT     H277976   9.480   1.385   3.947
25912WAT      O77977   6.330   8.543   3.288
25912WAT     H177978   6.248   8.578   3.334
25912WAT     H277979   6.303   8.473   3.221
25913WAT      O77980   5.761   4.689   9.599
25913WAT     H177981   5.773   4.741   9.514
25913WAT     H277982   5.758   4.592   9.578
25914WAT      O77983   9.745   7.290   7.004
25914WAT     H177984   9.784   7.247   6.923
25914WAT     H277985   9.762   7.389   7.002
25915WAT      O77986   9.836   6.079   0.577
25915WAT     H177987   9.885   6.163   0.596
25915WAT     H277988   9.740   6.089   0.604
25916WAT      O77989   8.870   3.792   1.033
25916WAT     H177990   8.954   3.785   1.086
25916WAT     H277991   8.875   3.873   0.974
25917WAT      O77992   4.171   8.765   9.004
25917WAT     H177993   4.071   8.770   8.996
25917WAT     H277994   4.209   8.857   8.993
25918WAT      O77995   6.806   4.247   6.215
25918WAT     H177996   6.792   4.346   6.226
25918WAT     H277997   6.833   4.228   6.120
25919WAT      O77998   2.958   9.608   4.986
25919WAT     H177999   3.020   9.544   5.033
25919WAT     H278000   3.006   9.650   4.910
25920WAT      O78001   2.810   0.226   8.359
25920WAT     H178002   2.809   0.126   8.361
25920WAT     H278003   2.717   0.260   8.345
25921WAT      O78004   2.343   3.701   6.887
25921WAT     H178005   2.301   3.702   6.978
25921WAT     H278006   2.441   3.681   6.896
25922WAT      O78007   8.527   2.215   2.015
25922WAT     H178008   8.621   2.183   2.025
25922WAT     H278009   8.482   2.215   2.105
25923WAT      O78010   8.137   0.914   3.450
25923WAT     H178011   8.105   0.829   3.408
25923WAT     H278012   8.230   0.934   3.420
25924WAT      O78013   2.828   2.689   1.384
25924WAT     H178014   2.830   2.781   1.423
25924WAT     H278015   2.845   2.694   1.286
25925WAT      O78016   9.737   3.017   2.655
25925WAT     H178017   9.774   2.924   2.659
25925WAT     H278018   9.676   3.025   2.575
25926WAT      O78019   3.676   2.202   8.985
25926WAT     H178020   3.771   2.225   8.965
25926WAT     H278021   3.616   2.244   8.918
25927WAT      O78022   0.166   5.561   0.755
25927WAT     H178023   0.253   5.607   0.734
25927WAT     H278024   0.177   5.463   0.745
25928WAT      O78025   9.757   5.394   4.067
25928WAT     H178026   9.838   5.408   4.010
25928WAT     H278027   9.786   5.363   4.158
25929WAT      O78028   6.769   7.409   2.759
25929WAT     H178029   6.844   7.382   2.698
25929WAT     H278030   6.804   7.418   2.853
25930WAT      O78031   7.456   8.573   2.623
25930WAT     H178032   7.490   8.661   2.656
25930WAT     H278033   7.382   8.541   2.682
25931WAT      O78034   2.286   8.644   3.734
25931WAT     H178035   2.232   8.579   3.788
25931WAT     H278036   2.245   8.735   3.740
25932WAT      O78037   0.010   0.106   3.315
25932WAT     H178038   0.090   0.135   3.368
25932WAT     H278039  -0.053   0.184   3.305
25933WAT      O78040   1.539   0.939   1.571
25933WAT     H178041   1.507   1.012   1.631
25933WAT     H278042   1.543   0.972   1.476
25934WAT      O78043   5.870   7.477   4.218
25934WAT     H178044   5.933   7.457   4.143
25934WAT     H278045   5.919   7.472   4.305
25935WAT      O78046   2.757   5.637   9.581
25935WAT     H178047   2.693   5.572   9.540
25935WAT     H278048   2.725   5.731   9.564
25936WAT      O78049   1.336   1.157   8.731
25936WAT     H178050   1.429   1.130   8.709
25936WAT     H278051   1.304   1.105   8.811
25937WAT      O78052   1.354   3.146   7.213
25937WAT     H178053   1.438   3.186   7.249
25937WAT     H278054   1.276   3.198   7.246
25938WAT      O78055   4.209   5.251   7.356
25938WAT     H178056   4.254   5.176   7.404
25938WAT     H278057   4.121   5.270   7.399
25939WAT      O78058   7.278   6.357   2.870
25939WAT     H178059   7.295   6.288   2.940
25939WAT     H278060   7.327   6.441   2.893
25940WAT      O78061   8.715   5.354   9.330
25940WAT     H178062   8.651   5.285   9.363
25940WAT     H278063   8.761   5.398   9.408
25941WAT      O78064   6.464   2.843   2.045
25941WAT     H178065   6.458   2.748   2.012
25941WAT     H278066   6.519   2.846   2.129
25942WAT      O78067   1.383   8.427   7.049
25942WAT     H178068   1.331   8.471   7.122
25942WAT     H278069   1.380   8.328   7.061
25943WAT      O78070   1.254   9.008   3.703
25943WAT     H178071   1.195   9.060   3.641
25943WAT     H278072   1.348   9.011   3.670
25944WAT      O78073   7.335   7.554   0.674
25944WAT     H178074   7.237   7.574   0.675
25944WAT     H278075   7.351   7.468   0.626
25945WAT      O78076   2.003   9.558   0.199
25945WAT     H178077   1.985   9.656   0.200
25945WAT     H278078   1.933   9.511   0.252
25946WAT      O78079   5.999   9.289   7.934
25946WAT     H178080   6.005   9.328   7.842
25946WAT     H278081   5.920   9.329   7.981
25947WAT      O78082   4.055   6.309   4.150
25947WAT     H178083   3.995   6.384   4.123
25947WAT     H278084   4.092   6.264   4.069
25948WAT      O78085   7.923   5.445   8.167
25948WAT     H178086   7.957   5.529   8.209
25948WAT     H278087   8.000   5.381   8.155
25949WAT      O78088   7.908   3.412   4.668
25949WAT     H178089   7.953   3.455   4.746
25949WAT     H278090   7.975   3.395   4.595
25950WAT      O78091   4.510   5.980   8.348
25950WAT     H178092   4.549   5.898   8.390
25950WAT     H278093   4.414   5.988   8.376
25951WAT      O78094   5.662   0.380   5.358
25951WAT     H178095   5.576   0.329   5.368
25951WAT     H278096   5.732   0.319   5.320
25952WAT      O78097   3.822   9.711   2.582
25952WAT     H178098   3.921   9.694   2.587
25952WAT     H278099   3.779   9.642   2.524
25953WAT      O78100   2.162   9.458   3.720
25953WAT     H178101   2.150   9.370   3.766
25953WAT     H278102   2.259   9.475   3.705
25954WAT      O78103   4.440   7.495   9.276
25954WAT     H178104   4.373   7.434   9.319
25954WAT     H278105   4.498   7.536   9.347
25955WAT      O78106   0.028   8.351   0.543
25955WAT     H178107  -0.002   8.283   0.610
25955WAT     H278108   0.011   8.317   0.451
25956WAT      O78109   2.935   0.729   6.717
25956WAT     H178110   2.893   0.685   6.637
25956WAT     H278111   3.019   0.775   6.689
25957WAT      O78112   7.402   6.745   7.443
25957WAT     H178113   7.458   6.826   7.459
25957WAT     H278114   7.307   6.772   7.430
25958WAT      O78115   3.287   3.312   6.977
25958WAT     H178116   3.212   3.291   7.040
25958WAT     H278117   3.251   3.324   6.885
25959WAT      O78118   7.019   1.240   5.439
25959WAT     H178119   7.062   1.161   5.395
25959WAT     H278120   7.018   1.317   5.375
25960WAT      O78121   2.599   4.484   9.387
25960WAT     H178122   2.552   4.436   9.314
25960WAT     H278123   2.562   4.455   9.475
25961WAT      O78124   2.692   6.012   0.912
25961WAT     H178125   2.647   6.001   1.001
25961WAT     H278126   2.704   5.923   0.869
25962WAT      O78127   5.786   8.257   9.279
25962WAT     H178128   5.773   8.341   9.228
25962WAT     H278129   5.717   8.250   9.351
25963WAT      O78130   1.910   2.403   3.616
25963WAT     H178131   1.875   2.350   3.693
25963WAT     H278132   1.869   2.370   3.531
25964WAT      O78133   7.167   3.269   7.111
25964WAT     H178134   7.191   3.365   7.127
25964WAT     H278135   7.138   3.258   7.016
25965WAT      O78136   1.348   1.896   0.091
25965WAT     H178137   1.250   1.890   0.107
25965WAT     H278138   1.391   1.808   0.110
25966WAT      O78139   9.130   7.151   3.115
25966WAT     H178140   9.219   7.135   3.158
25966WAT     H278141   9.088   7.233   3.154
25967WAT      O78142   8.328   6.541   3.384
25967WAT     H178143   8.317   6.600   3.305
25967WAT     H278144   8.238   6.516   3.421
25968WAT      O78145   7.277   7.330   3.300
25968WAT     H178146   7.314   7.377   3.380
25968WAT     H278147   7.284   7.389   3.220
25969WAT      O78148   5.256   0.824   0.265
25969WAT     H178149   5.270   0.763   0.188
25969WAT     H278150   5.164   0.864   0.260
25970WAT      O78151   5.120   0.153   7.653
25970WAT     H178152   5.195   0.189   7.709
25970WAT     H278153   5.088   0.224   7.591
25971WAT      O78154   8.470   8.151   4.414
25971WAT     H178155   8.416   8.229   4.446
25971WAT     H278156   8.465   8.077   4.481
25972WAT      O78157   0.118   3.686   3.286
25972WAT     H178158   0.212   3.706   3.314
25972WAT     H278159   0.076   3.769   3.249
25973WAT      O78160   7.986   1.532   5.087
25973WAT     H178161   7.929   1.450   5.080
25973WAT     H278162   7.958   1.599   5.019
25974WAT      O78163   0.150   9.363   3.221
25974WAT     H178164   0.195   9.321   3.142
25974WAT     H278165   0.190   9.453   3.238
25975WAT      O78166   1.005   0.697   3.031
25975WAT     H178167   0.991   0.752   3.113
25975WAT     H278168   1.099   0.707   2.999
25976WAT      O78169   3.201   6.890   2.292
25976WAT     H178170   3.143   6.936   2.359
25976WAT     H278171   3.186   6.791   2.297
25977WAT      O78172   2.328   2.042   6.759
25977WAT     H178173   2.368   2.133   6.771
25977WAT     H278174   2.287   2.012   6.846
25978WAT      O78175   5.623   9.526   1.129
25978WAT     H178176   5.550   9.461   1.151
25978WAT     H278177   5.584   9.612   1.097
25979WAT      O78178   0.268   5.172   3.176
25979WAT     H178179   0.207   5.250   3.163
25979WAT     H278180   0.339   5.172   3.105
25980WAT      O78181   8.414   0.859   3.402
25980WAT     H178182   8.410   0.952   3.364
25980WAT     H278183   8.507   0.824   3.394
25981WAT      O78184   7.379   8.516   9.640
25981WAT     H178185   7.363   8.488   9.546
25981WAT     H278186   7.475   8.540   9.652
25982WAT      O78187   3.537   1.033   6.390
25982WAT     H178188   3.605   0.974   6.346
25982WAT     H278189   3.459   0.977   6.420
25983WAT      O78190   0.354   7.249   1.153
25983WAT     H178191   0.380   7.297   1.069
25983WAT     H278192   0.436   7.234   1.209
25984WAT      O78193   0.973   8.132   3.642
25984WAT     H178194   0.980   8.065   3.716
25984WAT     H278195   0.920   8.211   3.673
25985WAT      O78196   7.251   8.714   0.135
25985WAT     H178197   7.274   8.796   0.084
25985WAT     H278198   7.177   8.665   0.089
25986WAT      O78199   3.081   2.500   5.744
25986WAT     H178200   2.982   2.487   5.744
25986WAT     H278201   3.102   2.597   5.743
25987WAT      O78202   6.806   5.853   1.448
25987WAT     H178203   6.792   5.914   1.370
25987WAT     H278204   6.730   5.864   1.513
25988WAT      O78205   2.968   4.985   9.807
25988WAT     H178206   2.947   4.915   9.739
25988WAT     H278207   3.021   5.059   9.765
25989WAT      O78208   9.559   5.038   2.857
25989WAT     H178209   9.566   4.960   2.794
25989WAT     H278210   9.527   5.005   2.946
25990WAT      O78211   7.712   4.210   0.370
25990WAT     H178212   7.637   4.234   0.309
25990WAT     H278213   7.710   4.112   0.390
25991WAT      O78214   4.977   8.185   9.715
25991WAT     H178215   5.021   8.106   9.671
25991WAT     H278216   4.879   8.166   9.727
25992WAT      O78217   2.996   5.133   8.736
25992WAT     H178218   2.908   5.178   8.722
25992WAT     H278219   2.985   5.058   8.802
25993WAT      O78220   6.580   4.025   1.169
25993WAT     H178221   6.625   4.062   1.250
25993WAT     H278222   6.604   3.928   1.159
25994WAT      O78223   0.184   1.238   5.150
25994WAT     H178224   0.280   1.212   5.163
25994WAT     H278225   0.170   1.267   5.056
25995WAT      O78226   5.718   9.662   6.624
25995WAT     H178227   5.745   9.754   6.595
25995WAT     H278228   5.700   9.663   6.722
25996WAT      O78229   8.886   0.737   9.874
25996WAT     H178230   8.800   0.713   9.919
25996WAT     H278231   8.924   0.657   9.829
25997WAT      O78232   4.515   9.103   1.240
25997WAT     H178233   4.430   9.091   1.188
25997WAT     H278234   4.541   9.199   1.240
25998WAT      O78235   3.430   6.176   7.916
25998WAT     H178236   3.379   6.094   7.889
25998WAT     H278237   3.520   6.148   7.952
25999WAT      O78238   2.099   6.070   6.147
25999WAT     H178239   2.021   6.009   6.131
25999WAT     H278240   2.166   6.057   6.073
26000WAT      O78241   5.196   9.732   3.580
26000WAT     H178242   5.115   9.790   3.568
26000WAT     H278243   5.169   9.645   3.620
26001WAT      O78244   0.873   3.413   1.804
26001WAT     H178245   0.867   3.467   1.719
26001WAT     H278246   0.837   3.322   1.788
26002WAT      O78247   8.578   4.739   4.532
26002WAT     H178248   8.609   4.645   4.523
26002WAT     H278249   8.640   4.800   4.483
26003WAT      O78250   3.669   0.853   9.850
26003WAT     H178251   3.661   0.774   9.911
26003WAT     H278252   3.629   0.830   9.761
26004WAT      O78253   5.591   8.211   3.645
26004WAT     H178254   5.581   8.271   3.724
26004WAT     H278255   5.594   8.265   3.561
26005WAT      O78256   8.110   6.604   0.003
26005WAT     H178257   8.149   6.562   0.085
26005WAT     H278258   8.171   6.589  -0.075
26006WAT      O78259   5.603   0.104   3.322
26006WAT     H178260   5.522   0.141   3.368
26006WAT     H278261   5.604   0.137   3.227
26007WAT      O78262   3.371   7.501   8.750
26007WAT     H178263   3.344   7.405   8.750
26007WAT     H278264   3.470   7.509   8.738
26008WAT      O78265   2.467   3.624   7.203
26008WAT     H178266   2.514   3.622   7.291
26008WAT     H278267   2.409   3.704   7.198
26009WAT      O78268   0.001   1.213   5.728
26009WAT     H178269   0.092   1.253   5.745
26009WAT     H278270  -0.012   1.201   5.630
26010WAT      O78271   3.775   4.943   8.619
26010WAT     H178272   3.875   4.942   8.609
26010WAT     H278273   3.738   5.022   8.571
26011WAT      O78274   7.777   8.140   2.179
26011WAT     H178275   7.764   8.094   2.267
26011WAT     H278276   7.818   8.230   2.193
26012WAT      O78277   0.302   9.590   9.107
26012WAT     H178278   0.253   9.677   9.102
26012WAT     H278279   0.377   9.598   9.173
26013WAT      O78280   6.995   2.957   5.782
26013WAT     H178281   6.960   3.049   5.767
26013WAT     H278282   7.092   2.962   5.807
26014WAT      O78283   8.676   4.702   3.973
26014WAT     H178284   8.775   4.692   3.983
26014WAT     H278285   8.655   4.791   3.934
26015WAT      O78286   5.765   0.232   4.979
26015WAT     H178287   5.861   0.239   5.006
26015WAT     H278288   5.721   0.160   5.032
26016WAT      O78289   2.537   4.414   9.668
26016WAT     H178290   2.464   4.450   9.726
26016WAT     H278291   2.566   4.325   9.701
26017WAT      O78292   3.986   7.066   7.778
26017WAT     H178293   3.970   7.106   7.868
26017WAT     H278294   3.985   6.966   7.786
26018WAT      O78295   9.231   2.876   3.952
26018WAT     H178296   9.248   2.967   3.916
26018WAT     H278297   9.291   2.859   4.031
26019WAT      O78298   2.576   2.330   0.045
26019WAT     H178299   2.603   2.244   0.000
26019WAT     H278300   2.476   2.332   0.054
26020WAT      O78301   0.068   7.746   2.507
26020WAT     H178302   0.037   7.835   2.473
26020WAT     H278303   0.150   7.758   2.562
26021WAT      O78304   7.936   6.952   7.426
26021WAT     H178305   7.937   7.007   7.509
26021WAT     H278306   8.025   6.956   7.382
26022WAT      O78307   9.888   1.749   4.000
26022WAT     H178308   9.863   1.773   4.094
26022WAT     H278309   9.832   1.671   3.971
26023WAT      O78310   6.302   0.836   8.433
26023WAT     H178311   6.277   0.929   8.406
26023WAT     H278312   6.396   0.817   8.405
26024WAT      O78313   0.288   1.235   6.626
26024WAT     H178314   0.196   1.273   6.635
26024WAT     H278315   0.308   1.180   6.707
26025WAT      O78316   8.715   4.376   0.733
26025WAT     H178317   8.647   4.405   0.665
26025WAT     H278318   8.768   4.455   0.763
26026WAT      O78319   7.264   4.886   8.036
26026WAT     H178320   7.283   4.926   7.946
26026WAT     H278321   7.168   4.857   8.039
26027WAT      O78322   5.154   1.228   5.425
26027WAT     H178323   5.075   1.227   5.487
26027WAT     H278324   5.207   1.144   5.437
26028WAT      O78325   0.726   6.471   9.373
26028WAT     H178326   0.761   6.377   9.373
26028WAT     H278327   0.667   6.485   9.294
26029WAT      O78328   8.737   2.468   5.283
26029WAT     H178329   8.753   2.503   5.375
26029WAT     H278330   8.806   2.504   5.221
26030WAT      O78331   8.462   9.017   6.793
26030WAT     H178332   8.468   9.116   6.779
26030WAT     H278333   8.459   8.971   6.705
26031WAT      O78334   3.662   3.700   0.019
26031WAT     H178335   3.603   3.761   0.071
26031WAT     H278336   3.610   3.619  -0.009
26032WAT      O78337   2.498   5.334   7.082
26032WAT     H178338   2.553   5.257   7.050
26032WAT     H278339   2.411   5.336   7.033
26033WAT      O78340   2.156   2.581   1.587
26033WAT     H178341   2.127   2.547   1.677
26033WAT     H278342   2.075   2.600   1.531
26034WAT      O78343   6.363   3.415   9.217
26034WAT     H178344   6.411   3.481   9.159
26034WAT     H278345   6.311   3.352   9.160
26035WAT      O78346   4.499   5.163   8.822
26035WAT     H178347   4.587   5.145   8.865
26035WAT     H278348   4.490   5.260   8.802
26036WAT      O78349   0.521   0.043   3.915
26036WAT     H178350   0.456  -0.025   3.881
26036WAT     H278351   0.522   0.122   3.854
26037WAT      O78352   4.745   1.609   1.773
26037WAT     H178353   4.789   1.596   1.684
26037WAT     H278354   4.773   1.535   1.835
26038WAT      O78355   3.212   4.900   5.546
26038WAT     H178356   3.153   4.846   5.486
26038WAT     H278357   3.256   4.839   5.612
26039WAT      O78358   2.521   8.780   5.873
26039WAT     H178359   2.452   8.846   5.842
26039WAT     H278360   2.482   8.724   5.946
26040WAT      O78361   1.930   7.195   0.718
26040WAT     H178362   1.856   7.256   0.746
26040WAT     H278363   1.892   7.112   0.678
26041WAT      O78364   0.140   0.088   6.234
26041WAT     H178365   0.053   0.056   6.197
26041WAT     H278366   0.142   0.071   6.333
26042WAT      O78367   2.103   8.700   0.375
26042WAT     H178368   2.109   8.754   0.291
26042WAT     H278369   2.175   8.730   0.438
26043WAT      O78370   6.814   9.813   2.448
26043WAT     H178371   6.878   9.852   2.382
26043WAT     H278372   6.856   9.811   2.538
26044WAT      O78373   5.703   5.345   6.083
26044WAT     H178374   5.786   5.390   6.118
26044WAT     H278375   5.719   5.247   6.075
26045WAT      O78376   1.298   1.855   5.362
26045WAT     H178377   1.323   1.899   5.449
26045WAT     H278378   1.366   1.785   5.339
26046WAT      O78379   8.436   0.272   7.141
26046WAT     H178380   8.453   0.369   7.121
26046WAT     H278381   8.359   0.265   7.205
26047WAT      O78382   4.159   3.497   2.186
26047WAT     H178383   4.098   3.425   2.221
26047WAT     H278384   4.245   3.495   2.237
26048WAT      O78385   9.558   8.038   5.574
26048WAT     H178386   9.504   7.979   5.515
26048WAT     H278387   9.498   8.081   5.642
26049WAT      O78388   7.660   8.599   9.612
26049WAT     H178389   7.683   8.503   9.597
26049WAT     H278390   7.663   8.648   9.525
26050WAT      O78391   2.595   3.663   6.960
26050WAT     H178392   2.691   3.663   6.987
26050WAT     H278393   2.537   3.645   7.040
26051WAT      O78394   1.596   1.064   2.754
26051WAT     H178395   1.562   1.011   2.832
26051WAT     H278396   1.551   1.034   2.670
26052WAT      O78397   9.038   5.048   6.562
26052WAT     H178398   9.116   5.109   6.551
26052WAT     H278399   8.968   5.068   6.493
26053WAT      O78400   7.515   0.322   6.459
26053WAT     H178401   7.455   0.400   6.476
26053WAT     H278402   7.606   0.355   6.433
26054WAT      O78403   5.289   8.798   3.058
26054WAT     H178404   5.260   8.761   3.146
26054WAT     H278405   5.283   8.898   3.061
26055WAT      O78406   1.466   9.627   9.102
26055WAT     H178407   1.401   9.555   9.127
26055WAT     H278408   1.519   9.597   9.022
26056WAT      O78409   4.569   2.651   9.767
26056WAT     H178410   4.522   2.564   9.749
26056WAT     H278411   4.530   2.722   9.709
26057WAT      O78412   1.591   7.508   1.061
26057WAT     H178413   1.650   7.484   1.138
26057WAT     H278414   1.618   7.456   0.980
26058WAT      O78415   5.569   7.641   4.352
26058WAT     H178416   5.628   7.720   4.358
26058WAT     H278417   5.618   7.566   4.308
26059WAT      O78418   8.855   4.694   8.716
26059WAT     H178419   8.848   4.671   8.814
26059WAT     H278420   8.813   4.783   8.700
26060WAT      O78421   0.629   5.866   0.213
26060WAT     H178422   0.689   5.875   0.292
26060WAT     H278423   0.675   5.899   0.131
26061WAT      O78424   8.734   8.799   6.639
26061WAT     H178425   8.717   8.789   6.737
26061WAT     H278426   8.823   8.758   6.617
26062WAT      O78427   5.436   0.858   5.510
26062WAT     H178428   5.466   0.779   5.564
26062WAT     H278429   5.440   0.836   5.412
26063WAT      O78430   7.728   8.679   6.757
26063WAT     H178431   7.711   8.622   6.676
26063WAT     H278432   7.655   8.747   6.765
26064WAT      O78433   8.799   4.836   7.329
26064WAT     H178434   8.881   4.780   7.315
26064WAT     H278435   8.726   4.802   7.271
26065WAT      O78436   8.388   8.230   6.062
26065WAT     H178437   8.343   8.154   6.015
26065WAT     H278438   8.337   8.253   6.144
26066WAT      O78439   9.037   6.171   9.451
26066WAT     H178440   9.012   6.219   9.535
26066WAT     H278441   9.019   6.073   9.461
26067WAT      O78442   7.309   2.560   7.195
26067WAT     H178443   7.293   2.575   7.293
26067WAT     H278444   7.314   2.648   7.148
26068WAT      O78445   8.066   6.339   3.156
26068WAT     H178446   8.094   6.338   3.252
26068WAT     H278447   8.031   6.249   3.130
26069WAT      O78448   6.134   5.653   7.631
26069WAT     H178449   6.087   5.684   7.713
26069WAT     H278450   6.192   5.726   7.595
26070WAT      O78451   3.047   7.101   1.357
26070WAT     H178452   3.088   7.110   1.267
26070WAT     H278453   3.101   7.038   1.413
26071WAT      O78454   9.657   7.550   6.699
26071WAT     H178455   9.674   7.453   6.680
26071WAT     H278456   9.691   7.572   6.791
26072WAT      O78457   1.470   5.054   0.994
26072WAT     H178458   1.563   5.089   0.983
26072WAT     H278459   1.427   5.047   0.904
26073WAT      O78460   1.747   5.546   2.160
26073WAT     H178461   1.769   5.499   2.075
26073WAT     H278462   1.829   5.552   2.217
26074WAT      O78463   3.462   6.443   5.016
26074WAT     H178464   3.503   6.351   5.014
26074WAT     H278465   3.426   6.466   4.926
26075WAT      O78466   8.129   5.355   3.230
26075WAT     H178467   8.046   5.309   3.201
26075WAT     H278468   8.158   5.419   3.158
26076WAT      O78469   8.807   4.293   1.124
26076WAT     H178470   8.744   4.248   1.061
26076WAT     H278471   8.803   4.392   1.111
26077WAT      O78472   1.687   5.843   1.133
26077WAT     H178473   1.592   5.864   1.113
26077WAT     H278474   1.742   5.926   1.127
26078WAT      O78475   2.610   0.749   2.808
26078WAT     H178476   2.524   0.766   2.760
26078WAT     H278477   2.593   0.743   2.906
26079WAT      O78478   1.910   7.978   6.241
26079WAT     H178479   1.988   7.962   6.303
26079WAT     H278480   1.937   8.044   6.171
26080WAT      O78481   4.244   3.974   0.928
26080WAT     H178482   4.246   3.969   0.828
26080WAT     H278483   4.150   3.961   0.960
26081WAT      O78484   7.453   5.605   8.817
26081WAT     H178485   7.491   5.689   8.779
26081WAT     H278486   7.525   5.537   8.827
26082WAT      O78487   4.976   2.925   8.139
26082WAT     H178488   4.947   2.831   8.151
26082WAT     H278489   4.915   2.971   8.074
26083WAT      O78490   6.508   8.226   5.294
26083WAT     H178491   6.537   8.319   5.268
26083WAT     H278492   6.586   8.175   5.327
26084WAT      O78493   2.942   7.185   2.672
26084WAT     H178494   2.972   7.116   2.606
26084WAT     H278495   2.976   7.162   2.763
26085WAT      O78496   9.244   1.633   5.022
26085WAT     H178497   9.179   1.583   4.965
26085WAT     H278498   9.310   1.570   5.062
26086WAT      O78499   5.241   3.729   1.805
26086WAT     H178500   5.313   3.659   1.812
26086WAT     H278501   5.252   3.795   1.879
26087WAT      O78502   3.532   0.499   4.655
26087WAT     H178503   3.451   0.557   4.658
26087WAT     H278504   3.524   0.435   4.579
26088WAT      O78505   7.151   5.302   2.132
26088WAT     H178506   7.134   5.394   2.097
26088WAT     H278507   7.210   5.252   2.068
26089WAT      O78508   7.769   6.394   2.749
26089WAT     H178509   7.838   6.346   2.695
26089WAT     H278510   7.678   6.361   2.724
26090WAT      O78511   7.241   6.266   7.967
26090WAT     H178512   7.331   6.266   8.010
26090WAT     H278513   7.209   6.361   7.955
26091WAT      O78514   8.732   6.915   5.114
26091WAT     H178515   8.750   7.007   5.147
26091WAT     H278516   8.769   6.904   5.022
26092WAT      O78517   9.283   8.647   5.217
26092WAT     H178518   9.264   8.728   5.162
26092WAT     H278519   9.198   8.615   5.259
26093WAT      O78520   5.034   3.007   2.605
26093WAT     H178521   5.115   2.949   2.613
26093WAT     H278522   4.962   2.957   2.555
26094WAT      O78523   3.719   2.993   8.947
26094WAT     H178524   3.626   2.968   8.924
26094WAT     H278525   3.721   3.087   8.981
26095WAT      O78526   9.696   6.932   3.449
26095WAT     H178527   9.652   6.974   3.370
26095WAT     H278528   9.632   6.929   3.526
26096WAT      O78529   1.240   2.983   3.130
26096WAT     H178530   1.194   2.993   3.219
26096WAT     H278531   1.240   3.071   3.082
26097WAT      O78532   8.044   5.969   6.329
26097WAT     H178533   7.996   5.938   6.411
26097WAT     H278534   7.981   6.022   6.271
26098WAT      O78535   6.628   2.493   3.795
26098WAT     H178536   6.586   2.576   3.759
26098WAT     H278537   6.720   2.513   3.828
26099WAT      O78538   5.625   8.770   8.766
26099WAT     H178539   5.556   8.792   8.835
26099WAT     H278540   5.610   8.677   8.733
26100WAT      O78541   1.812   0.764   5.090
26100WAT     H178542   1.898   0.718   5.110
26100WAT     H278543   1.819   0.812   5.002
26101WAT      O78544   5.817   6.640   0.005
26101WAT     H178545   5.800   6.541   0.000
26101WAT     H278546   5.733   6.689  -0.019
26102WAT      O78547   5.670   5.842   3.494
26102WAT     H178548   5.703   5.880   3.580
26102WAT     H278549   5.740   5.853   3.423
26103WAT      O78550   4.845   1.608   6.853
26103WAT     H178551   4.775   1.627   6.784
26103WAT     H278552   4.802   1.563   6.932
26104WAT      O78553   3.468   3.224   9.062
26104WAT     H178554   3.385   3.277   9.077
26104WAT     H278555   3.509   3.249   8.975
26105WAT      O78556   2.366   7.336   2.858
26105WAT     H178557   2.337   7.263   2.920
26105WAT     H278558   2.399   7.296   2.773
26106WAT      O78559   3.555   1.152   7.462
26106WAT     H178560   3.523   1.085   7.395
26106WAT     H278561   3.511   1.135   7.550
26107WAT      O78562   0.625   8.709   9.295
26107WAT     H178563   0.645   8.621   9.252
26107WAT     H278564   0.709   8.747   9.333
26108WAT      O78565   3.468   0.459   8.121
26108WAT     H178566   3.416   0.541   8.144
26108WAT     H278567   3.528   0.477   8.044
26109WAT      O78568   1.968   1.137   1.257
26109WAT     H178569   2.020   1.222   1.266
26109WAT     H278570   2.004   1.070   1.322
26110WAT      O78571   4.225   8.481   3.831
26110WAT     H178572   4.146   8.454   3.888
26110WAT     H278573   4.233   8.580   3.830
26111WAT      O78574   3.318   6.047   0.163
26111WAT     H178575   3.360   6.059   0.073
26111WAT     H278576   3.278   6.134   0.192
26112WAT      O78577   6.511   6.330   3.976
26112WAT     H178578   6.547   6.346   4.068
26112WAT     H278579   6.585   6.341   3.909
26113WAT      O78580   6.627   0.311   6.877
26113WAT     H178581   6.654   0.330   6.783
26113WAT     H278582   6.678   0.232   6.911
26114WAT      O78583   2.084   6.558   6.419
26114WAT     H178584   2.162   6.600   6.465
26114WAT     H278585   2.096   6.459   6.417
26115WAT      O78586   5.813   1.769   8.301
26115WAT     H178587   5.780   1.848   8.352
26115WAT     H278588   5.796   1.685   8.353
26116WAT      O78589   4.596   4.430   0.733
26116WAT     H178590   4.616   4.490   0.655
26116WAT     H278591   4.553   4.346   0.700
26117WAT      O78592   0.446   2.335   2.831
26117WAT     H178593   0.474   2.414   2.777
26117WAT     H278594   0.524   2.273   2.842
26118WAT      O78595   1.850   5.948   7.416
26118WAT     H178596   1.903   5.941   7.332
26118WAT     H278597   1.779   6.017   7.405
26119WAT      O78598   5.043   3.322   8.166
26119WAT     H178599   5.012   3.270   8.245
26119WAT     H278600   5.125   3.280   8.128
26120WAT      O78601   0.697   5.487   2.773
26120WAT     H178602   0.626   5.519   2.711
26120WAT     H278603   0.721   5.393   2.751
26121WAT      O78604   3.308   1.980   3.794
26121WAT     H178605   3.388   1.952   3.741
26121WAT     H278606   3.225   1.962   3.742
26122WAT      O78607   2.300   2.934   8.218
26122WAT     H178608   2.334   3.017   8.262
26122WAT     H278609   2.304   2.858   8.283
26123WAT      O78610   5.811   6.642   5.671
26123WAT     H178611   5.861   6.727   5.683
26123WAT     H278612   5.759   6.622   5.754
26124WAT      O78613   4.765   9.527   1.031
26124WAT     H178614   4.680   9.572   1.059
26124WAT     H278615   4.768   9.518   0.932
26125WAT      O78616   7.900   6.095   0.256
26125WAT     H178617   7.852   6.146   0.184
26125WAT     H278618   7.848   6.013   0.278
26126WAT      O78619   3.579   3.833   0.285
26126WAT     H178620   3.668   3.877   0.300
26126WAT     H278621   3.508   3.886   0.332
26127WAT      O78622   7.577   7.594   2.930
26127WAT     H178623   7.526   7.514   2.900
26127WAT     H278624   7.569   7.603   3.030
26128WAT      O78625   3.968   8.560   4.127
26128WAT     H178626   3.989   8.535   4.032
26128WAT     H278627   4.039   8.523   4.188
26129WAT      O78628   1.406   5.668   5.844
26129WAT     H178629   1.448   5.668   5.935
26129WAT     H278630   1.478   5.680   5.775
26130WAT      O78631   4.414   7.605   4.368
26130WAT     H178632   4.489   7.671   4.369
26130WAT     H278633   4.397   7.575   4.274
26131WAT      O78634   0.846   1.942   6.597
26131WAT     H178635   0.747   1.929   6.583
26131WAT     H278636   0.863   1.968   6.692
26132WAT      O78637   1.408   6.404   4.456
26132WAT     H178638   1.490   6.423   4.403
26132WAT     H278639   1.425   6.328   4.519
26133WAT      O78640   1.449   0.261   5.725
26133WAT     H178641   1.472   0.189   5.791
26133WAT     H278642   1.532   0.310   5.700
26134WAT      O78643   7.557   1.743   6.386
26134WAT     H178644   7.652   1.754   6.356
26134WAT     H278645   7.506   1.692   6.316
26135WAT      O78646   3.314   2.941   9.193
26135WAT     H178647   3.233   2.886   9.170
26135WAT     H278648   3.396   2.896   9.158
26136WAT      O78649   2.533   4.917   7.711
26136WAT     H178650   2.610   4.872   7.666
26136WAT     H278651   2.516   5.006   7.669
26137WAT      O78652   8.673   0.682   0.773
26137WAT     H178653   8.585   0.645   0.743
26137WAT     H278654   8.678   0.679   0.873
26138WAT      O78655   9.397   6.046   0.163
26138WAT     H178656   9.436   5.956   0.181
26138WAT     H278657   9.463   6.117   0.187
26139WAT      O78658   2.565   5.237   1.902
26139WAT     H178659   2.596   5.174   1.831
26139WAT     H278660   2.645   5.276   1.949
26140WAT      O78661   8.991   4.281   2.661
26140WAT     H178662   8.907   4.288   2.607
26140WAT     H278663   9.043   4.201   2.631
26141WAT      O78664   5.723   7.705   2.721
26141WAT     H178665   5.660   7.759   2.666
26141WAT     H278666   5.679   7.680   2.807
26142WAT      O78667   7.692   0.354   3.558
26142WAT     H178668   7.601   0.323   3.530
26142WAT     H278669   7.753   0.275   3.562
26143WAT      O78670   5.788   6.444   4.700
26143WAT     H178671   5.699   6.445   4.745
26143WAT     H278672   5.860   6.431   4.768
26144WAT      O78673   7.718   9.658   3.740
26144WAT     H178674   7.734   9.707   3.655
26144WAT     H278675   7.657   9.581   3.724
26145WAT      O78676   8.465   8.736   3.886
26145WAT     H178677   8.482   8.835   3.893
26145WAT     H278678   8.508   8.702   3.802
26146WAT      O78679   1.707   4.824   5.295
26146WAT     H178680   1.748   4.829   5.204
26146WAT     H278681   1.762   4.876   5.360
26147WAT      O78682   1.670   3.621   6.069
26147WAT     H178683   1.756   3.595   6.025
26147WAT     H278684   1.674   3.599   6.166
26148WAT      O78685   9.598   6.220   1.271
26148WAT     H178686   9.593   6.265   1.360
26148WAT     H278687   9.547   6.134   1.275
26149WAT      O78688   4.364   2.501   9.462
26149WAT     H178689   4.459   2.489   9.435
26149WAT     H278690   4.315   2.551   9.391
26150WAT      O78691   9.383   6.011   6.474
26150WAT     H178692   9.322   6.067   6.530
26150WAT     H278693   9.329   5.955   6.412
26151WAT      O78694   9.757   2.619   9.830
26151WAT     H178695   9.696   2.678   9.882
26151WAT     H278696   9.806   2.673   9.762
26152WAT      O78697   3.947   2.173   7.853
26152WAT     H178698   3.858   2.210   7.884
26152WAT     H278699   4.009   2.169   7.931
26153WAT      O78700   6.270   8.658   6.412
26153WAT     H178701   6.233   8.606   6.335
26153WAT     H278702   6.364   8.627   6.431
26154WAT      O78703   2.151   1.243   7.429
26154WAT     H178704   2.240   1.282   7.450
26154WAT     H278705   2.134   1.250   7.331
26155WAT      O78706   1.663   7.248   3.061
26155WAT     H178707   1.580   7.280   3.015
26155WAT     H278708   1.739   7.310   3.040
26156WAT      O78709   0.232   4.367   4.630
26156WAT     H178710   0.172   4.386   4.708
26156WAT     H278711   0.190   4.403   4.546
26157WAT      O78712   0.935   2.187   8.100
26157WAT     H178713   1.008   2.144   8.153
26157WAT     H278714   0.849   2.141   8.119
26158WAT      O78715   4.948   5.870   1.096
26158WAT     H178716   5.041   5.834   1.099
26158WAT     H278717   4.891   5.819   1.160
26159WAT      O78718   0.564   8.956   1.078
26159WAT     H178719   0.543   8.935   0.982
26159WAT     H278720   0.503   9.029   1.110
26160WAT      O78721   1.063   9.503   7.195
26160WAT     H178722   1.141   9.565   7.197
26160WAT     H278723   1.000   9.525   7.269
26161WAT      O78724   5.063   7.748   5.541
26161WAT     H178725   5.090   7.710   5.453
26161WAT     H278726   5.144   7.754   5.600
26162WAT      O78727   3.907   2.182   0.471
26162WAT     H178728   3.846   2.103   0.469
26162WAT     H278729   3.905   2.228   0.381
26163WAT      O78730   0.859   3.249   0.315
26163WAT     H178731   0.782   3.187   0.297
26163WAT     H278732   0.896   3.281   0.228
26164WAT      O78733   3.534   6.845   4.574
26164WAT     H178734   3.499   6.880   4.660
26164WAT     H278735   3.609   6.904   4.542
26165WAT      O78736   0.283   6.395   5.927
26165WAT     H178737   0.199   6.351   5.898
26165WAT     H278738   0.275   6.423   6.023
26166WAT      O78739   8.159   0.619   8.008
26166WAT     H178740   8.186   0.624   7.912
26166WAT     H278741   8.061   0.638   8.016
26167WAT      O78742   1.485   4.428   1.287
26167WAT     H178743   1.446   4.368   1.357
26167WAT     H278744   1.432   4.513   1.283
26168WAT      O78745   6.390   0.232   4.152
26168WAT     H178746   6.404   0.214   4.055
26168WAT     H278747   6.408   0.148   4.205
26169WAT      O78748   1.838   3.055   0.858
26169WAT     H178749   1.790   3.052   0.771
26169WAT     H278750   1.801   3.129   0.914
26170WAT      O78751   9.451   4.068   4.960
26170WAT     H178752   9.416   3.977   4.935
26170WAT     H278753   9.544   4.078   4.925
26171WAT      O78754   4.092   6.890   5.941
26171WAT     H178755   4.080   6.802   5.895
26171WAT     H278756   4.046   6.888   6.030
26172WAT      O78757   7.336   4.895   5.635
26172WAT     H178758   7.359   4.878   5.540
26172WAT     H278759   7.264   4.832   5.664
26173WAT      O78760   7.033   2.928   9.598
26173WAT     H178761   6.989   2.840   9.578
26173WAT     H278762   7.108   2.914   9.662
26174WAT      O78763   7.834   8.757   7.242
26174WAT     H178764   7.800   8.850   7.259
26174WAT     H278765   7.783   8.716   7.166
26175WAT      O78766   2.058   4.258   2.373
26175WAT     H178767   1.976   4.269   2.430
26175WAT     H278768   2.126   4.326   2.399
26176WAT      O78769   0.202   1.623   0.933
26176WAT     H178770   0.276   1.561   0.908
26176WAT     H278771   0.241   1.712   0.960
26177WAT      O78772   1.353   1.831   1.662
26177WAT     H178773   1.330   1.828   1.565
26177WAT     H278774   1.453   1.833   1.672
26178WAT      O78775   6.261   9.143   1.620
26178WAT     H178776   6.273   9.166   1.717
26178WAT     H278777   6.274   9.045   1.607
26179WAT      O78778   4.334   0.976   5.569
26179WAT     H178779   4.291   0.958   5.481
26179WAT     H278780   4.416   1.032   5.556
26180WAT      O78781   7.693   9.045   6.201
26180WAT     H178782   7.791   9.046   6.221
26180WAT     H278783   7.643   9.008   6.279
26181WAT      O78784   5.035   8.534   2.335
26181WAT     H178785   5.065   8.524   2.240
26181WAT     H278786   5.038   8.445   2.381
26182WAT      O78787   5.057   1.896   4.354
26182WAT     H178788   5.128   1.849   4.406
26182WAT     H278789   5.097   1.937   4.271
26183WAT      O78790   2.741   7.665   4.259
26183WAT     H178791   2.643   7.666   4.241
26183WAT     H278792   2.790   7.642   4.175
26184WAT      O78793   6.189   9.183   5.986
26184WAT     H178794   6.170   9.251   5.915
26184WAT     H278795   6.288   9.177   6.001
26185WAT      O78796   1.698   5.983   1.726
26185WAT     H178797   1.628   5.917   1.699
26185WAT     H278798   1.663   6.076   1.714
26186WAT      O78799   9.293   6.088   6.894
26186WAT     H178800   9.283   6.004   6.948
26186WAT     H278801   9.243   6.162   6.939
26187WAT      O78802   8.775   5.563   3.595
26187WAT     H178803   8.734   5.500   3.528
26187WAT     H278804   8.708   5.584   3.666
26188WAT      O78805   3.447   1.011   7.878
26188WAT     H178806   3.417   1.015   7.974
26188WAT     H278807   3.485   1.100   7.851
26189WAT      O78808   8.938   8.443   7.890
26189WAT     H178809   9.036   8.429   7.875
26189WAT     H278810   8.907   8.386   7.966
26190WAT      O78811   4.320   0.281   5.128
26190WAT     H178812   4.387   0.232   5.073
26190WAT     H278813   4.342   0.270   5.225
26191WAT      O78814   3.326   7.547   4.943
26191WAT     H178815   3.257   7.619   4.935
26191WAT     H278816   3.322   7.508   5.035
26192WAT      O78817   3.434   5.993   4.282
26192WAT     H178818   3.366   5.921   4.299
26192WAT     H278819   3.498   5.995   4.358
26193WAT      O78820   0.699   0.376   4.690
26193WAT     H178821   0.679   0.424   4.775
26193WAT     H278822   0.617   0.373   4.633
26194WAT      O78823   8.027   7.626   8.245
26194WAT     H178824   8.065   7.566   8.315
26194WAT     H278825   8.066   7.603   8.156
26195WAT      O78826   3.093   6.665   1.501
26195WAT     H178827   3.032   6.718   1.560
26195WAT     H278828   3.045   6.583   1.470
26196WAT      O78829   1.637   4.526   3.530
26196WAT     H178830   1.666   4.468   3.454
26196WAT     H278831   1.650   4.622   3.506
26197WAT      O78832   3.222   8.179   4.735
26197WAT     H178833   3.295   8.247   4.745
26197WAT     H278834   3.161   8.207   4.661
26198WAT      O78835   8.286   8.920   5.040
26198WAT     H178836   8.272   8.978   5.120
26198WAT     H278837   8.377   8.935   5.003
26199WAT      O78838   4.959   4.256   5.722
26199WAT     H178839   4.958   4.335   5.782
26199WAT     H278840   4.889   4.267   5.651
26200WAT      O78841   8.295   2.442   2.108
26200WAT     H178842   8.273   2.516   2.172
26200WAT     H278843   8.322   2.360   2.160
26201WAT      O78844   6.594   5.801   0.833
26201WAT     H178845   6.584   5.835   0.926
26201WAT     H278846   6.691   5.796   0.809
26202WAT      O78847   8.722   7.544   9.441
26202WAT     H178848   8.665   7.610   9.391
26202WAT     H278849   8.744   7.467   9.382
26203WAT      O78850   2.757   4.845   4.750
26203WAT     H178851   2.843   4.797   4.769
26203WAT     H278852   2.680   4.785   4.772
26204WAT      O78853   1.460   4.191   9.811
26204WAT     H178854   1.551   4.210   9.848
26204WAT     H278855   1.449   4.093   9.799
26205WAT      O78856   3.160   9.612   0.626
26205WAT     H178857   3.149   9.515   0.605
26205WAT     H278858   3.154   9.625   0.725
26206WAT      O78859   6.329   7.877   4.933
26206WAT     H178860   6.379   7.937   4.995
26206WAT     H278861   6.234   7.870   4.963
26207WAT      O78862   7.845   7.439   9.773
26207WAT     H178863   7.768   7.472   9.718
26207WAT     H278864   7.908   7.514   9.791
26208WAT      O78865   9.453   0.186   9.444
26208WAT     H178866   9.428   0.283   9.448
26208WAT     H278867   9.408   0.137   9.518
26209WAT      O78868   2.389   5.290   9.104
26209WAT     H178869   2.385   5.327   9.011
26209WAT     H278870   2.314   5.329   9.158
26210WAT      O78871   6.151   1.249   7.000
26210WAT     H178872   6.175   1.345   6.989
26210WAT     H278873   6.054   1.241   7.022
26211WAT      O78874   5.394   4.446   7.051
26211WAT     H178875   5.390   4.352   7.017
26211WAT     H278876   5.387   4.510   6.974
26212WAT      O78877   2.244   2.597   5.583
26212WAT     H178878   2.322   2.573   5.525
26212WAT     H278879   2.248   2.694   5.605
26213WAT      O78880   3.387   6.119   2.658
26213WAT     H178881   3.403   6.130   2.560
26213WAT     H278882   3.455   6.057   2.697
26214WAT      O78883   2.875   1.349   2.749
26214WAT     H178884   2.861   1.250   2.747
26214WAT     H278885   2.852   1.387   2.660
26215WAT      O78886   1.785   5.061   9.557
26215WAT     H178887   1.731   4.985   9.592
26215WAT     H278888   1.878   5.030   9.537
26216WAT      O78889   5.397   6.410   3.049
26216WAT     H178890   5.494   6.431   3.038
26216WAT     H278891   5.386   6.341   3.121
26217WAT      O78892   7.332   6.013   7.451
26217WAT     H178893   7.377   5.965   7.377
26217WAT     H278894   7.367   5.980   7.539
26218WAT      O78895   7.470   9.037   8.453
26218WAT     H178896   7.459   8.952   8.401
26218WAT     H278897   7.528   9.020   8.534
26219WAT      O78898   6.724   7.776   0.863
26219WAT     H178899   6.792   7.850   0.858
26219WAT     H278900   6.759   7.704   0.922
26220WAT      O78901   7.045   4.008   7.256
26220WAT     H178902   7.112   4.029   7.184
26220WAT     H278903   6.988   3.932   7.226
26221WAT      O78904   2.847   6.683   3.228
26221WAT     H178905   2.926   6.632   3.194
26221WAT     H278906   2.870   6.726   3.316
26222WAT      O78907   6.270   2.309   0.302
26222WAT     H178908   6.329   2.240   0.263
26222WAT     H278909   6.271   2.302   0.402
26223WAT      O78910   6.736   4.751   4.639
26223WAT     H178911   6.643   4.765   4.605
26223WAT     H278912   6.797   4.820   4.600
26224WAT      O78913   7.969   4.728   3.629
26224WAT     H178914   7.889   4.757   3.681
26224WAT     H278915   7.956   4.634   3.597
26225WAT      O78916   1.757   2.696   0.581
26225WAT     H178917   1.781   2.707   0.678
26225WAT     H278918   1.702   2.774   0.551
26226WAT      O78919   5.372   3.261   8.348
26226WAT     H178920   5.437   3.217   8.409
26226WAT     H278921   5.396   3.358   8.338
26227WAT      O78922   0.237   9.493   4.686
26227WAT     H178923   0.148   9.507   4.729
26227WAT     H278924   0.308   9.491   4.756
26228WAT      O78925   0.026   5.339   3.070
26228WAT     H178926   0.003   5.318   2.976
26228WAT     H278927  -0.057   5.340   3.126
26229WAT      O78928   0.542   3.732   1.649
26229WAT     H178929   0.598   3.663   1.603
26229WAT     H278930   0.470   3.763   1.588
26230WAT      O78931   1.597   3.299   8.519
26230WAT     H178932   1.638   3.238   8.450
26230WAT     H278933   1.499   3.284   8.522
26231WAT      O78934   3.726   8.155   3.045
26231WAT     H178935   3.825   8.153   3.062
26231WAT     H278936   3.677   8.125   3.127
26232WAT      O78937   0.369   7.613   7.982
26232WAT     H178938   0.337   7.668   7.904
26232WAT     H278939   0.330   7.521   7.975
26233WAT      O78940   7.676   5.006   4.885
26233WAT     H178941   7.602   4.940   4.872
26233WAT     H278942   7.737   5.004   4.806
26234WAT      O78943   6.237   7.941   5.961
26234WAT     H178944   6.226   7.843   5.948
26234WAT     H278945   6.146   7.984   5.971
26235WAT      O78946   7.547   7.673   1.109
26235WAT     H178947   7.620   7.618   1.068
26235WAT     H278948   7.534   7.757   1.056
26236WAT      O78949   6.365   8.837   4.472
26236WAT     H178950   6.381   8.739   4.484
26236WAT     H278951   6.284   8.851   4.415
26237WAT      O78952   9.156   6.421   2.975
26237WAT     H178953   9.208   6.499   3.011
26237WAT     H278954   9.059   6.441   2.980
26238WAT      O78955   5.524   3.961   8.465
26238WAT     H178956   5.437   3.939   8.509
26238WAT     H278957   5.508   3.987   8.370
26239WAT      O78958   7.052   3.428   3.257
26239WAT     H178959   7.091   3.511   3.296
26239WAT     H278960   6.986   3.452   3.186
26240WAT      O78961   5.625   7.609   7.365
26240WAT     H178962   5.558   7.589   7.437
26240WAT     H278963   5.708   7.648   7.406
26241WAT      O78964   2.122   5.888   3.915
26241WAT     H178965   2.061   5.884   3.994
26241WAT     H278966   2.216   5.873   3.946
26242WAT      O78967   4.560   8.574   4.436
26242WAT     H178968   4.644   8.524   4.458
26242WAT     H278969   4.529   8.624   4.517
26243WAT      O78970   7.844   1.680   3.597
26243WAT     H178971   7.788   1.728   3.665
26243WAT     H278972   7.916   1.629   3.644
26244WAT      O78973   1.634   9.349   3.035
26244WAT     H178974   1.575   9.407   3.092
26244WAT     H278975   1.623   9.374   2.939
26245WAT      O78976   0.370   6.411   4.682
26245WAT     H178977   0.319   6.453   4.757
26245WAT     H278978   0.467   6.434   4.692
26246WAT      O78979   3.806   1.576   3.702
26246WAT     H178980   3.730   1.602   3.762
26246WAT     H278981   3.853   1.497   3.741
26247WAT      O78982   2.154   6.741   2.407
26247WAT     H178983   2.169   6.833   2.370
26247WAT     H278984   2.077   6.743   2.471
26248WAT      O78985   4.685   1.912   1.415
26248WAT     H178986   4.651   1.854   1.489
26248WAT     H278987   4.762   1.866   1.370
26249WAT      O78988   8.923   8.505   0.775
26249WAT     H178989   8.971   8.575   0.722
26249WAT     H278990   8.909   8.423   0.719
26250WAT      O78991   0.268   2.106   1.456
26250WAT     H178992   0.345   2.047   1.429
26250WAT     H278993   0.303   2.182   1.510
26251WAT      O78994   3.027   0.775   7.346
26251WAT     H178995   3.045   0.873   7.340
26251WAT     H278996   2.928   0.759   7.350
26252WAT      O78997   8.259   2.809   3.956
26252WAT     H178998   8.263   2.807   4.056
26252WAT     H278999   8.333   2.753   3.919
26253WAT      O79000   8.579   4.845   9.361
26253WAT     H179001   8.502   4.800   9.408
26253WAT     H279002   8.580   4.817   9.265
26254WAT      O79003   7.895   6.525   4.603
26254WAT     H179004   7.827   6.551   4.672
26254WAT     H279005   7.938   6.439   4.631
26255WAT      O79006   6.339   5.260   0.655
26255WAT     H179007   6.302   5.352   0.642
26255WAT     H279008   6.266   5.198   0.685
26256WAT      O79009   0.406   1.010   2.162
26256WAT     H179010   0.417   1.040   2.068
26256WAT     H279011   0.459   1.070   2.223
26257WAT      O79012   5.338   0.383   7.474
26257WAT     H179013   5.239   0.371   7.466
26257WAT     H279014   5.381   0.293   7.486
26258WAT      O79015   2.955   8.086   2.167
26258WAT     H179016   2.937   7.989   2.154
26258WAT     H279017   2.888   8.140   2.115
26259WAT      O79018   6.464   9.459   0.773
26259WAT     H179019   6.519   9.487   0.852
26259WAT     H279020   6.376   9.425   0.805
26260WAT      O79021   1.104   3.998   8.806
26260WAT     H179022   1.179   4.050   8.765
26260WAT     H279023   1.141   3.919   8.854
26261WAT      O79024   7.481   4.256   7.011
26261WAT     H179025   7.521   4.321   7.075
26261WAT     H279026   7.516   4.164   7.031
26262WAT      O79027   9.875   8.750   7.306
26262WAT     H179028   9.936   8.794   7.239
26262WAT     H279029   9.918   8.753   7.396
26263WAT      O79030   7.131   8.179   3.219
26263WAT     H179031   7.067   8.221   3.283
26263WAT     H279032   7.205   8.243   3.199
26264WAT      O79033   4.781   8.423   0.538
26264WAT     H179034   4.703   8.362   0.526
26264WAT     H279035   4.833   8.429   0.452
26265WAT      O79036   9.285   8.457   9.585
26265WAT     H179037   9.269   8.550   9.553
26265WAT     H279038   9.375   8.426   9.553
26266WAT      O79039   8.520   5.971   4.840
26266WAT     H179040   8.494   6.053   4.891
26266WAT     H279041   8.602   5.990   4.786
26267WAT      O79042   4.309   8.060   6.762
26267WAT     H179043   4.364   8.138   6.730
26267WAT     H279044   4.279   8.077   6.855
26268WAT      O79045   7.034   1.679   2.663
26268WAT     H179046   6.953   1.646   2.710
26268WAT     H279047   7.102   1.606   2.656
26269WAT      O79048   6.997   9.648   6.617
26269WAT     H179049   6.984   9.686   6.708
26269WAT     H279050   7.085   9.678   6.581
26270WAT      O79051   3.325   7.754   8.650
26270WAT     H179052   3.370   7.811   8.719
26270WAT     H279053   3.327   7.658   8.679
26271WAT      O79054   2.251   0.682   9.053
26271WAT     H179055   2.162   0.664   9.095
26271WAT     H279056   2.240   0.745   8.977
26272WAT      O79057   6.125   1.067   0.740
26272WAT     H179058   6.110   1.118   0.824
26272WAT     H279059   6.112   0.969   0.757
26273WAT      O79060   7.983   9.054   6.368
26273WAT     H179061   7.965   8.979   6.431
26273WAT     H279062   8.056   9.027   6.305
26274WAT      O79063   1.416   1.303   5.966
26274WAT     H179064   1.464   1.234   6.020
26274WAT     H279065   1.363   1.259   5.894
26275WAT      O79066   3.821   5.552   1.912
26275WAT     H179067   3.880   5.543   1.993
26275WAT     H279068   3.860   5.619   1.849
26276WAT      O79069   3.213   6.218   9.635
26276WAT     H179070   3.143   6.170   9.582
26276WAT     H279071   3.187   6.314   9.646
26277WAT      O79072   9.445   0.819   8.821
26277WAT     H179073   9.516   0.882   8.853
26277WAT     H279074   9.488   0.745   8.768
26278WAT      O79075   9.126   3.151   1.831
26278WAT     H179076   9.049   3.208   1.858
26278WAT     H279077   9.176   3.121   1.912
26279WAT      O79078   7.368   7.723   2.065
26279WAT     H179079   7.416   7.646   2.024
26279WAT     H279080   7.375   7.718   2.165
26280WAT      O79081   9.721   1.646   6.093
26280WAT     H179082   9.795   1.629   6.028
26280WAT     H279083   9.706   1.745   6.101
26281WAT      O79084   8.413   8.116   8.267
26281WAT     H179085   8.507   8.124   8.300
26281WAT     H279086   8.399   8.178   8.190
26282WAT      O79087   8.140   5.335   9.806
26282WAT     H179088   8.107   5.292   9.890
26282WAT     H279089   8.190   5.267   9.752
26283WAT      O79090   3.333   6.173   9.215
26283WAT     H179091   3.247   6.137   9.178
26283WAT     H279092   3.410   6.136   9.162
26284WAT      O79093   9.753   4.021   5.532
26284WAT     H179094   9.668   4.068   5.554
26284WAT     H279095   9.743   3.974   5.444
26285WAT      O79096   5.143   9.544   9.190
26285WAT     H179097   5.188   9.616   9.138
26285WAT     H279098   5.044   9.555   9.183
26286WAT      O79099   8.834   0.990   9.469
26286WAT     H179100   8.856   0.948   9.557
26286WAT     H279101   8.850   0.924   9.396
26287WAT      O79102   9.820   3.392   6.588
26287WAT     H179103   9.835   3.396   6.490
26287WAT     H279104   9.836   3.482   6.628
26288WAT      O79105   2.333   2.105   5.350
26288WAT     H179106   2.415   2.051   5.330
26288WAT     H279107   2.335   2.136   5.445
26289WAT      O79108   8.176   7.609   2.523
26289WAT     H179109   8.219   7.527   2.485
26289WAT     H279110   8.106   7.583   2.589
26290WAT      O79111   3.316   4.153   8.881
26290WAT     H179112   3.365   4.079   8.834
26290WAT     H279113   3.353   4.165   8.973
26291WAT      O79114   7.696   5.338   1.867
26291WAT     H179115   7.776   5.322   1.810
26291WAT     H279116   7.714   5.414   1.929
26292WAT      O79117   8.737   5.828   2.203
26292WAT     H179118   8.746   5.875   2.291
26292WAT     H279119   8.812   5.763   2.192
26293WAT      O79120   8.174   6.787   3.450
26293WAT     H179121   8.142   6.719   3.384
26293WAT     H279122   8.220   6.861   3.402
26294WAT      O79123   3.375   9.802   7.646
26294WAT     H179124   3.407   9.768   7.734
26294WAT     H279125   3.275   9.805   7.646
26295WAT      O79126   6.052   8.671   1.149
26295WAT     H179127   5.986   8.746   1.139
26295WAT     H279128   6.065   8.652   1.246
26296WAT      O79129   3.534   5.587   4.906
26296WAT     H179130   3.549   5.675   4.951
26296WAT     H279131   3.527   5.601   4.807
26297WAT      O79132   4.368   5.502   7.385
26297WAT     H179133   4.417   5.488   7.472
26297WAT     H279134   4.295   5.434   7.377
26298WAT      O79135   9.255   8.983   7.832
26298WAT     H179136   9.295   9.033   7.909
26298WAT     H279137   9.315   8.993   7.752
26299WAT      O79138   7.323   9.464   0.547
26299WAT     H179139   7.283   9.544   0.503
26299WAT     H279140   7.255   9.391   0.553
26300WAT      O79141   5.053   0.638   9.657
26300WAT     H179142   5.090   0.690   9.580
26300WAT     H279143   4.955   0.626   9.645
26301WAT      O79144   6.675   5.066   9.421
26301WAT     H179145   6.733   4.985   9.430
26301WAT     H279146   6.580   5.037   9.413
26302WAT      O79147   6.399   9.075   2.533
26302WAT     H179148   6.338   9.040   2.462
26302WAT     H279149   6.493   9.068   2.503
26303WAT      O79150   5.468   3.087   7.894
26303WAT     H179151   5.467   3.133   7.805
26303WAT     H279152   5.383   3.108   7.943
26304WAT      O79153   4.569   0.281   2.024
26304WAT     H179154   4.556   0.193   2.070
26304WAT     H279155   4.605   0.348   2.089
26305WAT      O79156   4.401   1.719   2.016
26305WAT     H179157   4.475   1.772   2.059
26305WAT     H279158   4.355   1.663   2.084
26306WAT      O79159   6.172   2.486   3.720
26306WAT     H179160   6.178   2.554   3.793
26306WAT     H279161   6.093   2.427   3.735
26307WAT      O79162   9.214   7.954   4.387
26307WAT     H179163   9.216   7.925   4.482
26307WAT     H279164   9.130   8.005   4.369
26308WAT      O79165   3.729   1.118   3.455
26308WAT     H179166   3.779   1.056   3.515
26308WAT     H279167   3.706   1.202   3.504
26309WAT      O79168   7.266   1.949   7.579
26309WAT     H179169   7.331   2.023   7.559
26309WAT     H279170   7.292   1.867   7.526
26310WAT      O79171   9.718   7.718   8.117
26310WAT     H179172   9.767   7.802   8.141
26310WAT     H279173   9.630   7.742   8.077
26311WAT      O79174   0.640   1.446   0.372
26311WAT     H179175   0.546   1.471   0.348
26311WAT     H279176   0.660   1.477   0.465
26312WAT      O79177   6.288   9.409   5.761
26312WAT     H179178   6.271   9.495   5.808
26312WAT     H279179   6.204   9.377   5.717
26313WAT      O79180   1.930   9.722   3.305
26313WAT     H179181   1.861   9.747   3.373
26313WAT     H279182   1.938   9.795   3.238
26314WAT      O79183   4.911   6.441   8.772
26314WAT     H179184   4.959   6.518   8.730
26314WAT     H279185   4.815   6.442   8.743
26315WAT      O79186   8.785   7.813   6.895
26315WAT     H179187   8.728   7.744   6.938
26315WAT     H279188   8.882   7.789   6.906
26316WAT      O79189   3.245   6.258   4.950
26316WAT     H179190   3.294   6.214   4.875
26316WAT     H279191   3.195   6.337   4.915
26317WAT      O79192   1.706   3.293   0.035
26317WAT     H179193   1.675   3.232  -0.037
26317WAT     H279194   1.804   3.307   0.028
26318WAT      O79195   3.140   4.128   4.144
26318WAT     H179196   3.145   4.146   4.046
26318WAT     H279197   3.078   4.052   4.161
26319WAT      O79198   4.549   9.125   2.628
26319WAT     H179199   4.490   9.058   2.674
26319WAT     H279200   4.644   9.107   2.652
26320WAT      O79201   5.169   8.784   1.617
26320WAT     H179202   5.205   8.814   1.528
26320WAT     H279203   5.234   8.809   1.689
26321WAT      O79204   3.144   4.722   0.231
26321WAT     H179205   3.215   4.785   0.264
26321WAT     H279206   3.072   4.714   0.300
26322WAT      O79207   7.546   4.910   8.133
26322WAT     H179208   7.455   4.872   8.115
26322WAT     H279209   7.607   4.887   8.058
26323WAT      O79210   2.211   7.396   4.482
26323WAT     H179211   2.263   7.376   4.399
26323WAT     H279212   2.150   7.473   4.465
26324WAT      O79213   4.710   9.485   9.514
26324WAT     H179214   4.702   9.458   9.418
26324WAT     H279215   4.626   9.461   9.563
26325WAT      O79216   4.381   5.702   9.003
26325WAT     H179217   4.345   5.609   9.010
26325WAT     H279218   4.401   5.737   9.095
26326WAT      O79219   7.801   5.771   1.570
26326WAT     H179220   7.717   5.717   1.567
26326WAT     H279221   7.804   5.831   1.490
26327WAT      O79222   8.629   2.371   4.104
26327WAT     H179223   8.593   2.400   4.015
26327WAT     H279224   8.725   2.400   4.112
26328WAT      O79225   3.733   9.719   4.249
26328WAT     H179226   3.666   9.793   4.250
26328WAT     H279227   3.777   9.716   4.160
26329WAT      O79228   5.897   7.040   2.157
26329WAT     H179229   5.976   7.066   2.102
26329WAT     H279230   5.923   6.968   2.222
26330WAT      O79231   3.094   6.974   5.151
26330WAT     H179232   3.133   6.944   5.064
26330WAT     H279233   3.022   7.042   5.134
26331WAT      O79234   7.836   0.469   6.853
26331WAT     H179235   7.846   0.383   6.802
26331WAT     H279236   7.815   0.449   6.948
26332WAT      O79237   8.683   6.582   7.969
26332WAT     H179238   8.710   6.587   7.873
26332WAT     H279239   8.613   6.512   7.980
26333WAT      O79240   9.052   8.589   5.838
26333WAT     H179241   9.009   8.663   5.785
26333WAT     H279242   9.141   8.619   5.870
26334WAT      O79243   4.038   9.814   2.231
26334WAT     H179244   4.002   9.903   2.203
26334WAT     H279245   3.987   9.781   2.310
26335WAT      O79246   4.794   0.937   9.291
26335WAT     H179247   4.856   0.931   9.369
26335WAT     H279248   4.716   0.875   9.306
26336WAT      O79249   1.839   2.223   3.816
26336WAT     H179250   1.773   2.194   3.885
26336WAT     H279251   1.931   2.197   3.845
26337WAT      O79252   2.339   1.930   2.740
26337WAT     H179253   2.377   1.905   2.651
26337WAT     H279254   2.241   1.946   2.730
26338WAT      O79255   3.954   7.492   0.599
26338WAT     H179256   3.858   7.477   0.624
26338WAT     H279257   3.959   7.559   0.525
26339WAT      O79258   0.065   8.415   2.923
26339WAT     H179259   0.071   8.473   2.842
26339WAT     H279260   0.074   8.319   2.896
26340WAT      O79261   1.205   6.366   4.757
26340WAT     H179262   1.303   6.352   4.745
26340WAT     H279263   1.161   6.367   4.667
26341WAT      O79264   8.782   0.073   4.640
26341WAT     H179265   8.785  -0.026   4.629
26341WAT     H279266   8.859   0.103   4.697
26342WAT      O79267   5.325   5.043   4.179
26342WAT     H179268   5.359   5.130   4.217
26342WAT     H279269   5.296   5.057   4.084
26343WAT      O79270   2.185   4.846   4.402
26343WAT     H179271   2.247   4.768   4.390
26343WAT     H279272   2.238   4.930   4.406
26344WAT      O79273   0.485   2.960   4.343
26344WAT     H179274   0.564   2.958   4.282
26344WAT     H279275   0.516   2.961   4.438
26345WAT      O79276   1.787   8.292   5.943
26345WAT     H179277   1.804   8.270   5.846
26345WAT     H279278   1.804   8.389   5.958
26346WAT      O79279   2.342   1.145   0.306
26346WAT     H179280   2.313   1.195   0.388
26346WAT     H279281   2.282   1.171   0.230
26347WAT      O79282   0.844   4.591   3.417
26347WAT     H179283   0.819   4.683   3.448
26347WAT     H279284   0.918   4.597   3.350
26348WAT      O79285   5.483   1.218   8.619
26348WAT     H179286   5.555   1.159   8.656
26348WAT     H279287   5.480   1.209   8.519
26349WAT      O79288   2.638   6.468   3.049
26349WAT     H179289   2.568   6.431   2.987
26349WAT     H279290   2.660   6.401   3.118
26350WAT      O79291   8.145   3.355   8.946
26350WAT     H179292   8.047   3.370   8.936
26350WAT     H279293   8.185   3.335   8.856
26351WAT      O79294   9.871   3.998   5.152
26351WAT     H179295   9.799   4.056   5.190
26351WAT     H279296   9.916   3.948   5.226
26352WAT      O79297   1.201   1.753   8.970
26352WAT     H179298   1.267   1.726   9.041
26352WAT     H279299   1.166   1.670   8.925
26353WAT      O79300   3.252   0.756   3.415
26353WAT     H179301   3.257   0.727   3.510
26353WAT     H279302   3.170   0.810   3.401
26354WAT      O79303   7.887   4.482   7.971
26354WAT     H179304   7.915   4.389   7.949
26354WAT     H279305   7.965   4.544   7.961
26355WAT      O79306   6.420   8.193   7.783
26355WAT     H179307   6.466   8.272   7.742
26355WAT     H279308   6.345   8.225   7.841
26356WAT      O79309   1.597   3.554   7.237
26356WAT     H179310   1.641   3.583   7.152
26356WAT     H279311   1.649   3.588   7.315
26357WAT      O79312   2.289   1.542   0.536
26357WAT     H179313   2.367   1.488   0.570
26357WAT     H279314   2.231   1.570   0.613
26358WAT      O79315   9.715   7.359   1.330
26358WAT     H179316   9.814   7.366   1.317
26358WAT     H279317   9.693   7.383   1.424
26359WAT      O79318   7.110   1.545   5.843
26359WAT     H179319   7.168   1.513   5.918
26359WAT     H279320   7.046   1.613   5.877
26360WAT      O79321   3.525   8.994   0.105
26360WAT     H179322   3.591   9.056   0.063
26360WAT     H279323   3.547   8.900   0.079
26361WAT      O79324   0.011   4.861   1.887
26361WAT     H179325  -0.031   4.816   1.966
26361WAT     H279326   0.025   4.958   1.907
26362WAT      O79327   1.431   6.718   7.660
26362WAT     H179328   1.416   6.683   7.753
26362WAT     H279329   1.529   6.732   7.647
26363WAT      O79330   8.504   7.536   2.461
26363WAT     H179331   8.585   7.507   2.512
26363WAT     H279332   8.521   7.526   2.363
26364WAT      O79333   0.115   7.095   2.981
26364WAT     H179334   0.132   7.016   3.039
26364WAT     H279335   0.096   7.175   3.037
26365WAT      O79336   8.687   8.112   8.332
26365WAT     H179337   8.745   8.169   8.274
26365WAT     H279338   8.696   8.016   8.304
26366WAT      O79339   5.339   5.021   3.526
26366WAT     H179340   5.289   5.085   3.469
26366WAT     H279341   5.278   4.948   3.557
26367WAT      O79342   9.055   4.768   1.584
26367WAT     H179343   8.972   4.807   1.626
26367WAT     H279344   9.043   4.669   1.575
26368WAT      O79345   3.210   6.172   1.604
26368WAT     H179346   3.223   6.240   1.676
26368WAT     H279347   3.264   6.091   1.625
26369WAT      O79348   6.179   8.337   3.867
26369WAT     H179349   6.178   8.435   3.850
26369WAT     H279350   6.106   8.293   3.815
26370WAT      O79351   4.200   8.540   8.428
26370WAT     H179352   4.173   8.594   8.508
26370WAT     H279353   4.217   8.446   8.455
26371WAT      O79354   5.451   2.077   1.752
26371WAT     H179355   5.494   1.994   1.788
26371WAT     H279356   5.365   2.053   1.707
26372WAT      O79357   7.583   6.023   5.875
26372WAT     H179358   7.551   6.117   5.882
26372WAT     H279359   7.667   6.012   5.928
26373WAT      O79360   3.474   8.479   4.218
26373WAT     H179361   3.423   8.427   4.286
26373WAT     H279362   3.420   8.488   4.135
26374WAT      O79363   5.176   9.150   4.550
26374WAT     H179364   5.244   9.078   4.560
26374WAT     H279365   5.087   9.117   4.582
26375WAT      O79366   3.858   4.051   8.187
26375WAT     H179367   3.923   4.007   8.126
26375WAT     H279368   3.791   3.984   8.219
26376WAT      O79369   6.665   6.594   0.571
26376WAT     H179370   6.759   6.623   0.591
26376WAT     H279371   6.615   6.582   0.658
26377WAT      O79372   1.146   8.460   5.219
26377WAT     H179373   1.100   8.548   5.228
26377WAT     H279374   1.151   8.415   5.308
26378WAT      O79375   2.054   0.715   8.745
26378WAT     H179376   2.079   0.627   8.786
26378WAT     H279377   1.970   0.704   8.692
26379WAT      O79378   8.963   1.579   7.140
26379WAT     H179379   9.011   1.624   7.064
26379WAT     H279380   8.910   1.647   7.190
26380WAT      O79381   9.013   8.184   2.262
26380WAT     H179382   8.965   8.108   2.307
26380WAT     H279383   8.947   8.256   2.239
26381WAT      O79384   9.086   0.780   1.937
26381WAT     H179385   9.080   0.875   1.907
26381WAT     H279386   9.158   0.771   2.006
26382WAT      O79387   0.877   1.954   8.806
26382WAT     H179388   0.780   1.933   8.815
26382WAT     H279389   0.926   1.924   8.888
26383WAT      O79390   1.352   2.494   6.787
26383WAT     H179391   1.258   2.482   6.817
26383WAT     H279392   1.414   2.474   6.863
26384WAT      O79393   0.981   6.705   9.617
26384WAT     H179394   1.034   6.763   9.555
26384WAT     H279395   0.940   6.761   9.689
26385WAT      O79396   2.185   9.386   6.464
26385WAT     H179397   2.262   9.449   6.476
26385WAT     H279398   2.144   9.399   6.374
26386WAT      O79399   6.540   0.646   2.879
26386WAT     H179400   6.483   0.704   2.938
26386WAT     H279401   6.546   0.686   2.788
26387WAT      O79402   0.273   7.553   1.819
26387WAT     H179403   0.201   7.554   1.750
26387WAT     H279404   0.233   7.566   1.910
26388WAT      O79405   2.274   3.931   8.857
26388WAT     H179406   2.284   4.002   8.786
26388WAT     H279407   2.184   3.939   8.900
26389WAT      O79408   6.053   7.676   7.946
26389WAT     H179409   6.117   7.752   7.961
26389WAT     H279410   5.989   7.670   8.023
26390WAT      O79411   1.845   3.591   8.835
26390WAT     H179412   1.933   3.568   8.793
26390WAT     H279413   1.772   3.538   8.790
26391WAT      O79414   1.206   1.852   8.699
26391WAT     H179415   1.187   1.849   8.797
26391WAT     H279416   1.270   1.926   8.680
26392WAT      O79417   2.353   7.969   6.662
26392WAT     H179418   2.416   8.041   6.632
26392WAT     H279419   2.402   7.882   6.667
26393WAT      O79420   9.863   4.963   4.771
26393WAT     H179421   9.781   4.921   4.810
26393WAT     H279422   9.841   5.005   4.683
26394WAT      O79423   6.949   1.742   1.509
26394WAT     H179424   6.969   1.800   1.587
26394WAT     H279425   6.912   1.655   1.541
26395WAT      O79426   4.181   3.852   7.504
26395WAT     H179427   4.134   3.832   7.418
26395WAT     H279428   4.206   3.949   7.507
26396WAT      O79429   8.266   1.453   7.630
26396WAT     H179430   8.223   1.461   7.540
26396WAT     H279431   8.253   1.360   7.665
26397WAT      O79432   4.362   5.016   5.889
26397WAT     H179433   4.420   5.094   5.864
26397WAT     H279434   4.267   5.038   5.869
26398WAT      O79435   4.061   5.021   3.997
26398WAT     H179436   4.149   5.060   3.970
26398WAT     H279437   4.011   5.087   4.053
26399WAT      O79438   9.090   0.567   0.252
26399WAT     H179439   9.104   0.664   0.237
26399WAT     H279440   9.146   0.514   0.188
26400WAT      O79441   6.065   8.827   9.874
26400WAT     H179442   6.052   8.784   9.963
26400WAT     H279443   6.161   8.853   9.863
26401WAT      O79444   8.674   3.121   8.936
26401WAT     H179445   8.581   3.149   8.914
26401WAT     H279446   8.710   3.062   8.863
26402WAT      O79447   7.760   0.931   1.083
26402WAT     H179448   7.714   0.928   0.994
26402WAT     H279449   7.752   0.843   1.128
26403WAT      O79450   9.293   4.494   7.526
26403WAT     H179451   9.324   4.565   7.463
26403WAT     H279452   9.363   4.477   7.594
26404WAT      O79453   6.815   9.129   2.281
26404WAT     H179454   6.793   9.161   2.189
26404WAT     H279455   6.911   9.102   2.284
26405WAT      O79456   5.404   5.098   9.431
26405WAT     H179457   5.452   5.059   9.509
26405WAT     H279458   5.442   5.063   9.346
26406WAT      O79459   5.100   2.925   8.374
26406WAT     H179460   5.050   2.945   8.289
26406WAT     H279461   5.112   3.009   8.426
26407WAT      O79462   2.925   6.560   5.342
26407WAT     H179463   2.908   6.462   5.332
26407WAT     H279464   3.009   6.574   5.393
26408WAT      O79465   2.156   1.589   7.726
26408WAT     H179466   2.058   1.581   7.707
26408WAT     H279467   2.169   1.617   7.822
26409WAT      O79468   4.767   5.727   8.127
26409WAT     H179469   4.798   5.781   8.048
26409WAT     H279470   4.672   5.698   8.112
26410WAT      O79471   4.194   1.699   6.628
26410WAT     H179472   4.220   1.605   6.652
26410WAT     H279473   4.105   1.720   6.668
26411WAT      O79474   5.588   3.690   1.399
26411WAT     H179475   5.536   3.701   1.484
26411WAT     H279476   5.680   3.727   1.411
26412WAT      O79477   6.345   7.275   8.412
26412WAT     H179478   6.295   7.359   8.388
26412WAT     H279479   6.438   7.281   8.376
26413WAT      O79480   4.490   0.618   9.094
26413WAT     H179481   4.564   0.553   9.077
26413WAT     H279482   4.406   0.568   9.116
26414WAT      O79483   6.901   4.286   9.148
26414WAT     H179484   6.855   4.320   9.230
26414WAT     H279485   7.000   4.288   9.163
26415WAT      O79486   9.762   4.247   4.413
26415WAT     H179487   9.848   4.273   4.370
26415WAT     H279488   9.779   4.222   4.509
26416WAT      O79489   1.052   4.402   8.922
26416WAT     H179490   1.100   4.371   9.004
26416WAT     H279491   1.092   4.359   8.841
26417WAT      O79492   3.819   8.456   3.115
26417WAT     H179493   3.858   8.445   3.024
26417WAT     H279494   3.721   8.476   3.107
26418WAT      O79495   3.861   4.647   7.357
26418WAT     H179496   3.773   4.603   7.374
26418WAT     H279497   3.885   4.704   7.436
26419WAT      O79498   7.207   3.893   8.106
26419WAT     H179499   7.229   3.871   8.011
26419WAT     H279500   7.187   3.991   8.114
26420WAT      O79501   7.330   7.702   0.228
26420WAT     H179502   7.256   7.638   0.247
26420WAT     H279503   7.388   7.666   0.155
26421WAT      O79504   3.308   5.072   1.391
26421WAT     H179505   3.292   5.166   1.360
26421WAT     H279506   3.406   5.058   1.404
26422WAT      O79507   3.452   1.762   7.138
26422WAT     H179508   3.498   1.821   7.204
26422WAT     H279509   3.360   1.798   7.120
26423WAT      O79510   0.247   4.320   5.589
26423WAT     H179511   0.329   4.308   5.645
26423WAT     H279512   0.273   4.359   5.500
26424WAT      O79513   4.602   3.439   8.792
26424WAT     H179514   4.685   3.489   8.815
26424WAT     H279515   4.626   3.349   8.756
26425WAT      O79516   6.912   5.596   0.442
26425WAT     H179517   6.856   5.515   0.426
26425WAT     H279518   6.859   5.663   0.494
26426WAT      O79519   8.531   4.740   6.168
26426WAT     H179520   8.487   4.714   6.254
26426WAT     H279521   8.588   4.665   6.135
26427WAT      O79522   8.390   5.561   5.083
26427WAT     H179523   8.326   5.501   5.034
26427WAT     H279524   8.469   5.507   5.112
26428WAT      O79525   3.734   9.683   6.687
26428WAT     H179526   3.706   9.659   6.780
26428WAT     H279527   3.764   9.778   6.684
26429WAT      O79528   2.038   7.093   4.429
26429WAT     H179529   2.014   7.025   4.359
26429WAT     H279530   2.119   7.062   4.478
26430WAT      O79531   2.425   8.127   1.190
26430WAT     H179532   2.337   8.079   1.196
26430WAT     H279533   2.498   8.060   1.178
26431WAT      O79534   1.077   3.857   3.377
26431WAT     H179535   1.145   3.823   3.443
26431WAT     H279536   1.001   3.792   3.372
26432WAT      O79537   2.466   5.645   6.757
26432WAT     H179538   2.504   5.582   6.690
26432WAT     H279539   2.500   5.621   6.848
26433WAT      O79540   8.535   5.745   7.713
26433WAT     H179541   8.494   5.811   7.776
26433WAT     H279542   8.475   5.734   7.634
26434WAT      O79543   4.257   4.634   4.930
26434WAT     H179544   4.338   4.633   4.988
26434WAT     H279545   4.279   4.679   4.844
26435WAT      O79546   4.582   7.588   0.228
26435WAT     H179547   4.495   7.634   0.247
26435WAT     H279548   4.657   7.640   0.269
26436WAT      O79549   3.370   1.739   5.507
26436WAT     H179550   3.450   1.687   5.477
26436WAT     H279551   3.354   1.722   5.605
26437WAT      O79552   8.502   8.207   5.652
26437WAT     H179553   8.423   8.260   5.622
26437WAT     H279554   8.487   8.110   5.633
26438WAT      O79555   5.330   9.550   6.832
26438WAT     H179556   5.253   9.602   6.796
26438WAT     H279557   5.350   9.473   6.771
26439WAT      O79558   7.261   2.156   9.123
26439WAT     H179559   7.240   2.117   9.033
26439WAT     H279560   7.177   2.194   9.163
26440WAT      O79561   6.021   9.231   0.116
26440WAT     H179562   5.981   9.156   0.062
26440WAT     H279563   5.971   9.241   0.202
26441WAT      O79564   4.529   0.610   5.440
26441WAT     H179565   4.435   0.619   5.407
26441WAT     H279566   4.589   0.665   5.381
26442WAT      O79567   7.165   0.049   5.476
26442WAT     H179568   7.189  -0.030   5.532
26442WAT     H279569   7.164   0.131   5.532
26443WAT      O79570   8.317   1.096   6.924
26443WAT     H179571   8.380   1.019   6.912
26443WAT     H279572   8.236   1.082   6.867
26444WAT      O79573   9.108   8.667   8.779
26444WAT     H179574   9.155   8.595   8.830
26444WAT     H279575   9.104   8.642   8.682
26445WAT      O79576   5.697   2.252   0.091
26445WAT     H179577   5.786   2.293   0.072
26445WAT     H279578   5.630   2.286   0.024
26446WAT      O79579   7.550   0.409   9.235
26446WAT     H179580   7.499   0.433   9.317
26446WAT     H279581   7.591   0.318   9.246
26447WAT      O79582   2.264   5.104   3.749
26447WAT     H179583   2.243   5.134   3.842
26447WAT     H279584   2.234   5.010   3.736
26448WAT      O79585   8.398   5.738   4.851
26448WAT     H179586   8.465   5.811   4.837
26448WAT     H279587   8.420   5.690   4.936
26449WAT      O79588   1.901   8.153   3.703
26449WAT     H179589   1.927   8.094   3.627
26449WAT     H279590   1.959   8.234   3.705
26450WAT      O79591   2.864   5.028   1.533
26450WAT     H179592   2.851   5.013   1.436
26450WAT     H279593   2.932   4.963   1.568
26451WAT      O79594   9.551   1.727   0.281
26451WAT     H179595   9.481   1.657   0.267
26451WAT     H279596   9.511   1.817   0.262
26452WAT      O79597   4.722   9.750   4.905
26452WAT     H179598   4.817   9.773   4.922
26452WAT     H279599   4.683   9.817   4.840
26453WAT      O79600   1.280   3.875   8.413
26453WAT     H179601   1.292   3.967   8.375
26453WAT     H279602   1.358   3.818   8.386
26454WAT      O79603   7.660   6.608   8.271
26454WAT     H179604   7.666   6.516   8.234
26454WAT     H279605   7.618   6.669   8.204
26455WAT      O79606   9.054   3.415   1.951
26455WAT     H179607   9.149   3.430   1.981
26455WAT     H279608   9.008   3.504   1.945
26456WAT      O79609   8.333   9.650   7.932
26456WAT     H179610   8.379   9.576   7.981
26456WAT     H279611   8.234   9.633   7.930
26457WAT      O79612   8.952   4.758   7.939
26457WAT     H179613   8.942   4.731   7.843
26457WAT     H279614   8.946   4.676   7.996
26458WAT      O79615   5.070   8.893   5.260
26458WAT     H179616   4.975   8.866   5.252
26458WAT     H279617   5.110   8.851   5.341
26459WAT      O79618   3.036   2.749   6.104
26459WAT     H179619   3.077   2.659   6.118
26459WAT     H279620   2.945   2.739   6.064
26460WAT      O79621   5.927   6.583   9.633
26460WAT     H179622   6.027   6.581   9.625
26460WAT     H279623   5.901   6.608   9.726
26461WAT      O79624   0.625   8.915   5.088
26461WAT     H179625   0.561   8.962   5.027
26461WAT     H279626   0.586   8.911   5.180
26462WAT      O79627   4.801   4.070   4.963
26462WAT     H179628   4.767   4.073   5.057
26462WAT     H279629   4.816   4.164   4.930
26463WAT      O79630   2.023   0.598   0.368
26463WAT     H179631   2.054   0.619   0.461
26463WAT     H279632   2.101   0.567   0.313
26464WAT      O79633   0.286   6.536   1.689
26464WAT     H179634   0.239   6.467   1.744
26464WAT     H279635   0.328   6.492   1.610
26465WAT      O79636   7.474   4.590   4.677
26465WAT     H179637   7.507   4.637   4.759
26465WAT     H279638   7.384   4.551   4.695
26466WAT      O79639   9.724   3.153   4.318
26466WAT     H179640   9.656   3.217   4.281
26466WAT     H279641   9.782   3.119   4.244
26467WAT      O79642   0.592   1.563   2.123
26467WAT     H179643   0.587   1.649   2.073
26467WAT     H279644   0.526   1.498   2.085
26468WAT      O79645   2.844   8.916   2.178
26468WAT     H179646   2.862   8.895   2.081
26468WAT     H279647   2.804   9.007   2.186
26469WAT      O79648   1.532   3.941   6.237
26469WAT     H179649   1.472   4.019   6.252
26469WAT     H279650   1.534   3.918   6.140
26470WAT      O79651   6.247   0.552   4.952
26470WAT     H179652   6.338   0.511   4.964
26470WAT     H279653   6.257   0.652   4.947
26471WAT      O79654   1.178   0.163   9.214
26471WAT     H179655   1.131   0.248   9.235
26471WAT     H279656   1.277   0.177   9.220
26472WAT      O79657   9.130   7.210   8.620
26472WAT     H179658   9.166   7.224   8.712
26472WAT     H279659   9.204   7.215   8.554
26473WAT      O79660   5.517   2.554   6.109
26473WAT     H179661   5.487   2.609   6.187
26473WAT     H279662   5.478   2.591   6.025
26474WAT      O79663   7.591   3.976   4.701
26474WAT     H179664   7.682   3.935   4.704
26474WAT     H279665   7.525   3.907   4.671
26475WAT      O79666   8.914   9.054   6.942
26475WAT     H179667   8.876   9.110   6.868
26475WAT     H279668   8.969   9.112   7.003
26476WAT      O79669   8.955   7.486   8.979
26476WAT     H179670   8.939   7.444   8.890
26476WAT     H279671   9.025   7.558   8.970
26477WAT      O79672   3.105   0.474   5.243
26477WAT     H179673   3.167   0.397   5.230
26477WAT     H279674   3.117   0.541   5.170
26478WAT      O79675   3.101   1.270   4.285
26478WAT     H179676   3.172   1.339   4.267
26478WAT     H279677   3.046   1.299   4.363
26479WAT      O79678   2.700   3.985   7.323
26479WAT     H179679   2.774   3.918   7.321
26479WAT     H279680   2.627   3.953   7.384
26480WAT      O79681   0.908   7.988   9.532
26480WAT     H179682   0.960   7.955   9.611
26480WAT     H279683   0.952   7.958   9.448
26481WAT      O79684   5.721   3.250   2.174
26481WAT     H179685   5.631   3.209   2.156
26481WAT     H279686   5.713   3.316   2.248
26482WAT      O79687   1.990   4.080   1.867
26482WAT     H179688   1.971   3.992   1.910
26482WAT     H279689   2.044   4.136   1.929
26483WAT      O79690   5.119   7.008   1.334
26483WAT     H179691   5.060   6.927   1.343
26483WAT     H279692   5.063   7.088   1.315
26484WAT      O79693   9.192   6.186   9.228
26484WAT     H179694   9.278   6.136   9.242
26484WAT     H279695   9.155   6.213   9.317
26485WAT      O79696   0.560   1.791   1.968
26485WAT     H179697   0.574   1.874   2.022
26485WAT     H279698   0.591   1.807   1.874
26486WAT      O79699   4.057   6.982   1.990
26486WAT     H179700   4.155   6.964   1.998
26486WAT     H279701   4.007   6.931   2.061
26487WAT      O79702   2.874   2.055   5.744
26487WAT     H179703   2.880   2.108   5.660
26487WAT     H279704   2.778   2.047   5.772
26488WAT      O79705   0.738   2.117   4.761
26488WAT     H179706   0.747   2.035   4.818
26488WAT     H279707   0.776   2.099   4.670
26489WAT      O79708   6.278   3.260   1.854
26489WAT     H179709   6.246   3.289   1.944
26489WAT     H279710   6.337   3.180   1.863
26490WAT      O79711   1.959   9.025   9.038
26490WAT     H179712   1.948   9.091   9.112
26490WAT     H279713   1.870   9.006   8.997
26491WAT      O79714   7.035   3.851   5.042
26491WAT     H179715   7.048   3.880   5.136
26491WAT     H279716   7.050   3.929   4.981
26492WAT      O79717   2.901   0.476   5.406
26492WAT     H179718   2.983   0.480   5.349
26492WAT     H279719   2.912   0.536   5.485
26493WAT      O79720   1.560   2.332   7.523
26493WAT     H179721   1.535   2.307   7.616
26493WAT     H279722   1.647   2.381   7.523
26494WAT      O79723   4.106   1.773   7.256
26494WAT     H179724   4.066   1.824   7.180
26494WAT     H279725   4.075   1.813   7.342
26495WAT      O79726   6.270   9.547   7.637
26495WAT     H179727   6.313   9.456   7.640
26495WAT     H279728   6.326   9.608   7.581
26496WAT      O79729   8.134   0.414   0.629
26496WAT     H179730   8.121   0.327   0.582
26496WAT     H279731   8.163   0.397   0.723
26497WAT      O79732   1.520   3.774   8.350
26497WAT     H179733   1.599   3.793   8.408
26497WAT     H279734   1.530   3.824   8.264
26498WAT      O79735   1.924   8.462   4.329
26498WAT     H179736   2.013   8.504   4.307
26498WAT     H279737   1.939   8.374   4.374
26499WAT      O79738   7.692   0.965   7.042
26499WAT     H179739   7.628   1.041   7.033
26499WAT     H279740   7.658   0.887   6.990
26500WAT      O79741   6.654   3.287   1.075
26500WAT     H179742   6.706   3.261   1.156
26500WAT     H279743   6.580   3.350   1.100
26501WAT      O79744   6.739   6.089   7.456
26501WAT     H179745   6.711   6.015   7.517
26501WAT     H279746   6.805   6.147   7.502
26502WAT      O79747   6.337   2.422   2.998
26502WAT     H179748   6.435   2.407   2.984
26502WAT     H279749   6.295   2.454   2.913
26503WAT      O79750   0.500   5.169   5.529
26503WAT     H179751   0.447   5.247   5.560
26503WAT     H279752   0.438   5.096   5.500
26504WAT      O79753   8.233   1.890   7.982
26504WAT     H179754   8.317   1.910   8.032
26504WAT     H279755   8.234   1.939   7.895
26505WAT      O79756   8.922   4.455   4.442
26505WAT     H179757   8.945   4.456   4.539
26505WAT     H279758   8.824   4.470   4.430
26506WAT      O79759   1.150   1.568   7.349
26506WAT     H179760   1.204   1.595   7.269
26506WAT     H279761   1.209   1.569   7.430
26507WAT      O79762   8.362   9.140   2.456
26507WAT     H179763   8.285   9.172   2.510
26507WAT     H279764   8.393   9.212   2.395
26508WAT      O79765   7.724   2.456   4.064
26508WAT     H179766   7.684   2.506   4.141
26508WAT     H279767   7.651   2.430   4.000
26509WAT      O79768   4.973   5.747   6.180
26509WAT     H179769   4.875   5.756   6.195
26509WAT     H279770   5.008   5.667   6.230
26510WAT      O79771   9.609   4.287   9.576
26510WAT     H179772   9.632   4.287   9.478
26510WAT     H279773   9.689   4.317   9.628
26511WAT      O79774   7.966   3.125   0.454
26511WAT     H179775   7.977   3.071   0.370
26511WAT     H279776   7.986   3.221   0.434
26512WAT      O79777   5.461   8.384   7.146
26512WAT     H179778   5.542   8.443   7.151
26512WAT     H279779   5.379   8.438   7.165
26513WAT      O79780   5.058   3.501   8.550
26513WAT     H179781   5.011   3.420   8.516
26513WAT     H279782   4.993   3.577   8.560
26514WAT      O79783   7.209   0.750   1.850
26514WAT     H179784   7.156   0.735   1.934
26514WAT     H279785   7.210   0.847   1.829
26515WAT      O79786   6.582   1.484   5.036
26515WAT     H179787   6.572   1.385   5.047
26515WAT     H279788   6.610   1.504   4.942
26516WAT      O79789   5.710   5.358   3.976
26516WAT     H179790   5.679   5.311   4.059
26516WAT     H279791   5.810   5.354   3.971
26517WAT      O79792   4.367   2.943   1.872
26517WAT     H179793   4.392   3.011   1.941
26517WAT     H279794   4.276   2.907   1.892
26518WAT      O79795   2.422   4.790   8.689
26518WAT     H179796   2.400   4.877   8.734
26518WAT     H279797   2.349   4.724   8.708
26519WAT      O79798   2.648   5.698   2.723
26519WAT     H179799   2.683   5.659   2.808
26519WAT     H279800   2.724   5.737   2.671
26520WAT      O79801   2.612   5.372   0.060
26520WAT     H179802   2.610   5.467   0.093
26520WAT     H279803   2.692   5.359   0.002
26521WAT      O79804   3.059   1.202   9.727
26521WAT     H179805   3.074   1.293   9.690
26521WAT     H279806   2.963   1.177   9.717
26522WAT      O79807   8.817   1.435   0.502
26522WAT     H179808   8.811   1.463   0.598
26522WAT     H279809   8.800   1.337   0.494
26523WAT      O79810   0.543   9.580   7.088
26523WAT     H179811   0.503   9.664   7.052
26523WAT     H279812   0.542   9.509   7.017
26524WAT      O79813   0.077   8.356   9.893
26524WAT     H179814   0.011   8.427   9.917
26524WAT     H279815   0.134   8.388   9.817
26525WAT      O79816   8.803   8.573   8.681
26525WAT     H179817   8.808   8.646   8.750
26525WAT     H279818   8.816   8.484   8.726
26526WAT      O79819   9.879   3.368   1.863
26526WAT     H179820   9.880   3.268   1.856
26526WAT     H279821   9.848   3.395   1.954
26527WAT      O79822   5.153   0.400   0.846
26527WAT     H179823   5.198   0.322   0.889
26527WAT     H279824   5.057   0.401   0.872
26528WAT      O79825   9.616   3.552   2.993
26528WAT     H179826   9.681   3.626   3.010
26528WAT     H279827   9.531   3.570   3.042
26529WAT      O79828   4.035   6.182   7.157
26529WAT     H179829   4.113   6.137   7.201
26529WAT     H279830   4.065   6.226   7.073
26530WAT      O79831   2.046   5.461   2.570
26530WAT     H179832   1.948   5.448   2.583
26530WAT     H279833   2.091   5.468   2.660
26531WAT      O79834   5.527   6.937   1.722
26531WAT     H179835   5.463   7.013   1.719
26531WAT     H279836   5.482   6.858   1.764
26532WAT      O79837   8.066   9.594   7.961
26532WAT     H179838   8.063   9.500   7.995
26532WAT     H279839   7.997   9.649   8.010
26533WAT      O79840   3.783   3.829   2.876
26533WAT     H179841   3.883   3.824   2.876
26533WAT     H279842   3.754   3.925   2.875
26534WAT      O79843   7.756   6.718   0.357
26534WAT     H179844   7.789   6.682   0.270
26534WAT     H279845   7.661   6.690   0.371
26535WAT      O79846   5.950   6.387   6.391
26535WAT     H179847   5.888   6.319   6.350
26535WAT     H279848   5.906   6.428   6.470
26536WAT      O79849   7.834   8.821   4.541
26536WAT     H179850   7.876   8.737   4.506
26536WAT     H279851   7.737   8.821   4.518
26537WAT      O79852   4.340   9.558   4.110
26537WAT     H179853   4.389   9.632   4.155
26537WAT     H279854   4.246   9.586   4.091
26538WAT      O79855   0.012   9.295   4.196
26538WAT     H179856  -0.046   9.254   4.266
26538WAT     H279857   0.040   9.387   4.226
26539WAT      O79858   5.048   0.718   0.028
26539WAT     H179859   5.030   0.678  -0.062
26539WAT     H279860   5.092   0.807   0.015
26540WAT      O79861   5.189   6.515   5.563
26540WAT     H179862   5.196   6.522   5.662
26540WAT     H279863   5.149   6.599   5.526
26541WAT      O79864   4.322   6.504   7.544
26541WAT     H179865   4.349   6.422   7.595
26541WAT     H279866   4.271   6.477   7.462
26542WAT      O79867   5.669   5.977   3.953
26542WAT     H179868   5.615   6.054   3.987
26542WAT     H279869   5.633   5.892   3.990
26543WAT      O79870   0.529   8.186   8.848
26543WAT     H179871   0.527   8.095   8.808
26543WAT     H279872   0.447   8.201   8.903
26544WAT      O79873   6.054   7.428   4.955
26544WAT     H179874   6.149   7.451   4.975
26544WAT     H279875   5.994   7.493   5.001
26545WAT      O79876   5.519   3.024   1.756
26545WAT     H179877   5.592   3.059   1.816
26545WAT     H279878   5.525   3.070   1.667
26546WAT      O79879   2.950   5.730   9.204
26546WAT     H179880   2.886   5.803   9.226
26546WAT     H279881   3.044   5.761   9.224
26547WAT      O79882   4.134   4.974   7.200
26547WAT     H179883   4.042   4.990   7.235
26547WAT     H279884   4.128   4.925   7.112
26548WAT      O79885   5.830   6.467   2.268
26548WAT     H179886   5.903   6.403   2.244
26548WAT     H279887   5.762   6.420   2.324
26549WAT      O79888   5.300   2.522   8.078
26549WAT     H179889   5.354   2.504   7.996
26549WAT     H279890   5.208   2.551   8.052
26550WAT      O79891   4.182   0.115   4.058
26550WAT     H179892   4.184   0.031   4.003
26550WAT     H279893   4.265   0.167   4.042
26551WAT      O79894   2.450   2.282   6.794
26551WAT     H179895   2.411   2.356   6.850
26551WAT     H279896   2.529   2.317   6.744
26552WAT      O79897   8.689   5.350   2.704
26552WAT     H179898   8.695   5.374   2.607
26552WAT     H279899   8.645   5.261   2.714
26553WAT      O79900   7.611   2.621   4.264
26553WAT     H179901   7.515   2.598   4.282
26553WAT     H279902   7.619   2.718   4.245
26554WAT      O79903   9.389   6.172   7.532
26554WAT     H179904   9.353   6.265   7.540
26554WAT     H279905   9.484   6.175   7.502
26555WAT      O79906   9.608   6.842   5.846
26555WAT     H179907   9.680   6.902   5.810
26555WAT     H279908   9.561   6.797   5.769
26556WAT      O79909   6.221   4.941   9.891
26556WAT     H179910   6.237   5.006   9.965
26556WAT     H279911   6.223   4.988   9.803
26557WAT      O79912   8.090   7.829   1.571
26557WAT     H179913   8.007   7.775   1.584
26557WAT     H279914   8.105   7.845   1.474
26558WAT      O79915   1.030   0.499   5.485
26558WAT     H179916   1.107   0.561   5.497
26558WAT     H279917   0.946   0.544   5.515
26559WAT      O79918   4.277   7.017   6.819
26559WAT     H179919   4.213   7.022   6.742
26559WAT     H279920   4.226   6.999   6.903
26560WAT      O79921   7.042   1.353   4.887
26560WAT     H179922   7.116   1.382   4.948
26560WAT     H279923   6.990   1.279   4.931
26561WAT      O79924   8.627   4.769   0.898
26561WAT     H179925   8.664   4.840   0.959
26561WAT     H279926   8.702   4.730   0.844
26562WAT      O79927   4.533   4.273   1.966
26562WAT     H179928   4.592   4.305   1.892
26562WAT     H279929   4.572   4.301   2.054
26563WAT      O79930   3.560   7.249   3.159
26563WAT     H179931   3.467   7.254   3.125
26563WAT     H279932   3.577   7.326   3.221
26564WAT      O79933   3.312   8.274   2.141
26564WAT     H179934   3.402   8.280   2.098
26564WAT     H279935   3.320   8.300   2.238
26565WAT      O79936   0.645   5.744   8.765
26565WAT     H179937   0.642   5.745   8.865
26565WAT     H279938   0.740   5.753   8.735
26566WAT      O79939   0.727   5.389   7.517
26566WAT     H179940   0.628   5.377   7.521
26566WAT     H279941   0.769   5.308   7.474
26567WAT      O79942   9.521   1.332   5.706
26567WAT     H179943   9.523   1.313   5.805
26567WAT     H279944   9.462   1.265   5.661
26568WAT      O79945   5.091   1.884   8.688
26568WAT     H179946   5.173   1.855   8.739
26568WAT     H279947   5.034   1.804   8.668
26569WAT      O79948   9.392   3.972   1.386
26569WAT     H179949   9.367   4.038   1.315
26569WAT     H279950   9.442   4.019   1.459
26570WAT      O79951   2.809   5.692   8.217
26570WAT     H179952   2.750   5.771   8.205
26570WAT     H279953   2.826   5.648   8.129
26571WAT      O79954   6.987   0.315   5.985
26571WAT     H179955   6.905   0.318   6.043
26571WAT     H279956   7.009   0.220   5.964
26572WAT      O79957   5.462   9.609   5.108
26572WAT     H179958   5.528   9.535   5.118
26572WAT     H279959   5.508   9.697   5.116
26573WAT      O79960   2.079   7.866   8.547
26573WAT     H179961   2.126   7.784   8.579
26573WAT     H279962   2.087   7.938   8.616
26574WAT      O79963   5.494   3.551   5.673
26574WAT     H179964   5.553   3.594   5.742
26574WAT     H279965   5.508   3.596   5.585
26575WAT      O79966   1.326   4.591   2.971
26575WAT     H179967   1.371   4.634   3.051
26575WAT     H279968   1.293   4.663   2.910
26576WAT      O79969   8.596   1.948   4.965
26576WAT     H179970   8.617   2.033   5.013
26576WAT     H279971   8.508   1.913   4.997
26577WAT      O79972   8.891   2.063   9.649
26577WAT     H179973   8.923   2.030   9.738
26577WAT     H279974   8.857   2.156   9.658
26578WAT      O79975   3.740   5.228   7.172
26578WAT     H179976   3.806   5.295   7.137
26578WAT     H279977   3.652   5.273   7.188
26579WAT      O79978   9.099   0.930   1.001
26579WAT     H179979   9.023   0.920   1.064
26579WAT     H279980   9.075   0.995   0.929
26580WAT      O79981   3.259   2.574   0.223
26580WAT     H179982   3.247   2.494   0.163
26580WAT     H279983   3.224   2.655   0.176
26581WAT      O79984   4.013   9.255   7.485
26581WAT     H179985   3.947   9.281   7.414
26581WAT     H279986   4.013   9.155   7.494
26582WAT      O79987   0.507   6.526   3.383
26582WAT     H179988   0.520   6.451   3.448
26582WAT     H279989   0.562   6.605   3.413
26583WAT      O79990   2.925   2.972   7.848
26583WAT     H179991   2.910   2.883   7.890
26583WAT     H279992   2.853   2.991   7.782
26584WAT      O79993   4.447   7.967   2.320
26584WAT     H179994   4.457   8.026   2.400
26584WAT     H279995   4.363   7.992   2.271
26585WAT      O79996   8.698   2.380   4.412
26585WAT     H179997   8.744   2.320   4.478
26585WAT     H279998   8.730   2.358   4.319
26586WAT      O79999   0.182   4.042   9.047
26586WAT     H180000   0.196   4.042   8.948
26586WAT     H280001   0.098   4.092   9.069
26587WAT      O80002   5.859   0.115   2.381
26587WAT     H180003   5.787   0.167   2.428
26587WAT     H280004   5.817   0.054   2.314
26588WAT      O80005   8.484   5.838   6.802
26588WAT     H180006   8.471   5.801   6.894
26588WAT     H280007   8.395   5.846   6.757
26589WAT      O80008   0.690   2.825   2.070
26589WAT     H180009   0.750   2.832   2.150
26589WAT     H280010   0.658   2.916   2.044
26590WAT      O80011   0.909   3.114   4.063
26590WAT     H180012   0.974   3.083   3.995
26590WAT     H280013   0.882   3.037   4.122
26591WAT      O80014   1.369   7.873   8.803
26591WAT     H180015   1.300   7.801   8.803
26591WAT     H280016   1.457   7.836   8.774
26592WAT      O80017   4.707   2.375   6.784
26592WAT     H180018   4.660   2.288   6.796
26592WAT     H280019   4.693   2.433   6.864
26593WAT      O80020   5.645   8.822   4.459
26593WAT     H180021   5.676   8.755   4.528
26593WAT     H280022   5.659   8.914   4.494
26594WAT      O80023   2.458   2.661   4.204
26594WAT     H180024   2.424   2.568   4.192
26594WAT     H280025   2.441   2.714   4.121
26595WAT      O80026   3.793   8.979   2.836
26595WAT     H180027   3.826   8.943   2.749
26595WAT     H280028   3.831   8.924   2.911
26596WAT      O80029   9.449   9.350   5.268
26596WAT     H180030   9.467   9.252   5.262
26596WAT     H280031   9.484   9.386   5.355
26597WAT      O80032   3.820   8.720   0.277
26597WAT     H180033   3.872   8.786   0.222
26597WAT     H280034   3.735   8.761   0.308
26598WAT      O80035   0.450   9.155   5.285
26598WAT     H180036   0.545   9.171   5.259
26598WAT     H280037   0.446   9.094   5.364
26599WAT      O80038   6.867   8.960   2.934
26599WAT     H180039   6.893   8.871   2.895
26599WAT     H280040   6.782   8.949   2.987
26600WAT      O80041   0.484   0.000   1.946
26600WAT     H180042   0.573  -0.045   1.956
26600WAT     H280043   0.498   0.098   1.935
26601WAT      O80044   9.080   9.491   5.730
26601WAT     H180045   9.164   9.503   5.676
26601WAT     H280046   9.003   9.475   5.668
26602WAT      O80047   6.585   5.474   7.444
26602WAT     H180048   6.684   5.468   7.456
26602WAT     H280049   6.557   5.412   7.371
26603WAT      O80050   2.423   9.424   5.797
26603WAT     H180051   2.460   9.405   5.706
26603WAT     H280052   2.340   9.370   5.812
26604WAT      O80053   7.660   8.145   7.920
26604WAT     H180054   7.595   8.219   7.903
26604WAT     H280055   7.629   8.063   7.873
26605WAT      O80056   9.870   4.592   5.901
26605WAT     H180057   9.776   4.597   5.867
26605WAT     H280058   9.912   4.506   5.872
26606WAT      O80059   3.295   4.998   4.847
26606WAT     H180060   3.282   5.097   4.853
26606WAT     H280061   3.228   4.959   4.784
26607WAT      O80062   4.737   5.273   2.554
26607WAT     H180063   4.805   5.326   2.606
26607WAT     H280064   4.735   5.307   2.460
26608WAT      O80065   2.010   7.550   0.382
26608WAT     H180066   2.003   7.521   0.477
26608WAT     H280067   1.979   7.644   0.373
26609WAT      O80068   5.770   2.511   1.116
26609WAT     H180069   5.707   2.587   1.127
26609WAT     H280070   5.729   2.442   1.055
26610WAT      O80071   0.183   7.899   0.630
26610WAT     H180072   0.265   7.844   0.647
26610WAT     H280073   0.202   7.966   0.558
26611WAT      O80074   5.563   9.186   7.182
26611WAT     H180075   5.649   9.155   7.222
26611WAT     H280076   5.580   9.227   7.092
26612WAT      O80077   9.415   7.370   8.677
26612WAT     H180078   9.374   7.392   8.589
26612WAT     H280079   9.352   7.316   8.731
26613WAT      O80080   1.518   6.426   6.567
26613WAT     H180081   1.446   6.440   6.499
26613WAT     H280082   1.500   6.341   6.617
26614WAT      O80083   1.371   9.612   3.248
26614WAT     H180084   1.365   9.592   3.150
26614WAT     H280085   1.457   9.577   3.284
26615WAT      O80086   5.599   6.974   0.272
26615WAT     H180087   5.659   6.926   0.336
26615WAT     H280088   5.517   6.919   0.256
26616WAT      O80089   5.478   5.767   4.068
26616WAT     H180090   5.475   5.667   4.073
26616WAT     H280091   5.504   5.803   4.157
26617WAT      O80092   6.326   4.257   3.030
26617WAT     H180093   6.424   4.235   3.027
26617WAT     H280094   6.292   4.242   3.123
26618WAT      O80095   6.290   3.019   4.657
26618WAT     H180096   6.236   3.102   4.668
26618WAT     H280097   6.381   3.033   4.697
26619WAT      O80098   5.937   1.145   9.483
26619WAT     H180099   5.938   1.067   9.545
26619WAT     H280100   6.000   1.129   9.408
26620WAT      O80101   2.568   2.065   8.445
26620WAT     H180102   2.472   2.083   8.464
26620WAT     H280103   2.582   1.967   8.431
26621WAT      O80104   2.136   6.970   3.446
26621WAT     H180105   2.060   7.033   3.462
26621WAT     H280106   2.122   6.887   3.500
26622WAT      O80107   6.524   3.509   7.516
26622WAT     H180108   6.545   3.440   7.447
26622WAT     H280109   6.435   3.490   7.557
26623WAT      O80110   4.355   0.283   5.454
26623WAT     H180111   4.399   0.341   5.524
26623WAT     H280112   4.386   0.189   5.465
26624WAT      O80113   9.389   0.861   6.785
26624WAT     H180114   9.459   0.877   6.853
26624WAT     H280115   9.418   0.788   6.723
26625WAT      O80116   3.441   9.023   4.961
26625WAT     H180117   3.456   9.080   5.042
26625WAT     H280118   3.482   9.066   4.881
26626WAT      O80119   4.114   7.736   9.060
26626WAT     H180120   4.211   7.734   9.087
26626WAT     H280121   4.095   7.820   9.010
26627WAT      O80122   0.036   2.758   4.262
26627WAT     H180123   0.132   2.765   4.288
26627WAT     H280124   0.018   2.667   4.224
26628WAT      O80125   0.676   3.081   0.175
26628WAT     H180126   0.680   3.016   0.099
26628WAT     H280127   0.608   3.050   0.242
26629WAT      O80128   2.939   0.462   3.177
26629WAT     H180129   2.891   0.375   3.190
26629WAT     H280130   2.995   0.481   3.258
26630WAT      O80131   7.638   0.690   6.975
26630WAT     H180132   7.676   0.641   6.897
26630WAT     H280133   7.639   0.631   7.055
26631WAT      O80134   0.564   9.503   7.654
26631WAT     H180135   0.582   9.451   7.737
26631WAT     H280136   0.498   9.576   7.674
26632WAT      O80137   9.013   3.516   9.227
26632WAT     H180138   9.101   3.541   9.266
26632WAT     H280139   9.027   3.475   9.137
26633WAT      O80140   7.617   7.258   4.070
26633WAT     H180141   7.571   7.234   4.156
26633WAT     H280142   7.554   7.244   3.994
26634WAT      O80143   0.705   0.997   2.437
26634WAT     H180144   0.744   1.000   2.530
26634WAT     H280145   0.768   0.948   2.377
26635WAT      O80146   9.259   2.936   6.244
26635WAT     H180147   9.323   2.864   6.217
26635WAT     H280148   9.275   3.018   6.190
26636WAT      O80149   0.047   8.945   5.012
26636WAT     H180150   0.090   8.929   5.101
26636WAT     H280151   0.074   8.873   4.948
26637WAT      O80152   6.036   7.676   3.572
26637WAT     H180153   5.947   7.638   3.597
26637WAT     H280154   6.027   7.729   3.488
26638WAT      O80155   3.316   0.957   8.119
26638WAT     H180156   3.218   0.970   8.136
26638WAT     H280157   3.369   0.997   8.193
26639WAT      O80158   8.664   1.362   3.020
26639WAT     H180159   8.610   1.392   2.941
26639WAT     H280160   8.603   1.320   3.088
26640WAT      O80161   0.087   7.843   9.021
26640WAT     H180162   0.127   7.913   8.961
26640WAT     H280163   0.018   7.792   8.970
26641WAT      O80164   3.631   6.444   8.721
26641WAT     H180165   3.672   6.511   8.783
26641WAT     H280166   3.632   6.481   8.628
26642WAT      O80167   0.160   3.836   1.720
26642WAT     H180168   0.138   3.739   1.731
26642WAT     H280169   0.180   3.875   1.810
26643WAT      O80170   6.514   0.809   0.615
26643WAT     H180171   6.471   0.886   0.662
26643WAT     H280172   6.483   0.807   0.520
26644WAT      O80173   0.925   6.102   7.550
26644WAT     H180174   0.938   6.113   7.649
26644WAT     H280175   0.962   6.013   7.522
26645WAT      O80176   0.157   7.687   7.180
26645WAT     H180177   0.240   7.744   7.177
26645WAT     H280178   0.085   7.731   7.127
26646WAT      O80179   4.400   6.174   9.520
26646WAT     H180180   4.495   6.157   9.546
26646WAT     H280181   4.394   6.188   9.421
26647WAT      O80182   9.038   4.509   7.613
26647WAT     H180183   9.019   4.468   7.702
26647WAT     H280184   9.136   4.498   7.592
26648WAT      O80185   7.700   9.816   1.444
26648WAT     H180186   7.793   9.812   1.407
26648WAT     H280187   7.696   9.886   1.515
26649WAT      O80188   2.241   5.665   8.550
26649WAT     H180189   2.242   5.578   8.599
26649WAT     H280190   2.210   5.649   8.456
26650WAT      O80191   1.535   8.980   6.511
26650WAT     H180192   1.453   8.932   6.480
26650WAT     H280193   1.528   8.999   6.609
26651WAT      O80194   8.442   7.839   7.850
26651WAT     H180195   8.380   7.760   7.849
26651WAT     H280196   8.388   7.923   7.841
26652WAT      O80197   3.695   9.627   3.103
26652WAT     H180198   3.734   9.719   3.100
26652WAT     H280199   3.602   9.627   3.067
26653WAT      O80200   6.276   8.101   7.340
26653WAT     H180201   6.338   8.088   7.417
26653WAT     H280202   6.328   8.120   7.258
26654WAT      O80203   0.127   2.770   7.616
26654WAT     H180204   0.144   2.868   7.621
26654WAT     H280205   0.165   2.725   7.697
26655WAT      O80206   3.743   0.945   4.445
26655WAT     H180207   3.808   1.016   4.472
26655WAT     H280208   3.774   0.902   4.360
26656WAT      O80209   8.474   1.038   1.024
26656WAT     H180210   8.537   1.087   0.964
26656WAT     H280211   8.500   0.942   1.030
26657WAT      O80212   4.893   0.214   5.983
26657WAT     H180213   4.966   0.146   5.972
26657WAT     H280214   4.888   0.270   5.900
26658WAT      O80215   7.769   3.802   2.767
26658WAT     H180216   7.864   3.784   2.743
26658WAT     H280217   7.737   3.883   2.718
26659WAT      O80218   2.472   5.841   0.279
26659WAT     H180219   2.430   5.753   0.302
26659WAT     H280220   2.429   5.877   0.196
26660WAT      O80221   5.689   1.416   4.694
26660WAT     H180222   5.707   1.427   4.596
26660WAT     H280223   5.608   1.469   4.718
26661WAT      O80224   5.401   0.984   3.398
26661WAT     H180225   5.469   0.938   3.341
26661WAT     H280226   5.425   1.081   3.407
26662WAT      O80227   5.922   3.252   5.424
26662WAT     H180228   5.828   3.260   5.457
26662WAT     H280229   5.979   3.209   5.494
26663WAT      O80230   8.731   7.378   0.841
26663WAT     H180231   8.635   7.362   0.863
26663WAT     H280232   8.786   7.369   0.924
26664WAT      O80233   9.635   9.650   2.660
26664WAT     H180234   9.669   9.556   2.671
26664WAT     H280235   9.604   9.684   2.749
26665WAT      O80236   4.838   7.879   5.934
26665WAT     H180237   4.811   7.827   5.853
26665WAT     H280238   4.910   7.944   5.911
26666WAT      O80239   5.581   8.157   6.362
26666WAT     H180240   5.580   8.245   6.315
26666WAT     H280241   5.492   8.142   6.406
26667WAT      O80242   5.170   4.456   6.719
26667WAT     H180243   5.150   4.544   6.677
26667WAT     H280244   5.173   4.385   6.648
26668WAT      O80245   0.334   6.298   7.402
26668WAT     H180246   0.391   6.217   7.391
26668WAT     H280247   0.303   6.330   7.313
26669WAT      O80248   8.652   7.814   2.120
26669WAT     H180249   8.607   7.831   2.032
26669WAT     H280250   8.640   7.719   2.146
26670WAT      O80251   2.329   9.211   6.718
26670WAT     H180252   2.271   9.240   6.642
26670WAT     H280253   2.425   9.220   6.693
26671WAT      O80254   7.409   3.732   7.591
26671WAT     H180255   7.449   3.756   7.502
26671WAT     H280256   7.391   3.816   7.643
26672WAT      O80257   2.834   6.728   9.784
26672WAT     H180258   2.748   6.779   9.788
26672WAT     H280259   2.904   6.784   9.739
26673WAT      O80260   4.000   7.411   8.309
26673WAT     H180261   4.069   7.435   8.241
26673WAT     H280262   3.910   7.406   8.264
26674WAT      O80263   0.455   0.867   6.944
26674WAT     H180264   0.413   0.777   6.934
26674WAT     H280265   0.553   0.856   6.962
26675WAT      O80266   4.725   0.445   0.058
26675WAT     H180267   4.689   0.447  -0.036
26675WAT     H280268   4.825   0.433   0.054
26676WAT      O80269   4.009   5.006   5.060
26676WAT     H180270   4.028   5.036   5.154
26676WAT     H280271   4.082   5.037   5.000
26677WAT      O80272   3.680   2.727   1.505
26677WAT     H180273   3.600   2.767   1.461
26677WAT     H280274   3.762   2.750   1.452
26678WAT      O80275   7.137   8.383   4.566
26678WAT     H180276   7.155   8.321   4.490
26678WAT     H280277   7.050   8.358   4.609
26679WAT      O80278   5.095   4.420   2.397
26679WAT     H180279   5.127   4.383   2.484
26679WAT     H280280   5.089   4.346   2.330
26680WAT      O80281   7.887   6.116   7.984
26680WAT     H180282   7.955   6.080   7.919
26680WAT     H280283   7.819   6.046   8.004
26681WAT      O80284   0.609   5.222   1.133
26681WAT     H180285   0.691   5.175   1.165
26681WAT     H280286   0.528   5.180   1.175
26682WAT      O80287   7.341   9.810   7.519
26682WAT     H180288   7.373   9.780   7.429
26682WAT     H280289   7.418   9.849   7.570
26683WAT      O80290   7.526   9.403   6.368
26683WAT     H180291   7.559   9.385   6.275
26683WAT     H280292   7.582   9.352   6.433
26684WAT      O80293   6.432   7.658   8.932
26684WAT     H180294   6.396   7.648   9.025
26684WAT     H280295   6.460   7.753   8.917
26685WAT      O80296   2.878   5.914   6.999
26685WAT     H180297   2.790   5.927   6.953
26685WAT     H280298   2.863   5.911   7.098
26686WAT      O80299   3.249   1.076   4.138
26686WAT     H180300   3.202   1.113   4.218
26686WAT     H280301   3.192   1.087   4.057
26687WAT      O80302   5.842   5.484   4.229
26687WAT     H180303   5.840   5.384   4.231
26687WAT     H280304   5.935   5.516   4.249
26688WAT      O80305   3.408   7.945   4.975
26688WAT     H180306   3.438   8.029   5.020
26688WAT     H280307   3.317   7.960   4.935
26689WAT      O80308   5.432   6.904   7.478
26689WAT     H180309   5.343   6.919   7.521
26689WAT     H280310   5.422   6.839   7.402
26690WAT      O80311   9.330   1.368   9.608
26690WAT     H180312   9.253   1.394   9.550
26690WAT     H280313   9.368   1.281   9.576
26691WAT      O80314   2.210   4.203   3.820
26691WAT     H180315   2.219   4.235   3.914
26691WAT     H280316   2.294   4.226   3.769
26692WAT      O80317   4.950   3.354   0.807
26692WAT     H180318   5.049   3.343   0.810
26692WAT     H280319   4.910   3.324   0.894
26693WAT      O80320   4.812   8.993   7.374
26693WAT     H180321   4.881   9.058   7.341
26693WAT     H280322   4.748   9.041   7.434
26694WAT      O80323   7.001   5.553   3.136
26694WAT     H180324   7.082   5.587   3.184
26694WAT     H280325   7.011   5.566   3.038
26695WAT      O80326   9.775   7.660   3.330
26695WAT     H180327   9.803   7.680   3.424
26695WAT     H280328   9.781   7.744   3.275
26696WAT      O80329   3.442   3.185   2.814
26696WAT     H180330   3.499   3.255   2.771
26696WAT     H280331   3.347   3.216   2.817
26697WAT      O80332   6.100   5.136   9.534
26697WAT     H180333   6.164   5.189   9.478
26697WAT     H280334   6.125   5.146   9.630
26698WAT      O80335   6.969   9.729   1.741
26698WAT     H180336   6.872   9.732   1.718
26698WAT     H280337   7.023   9.718   1.658
26699WAT      O80338   3.352   2.957   6.969
26699WAT     H180339   3.285   2.932   6.899
26699WAT     H280340   3.345   2.894   7.046
26700WAT      O80341   0.851   7.672   6.784
26700WAT     H180342   0.906   7.617   6.846
26700WAT     H280343   0.806   7.613   6.718
26701WAT      O80344   2.666   9.090   9.493
26701WAT     H180345   2.601   9.022   9.458
26701WAT     H280346   2.616   9.164   9.538
26702WAT      O80347   1.914   0.664   7.806
26702WAT     H180348   1.939   0.727   7.733
26702WAT     H280349   1.898   0.573   7.767
26703WAT      O80350   5.345   9.742   1.469
26703WAT     H180351   5.440   9.750   1.498
26703WAT     H280352   5.328   9.649   1.436
26704WAT      O80353   9.710   0.859   9.652
26704WAT     H180354   9.626   0.910   9.671
26704WAT     H280355   9.731   0.799   9.729
26705WAT      O80356   7.405   7.669   9.405
26705WAT     H180357   7.448   7.587   9.366
26705WAT     H280358   7.404   7.661   9.504
26706WAT      O80359   4.318   7.458   8.574
26706WAT     H180360   4.254   7.533   8.592
26706WAT     H280361   4.332   7.406   8.659
26707WAT      O80362   9.424   8.716   7.845
26707WAT     H180363   9.336   8.722   7.892
26707WAT     H280364   9.408   8.706   7.746
26708WAT      O80365   9.366   5.943   9.793
26708WAT     H180366   9.317   5.858   9.812
26708WAT     H280367   9.400   5.982   9.879
26709WAT      O80368   2.597   6.563   6.947
26709WAT     H180369   2.650   6.640   6.909
26709WAT     H280370   2.657   6.507   7.005
26710WAT      O80371   0.691   7.514   4.769
26710WAT     H180372   0.783   7.535   4.737
26710WAT     H280373   0.679   7.549   4.862
26711WAT      O80374   1.044   5.648   3.508
26711WAT     H180375   1.109   5.649   3.432
26711WAT     H280376   0.988   5.731   3.505
26712WAT      O80377   4.258   4.079   1.943
26712WAT     H180378   4.207   4.099   2.027
26712WAT     H280379   4.354   4.103   1.956
26713WAT      O80380   0.524   8.686   8.739
26713WAT     H180381   0.616   8.670   8.703
26713WAT     H280382   0.514   8.640   8.827
26714WAT      O80383   6.228   4.058   2.578
26714WAT     H180384   6.315   4.108   2.575
26714WAT     H280385   6.180   4.080   2.663
26715WAT      O80386   2.033   1.230   1.851
26715WAT     H180387   2.009   1.299   1.782
26715WAT     H280388   1.951   1.181   1.878
26716WAT      O80389   8.160   3.602   1.491
26716WAT     H180390   8.162   3.560   1.582
26716WAT     H280391   8.084   3.563   1.438
26717WAT      O80392   1.355   9.671   3.601
26717WAT     H180393   1.426   9.634   3.661
26717WAT     H280394   1.397   9.726   3.529
26718WAT      O80395   7.242   7.230   4.669
26718WAT     H180396   7.300   7.152   4.691
26718WAT     H280397   7.282   7.313   4.709
26719WAT      O80398   6.812   1.378   1.916
26719WAT     H180399   6.789   1.375   2.013
26719WAT     H280400   6.730   1.360   1.862
26720WAT      O80401   2.412   5.540   0.493
26720WAT     H180402   2.496   5.506   0.449
26720WAT     H280403   2.436   5.610   0.560
26721WAT      O80404   0.285   4.222   3.443
26721WAT     H180405   0.318   4.242   3.350
26721WAT     H280406   0.185   4.227   3.445
26722WAT      O80407   6.790   1.683   1.285
26722WAT     H180408   6.844   1.698   1.367
26722WAT     H280409   6.830   1.735   1.209
26723WAT      O80410   0.492   2.957   1.094
26723WAT     H180411   0.580   2.989   1.130
26723WAT     H280412   0.469   2.869   1.135
26724WAT      O80413   4.173   6.742   7.454
26724WAT     H180414   4.221   6.798   7.386
26724WAT     H280415   4.221   6.655   7.465
26725WAT      O80416   6.974   0.103   9.346
26725WAT     H180417   7.013   0.105   9.438
26725WAT     H280418   6.918   0.021   9.335
26726WAT      O80419   1.779   8.137   1.893
26726WAT     H180420   1.815   8.046   1.916
26726WAT     H280421   1.851   8.190   1.848
26727WAT      O80422   0.676   9.087   5.801
26727WAT     H180423   0.625   9.123   5.722
26727WAT     H280424   0.621   9.018   5.848
26728WAT      O80425   7.741   9.244   2.736
26728WAT     H180426   7.668   9.309   2.717
26728WAT     H280427   7.829   9.291   2.734
26729WAT      O80428   5.327   8.348   9.600
26729WAT     H180429   5.369   8.439   9.596
26729WAT     H280430   5.267   8.343   9.680
26730WAT      O80431   6.561   3.836   3.908
26730WAT     H180432   6.645   3.783   3.904
26730WAT     H280433   6.488   3.780   3.947
26731WAT      O80434   7.175   4.715   5.777
26731WAT     H180435   7.184   4.623   5.738
26731WAT     H280436   7.095   4.717   5.838
26732WAT      O80437   7.190   8.278   6.557
26732WAT     H180438   7.270   8.320   6.600
26732WAT     H280439   7.184   8.308   6.462
26733WAT      O80440   2.184   9.712   7.620
26733WAT     H180441   2.152   9.685   7.711
26733WAT     H280442   2.249   9.787   7.628
26734WAT      O80443   1.534   5.177   0.394
26734WAT     H180444   1.538   5.191   0.295
26734WAT     H280445   1.557   5.262   0.440
26735WAT      O80446   8.333   8.317   2.534
26735WAT     H180447   8.415   8.279   2.490
26735WAT     H280448   8.361   8.383   2.604
26736WAT      O80449   7.769   9.638   0.925
26736WAT     H180450   7.815   9.677   0.845
26736WAT     H280451   7.707   9.565   0.896
26737WAT      O80452   0.507   8.313   8.176
26737WAT     H180453   0.505   8.214   8.160
26737WAT     H280454   0.466   8.333   8.264
26738WAT      O80455   9.038   0.535   5.409
26738WAT     H180456   8.953   0.505   5.454
26738WAT     H280457   9.107   0.463   5.416
26739WAT      O80458   4.592   7.655   1.140
26739WAT     H180459   4.626   7.562   1.153
26739WAT     H280460   4.622   7.690   1.051
26740WAT      O80461   7.853   5.638   3.711
26740WAT     H180462   7.842   5.652   3.809
26740WAT     H280463   7.950   5.645   3.686
26741WAT      O80464   2.902   8.450   8.604
26741WAT     H180465   2.851   8.434   8.520
26741WAT     H280466   2.840   8.446   8.682
26742WAT      O80467   3.246   5.036   8.679
26742WAT     H180468   3.160   5.087   8.685
26742WAT     H280469   3.287   5.052   8.589
26743WAT      O80470   8.313   6.985   3.316
26743WAT     H180471   8.263   7.056   3.267
26743WAT     H280472   8.408   7.015   3.330
26744WAT      O80473   9.369   5.301   7.619
26744WAT     H180474   9.321   5.248   7.689
26744WAT     H280475   9.449   5.251   7.587
26745WAT      O80476   8.121   7.653   5.388
26745WAT     H180477   8.037   7.601   5.405
26745WAT     H280478   8.194   7.622   5.448
26746WAT      O80479   6.968   0.613   2.153
26746WAT     H180480   7.001   0.706   2.140
26746WAT     H280481   7.045   0.553   2.173
26747WAT      O80482   4.837   7.406   3.155
26747WAT     H180483   4.911   7.349   3.192
26747WAT     H280484   4.749   7.371   3.186
26748WAT      O80485   8.560   1.282   3.877
26748WAT     H180486   8.467   1.247   3.889
26748WAT     H280487   8.563   1.378   3.906
26749WAT      O80488   5.728   9.502   2.452
26749WAT     H180489   5.740   9.459   2.542
26749WAT     H280490   5.817   9.505   2.406
26750WAT      O80491   5.223   4.532   3.214
26750WAT     H180492   5.295   4.601   3.215
26750WAT     H280493   5.261   4.444   3.184
26751WAT      O80494   5.292   5.705   7.099
26751WAT     H180495   5.340   5.632   7.148
26751WAT     H280496   5.193   5.693   7.110
26752WAT      O80497   2.741   9.414   8.597
26752WAT     H180498   2.830   9.389   8.560
26752WAT     H280499   2.747   9.425   8.696
26753WAT      O80500   9.317   8.608   2.968
26753WAT     H180501   9.279   8.701   2.971
26753WAT     H280502   9.356   8.585   3.057
26754WAT      O80503   1.840   1.942   8.406
26754WAT     H180504   1.811   1.999   8.329
26754WAT     H280505   1.839   1.846   8.378
26755WAT      O80506   7.410   7.211   0.420
26755WAT     H180507   7.336   7.262   0.462
26755WAT     H280508   7.489   7.272   0.405
26756WAT      O80509   4.649   0.239   4.496
26756WAT     H180510   4.681   0.204   4.408
26756WAT     H280511   4.725   0.284   4.543
26757WAT      O80512   6.263   6.098   2.479
26757WAT     H180513   6.205   6.126   2.556
26757WAT     H280514   6.347   6.057   2.513
26758WAT      O80515   8.475   8.054   1.271
26758WAT     H180516   8.571   8.027   1.262
26758WAT     H280517   8.445   8.099   1.186
26759WAT      O80518   8.063   0.062   1.794
26759WAT     H180519   8.014   0.084   1.879
26759WAT     H280520   8.042  -0.032   1.767
26760WAT      O80521   8.499   0.324   0.880
26760WAT     H180522   8.482   0.278   0.793
26760WAT     H280523   8.597   0.345   0.889
26761WAT      O80524   8.636   8.607   9.342
26761WAT     H180525   8.683   8.658   9.414
26761WAT     H280526   8.648   8.655   9.255
26762WAT      O80527   7.658   4.908   2.347
26762WAT     H180528   7.688   4.989   2.398
26762WAT     H280529   7.601   4.851   2.406
26763WAT      O80530   4.038   0.182   7.453
26763WAT     H180531   4.120   0.235   7.476
26763WAT     H280532   4.061   0.085   7.452
26764WAT      O80533   0.184   3.893   9.265
26764WAT     H180534   0.099   3.842   9.276
26764WAT     H280535   0.182   3.942   9.177
26765WAT      O80536   8.234   6.487   0.518
26765WAT     H180537   8.269   6.395   0.504
26765WAT     H280538   8.196   6.494   0.610
26766WAT      O80539   3.900   0.716   0.953
26766WAT     H180540   3.827   0.721   1.021
26766WAT     H280541   3.957   0.636   0.971
26767WAT      O80542   4.973   3.711   0.982
26767WAT     H180543   4.941   3.620   0.955
26767WAT     H280544   5.016   3.706   1.073
26768WAT      O80545   2.742   6.174   5.035
26768WAT     H180546   2.835   6.146   5.059
26768WAT     H280547   2.743   6.222   4.948
26769WAT      O80548   5.259   9.794   7.186
26769WAT     H180549   5.245   9.707   7.232
26769WAT     H280550   5.190   9.860   7.217
26770WAT      O80551   4.151   8.052   1.447
26770WAT     H180552   4.186   8.142   1.420
26770WAT     H280553   4.085   8.020   1.380
26771WAT      O80554   1.985   5.567   3.970
26771WAT     H180555   2.030   5.643   4.018
26771WAT     H280556   1.917   5.603   3.907
26772WAT      O80557   0.921   1.006   8.859
26772WAT     H180558   0.900   0.933   8.794
26772WAT     H280559   1.005   0.983   8.909
26773WAT      O80560   5.223   4.251   7.290
26773WAT     H180561   5.167   4.183   7.339
26773WAT     H280562   5.167   4.297   7.222
26774WAT      O80563   4.268   0.884   1.150
26774WAT     H180564   4.343   0.884   1.084
26774WAT     H280565   4.181   0.901   1.103
26775WAT      O80566   1.684   7.785   4.813
26775WAT     H180567   1.751   7.771   4.740
26775WAT     H280568   1.714   7.859   4.872
26776WAT      O80569   0.506   1.713   6.363
26776WAT     H180570   0.549   1.626   6.389
26776WAT     H280571   0.412   1.714   6.397
26777WAT      O80572   8.387   3.742   8.596
26777WAT     H180573   8.350   3.771   8.508
26777WAT     H280574   8.476   3.785   8.611
26778WAT      O80575   5.885   6.841   0.180
26778WAT     H180576   5.863   6.753   0.137
26778WAT     H280577   5.825   6.856   0.258
26779WAT      O80578   1.963   6.912   8.763
26779WAT     H180579   1.922   6.913   8.854
26779WAT     H280580   2.059   6.937   8.769
26780WAT      O80581   0.108   8.343   6.996
26780WAT     H180582   0.091   8.261   6.941
26780WAT     H280583   0.104   8.320   7.093
26781WAT      O80584   0.712   3.406   4.870
26781WAT     H180585   0.748   3.484   4.921
26781WAT     H280586   0.731   3.419   4.773
26782WAT      O80587   7.583   7.919   3.573
26782WAT     H180588   7.676   7.944   3.548
26782WAT     H280589   7.561   7.829   3.534
26783WAT      O80590   9.751   5.286   4.724
26783WAT     H180591   9.840   5.252   4.695
26783WAT     H280592   9.725   5.244   4.811
26784WAT      O80593   4.406   1.273   3.582
26784WAT     H180594   4.335   1.339   3.608
26784WAT     H280595   4.455   1.244   3.664
26785WAT      O80596   2.548   9.259   0.030
26785WAT     H180597   2.637   9.289  -0.003
26785WAT     H280598   2.507   9.331   0.086
26786WAT      O80599   3.865   6.592   6.099
26786WAT     H180600   3.960   6.560   6.105
26786WAT     H280601   3.864   6.692   6.094
26787WAT      O80602   2.216   0.006   0.114
26787WAT     H180603   2.122   0.037   0.126
26787WAT     H280604   2.270   0.032   0.194
26788WAT      O80605   7.244   9.177   4.411
26788WAT     H180606   7.344   9.180   4.402
26788WAT     H280607   7.217   9.096   4.462
26789WAT      O80608   7.045   4.032   8.849
26789WAT     H180609   7.127   4.027   8.792
26789WAT     H280610   7.031   4.126   8.880
26790WAT      O80611   1.312   6.003   8.386
26790WAT     H180612   1.340   5.908   8.371
26790WAT     H280613   1.388   6.054   8.425
26791WAT      O80614   0.644   0.745   7.701
26791WAT     H180615   0.695   0.748   7.787
26791WAT     H280616   0.659   0.657   7.657
26792WAT      O80617   4.726   9.835   2.526
26792WAT     H180618   4.675   9.770   2.470
26792WAT     H280619   4.727   9.803   2.621
26793WAT      O80620   7.608   5.489   3.753
26793WAT     H180621   7.578   5.499   3.658
26793WAT     H280622   7.698   5.530   3.764
26794WAT      O80623   3.764   6.870   8.981
26794WAT     H180624   3.851   6.868   9.030
26794WAT     H280625   3.746   6.964   8.951
26795WAT      O80626   0.706   9.614   5.139
26795WAT     H180627   0.740   9.555   5.067
26795WAT     H280628   0.779   9.634   5.204
26796WAT      O80629   7.483   8.916   1.054
26796WAT     H180630   7.460   8.842   1.117
26796WAT     H280631   7.507   8.998   1.105
26797WAT      O80632   0.837   5.352   6.616
26797WAT     H180633   0.803   5.418   6.683
26797WAT     H280634   0.917   5.389   6.569
26798WAT      O80635   5.224   6.925   5.640
26798WAT     H180636   5.278   6.991   5.588
26798WAT     H280637   5.285   6.870   5.698
26799WAT      O80638   5.814   5.357   9.215
26799WAT     H180639   5.745   5.403   9.160
26799WAT     H280640   5.790   5.261   9.226
26800WAT      O80641   2.665   6.472   0.518
26800WAT     H180642   2.703   6.471   0.426
26800WAT     H280643   2.701   6.395   0.571
26801WAT      O80644   1.239   5.425   6.340
26801WAT     H180645   1.287   5.498   6.291
26801WAT     H280646   1.147   5.455   6.364
26802WAT      O80647   1.606   1.093   8.690
26802WAT     H180648   1.649   1.092   8.599
26802WAT     H280649   1.656   1.031   8.751
26803WAT      O80650   1.551   4.972   8.070
26803WAT     H180651   1.631   5.009   8.024
26803WAT     H280652   1.553   4.872   8.064
26804WAT      O80653   6.101   0.677   8.774
26804WAT     H180654   6.025   0.651   8.833
26804WAT     H280655   6.100   0.776   8.761
26805WAT      O80656   5.821   5.942   6.330
26805WAT     H180657   5.731   5.899   6.327
26805WAT     H280658   5.814   6.038   6.303
26806WAT      O80659   9.490   4.184   1.975
26806WAT     H180660   9.531   4.100   1.940
26806WAT     H280661   9.411   4.162   2.032
26807WAT      O80662   3.297   8.546   1.576
26807WAT     H180663   3.321   8.468   1.518
26807WAT     H280664   3.320   8.525   1.671
26808WAT      O80665   7.078   1.223   2.223
26808WAT     H180666   7.008   1.154   2.203
26808WAT     H280667   7.042   1.313   2.201
26809WAT      O80668   1.165   3.383   0.221
26809WAT     H180669   1.097   3.429   0.164
26809WAT     H280670   1.241   3.445   0.241
26810WAT      O80671   0.666   7.986   2.997
26810WAT     H180672   0.677   8.041   3.079
26810WAT     H280673   0.670   8.045   2.916
26811WAT      O80674   8.047   1.203   2.699
26811WAT     H180675   8.014   1.119   2.655
26811WAT     H280676   7.987   1.226   2.775
26812WAT      O80677   4.797   4.239   6.026
26812WAT     H180678   4.740   4.204   6.100
26812WAT     H280679   4.739   4.272   5.951
26813WAT      O80680   7.383   8.340   9.896
26813WAT     H180681   7.405   8.437   9.891
26813WAT     H280682   7.341   8.311   9.809
26814WAT      O80683   4.010   7.497   6.526
26814WAT     H180684   4.079   7.494   6.453
26814WAT     H280685   3.958   7.411   6.525
26815WAT      O80686   8.525   3.309   2.866
26815WAT     H180687   8.622   3.286   2.859
26815WAT     H280688   8.470   3.229   2.842
26816WAT      O80689   7.516   4.795   4.513
26816WAT     H180690   7.501   4.707   4.559
26816WAT     H280691   7.434   4.851   4.523
26817WAT      O80692   0.237   8.243   5.259
26817WAT     H180693   0.303   8.258   5.333
26817WAT     H280694   0.276   8.179   5.192
26818WAT      O80695   6.010   1.514   7.198
26818WAT     H180696   6.067   1.489   7.120
26818WAT     H280697   5.947   1.587   7.172
26819WAT      O80698   4.662   0.408   8.996
26819WAT     H180699   4.624   0.367   8.913
26819WAT     H280700   4.746   0.458   8.973
26820WAT      O80701   3.689   7.369   3.954
26820WAT     H180702   3.733   7.434   4.016
26820WAT     H280703   3.591   7.390   3.948
26821WAT      O80704   9.036   0.548   9.776
26821WAT     H180705   9.119   0.576   9.727
26821WAT     H280706   9.051   0.459   9.818
26822WAT      O80707   2.296   2.815   4.390
26822WAT     H180708   2.226   2.855   4.330
26822WAT     H280709   2.354   2.754   4.336
26823WAT      O80710   5.024   6.973   3.082
26823WAT     H180711   5.121   6.986   3.060
26823WAT     H280712   5.003   6.876   3.085
26824WAT      O80713   6.556   2.497   7.300
26824WAT     H180714   6.622   2.571   7.284
26824WAT     H280715   6.476   2.533   7.348
26825WAT      O80716   9.243   1.335   6.076
26825WAT     H180717   9.173   1.406   6.073
26825WAT     H280718   9.202   1.249   6.106
26826WAT      O80719   4.655   8.025   5.752
26826WAT     H180720   4.570   8.033   5.805
26826WAT     H280721   4.671   7.929   5.728
26827WAT      O80722   7.229   8.546   1.199
26827WAT     H180723   7.187   8.457   1.218
26827WAT     H280724   7.157   8.612   1.177
26828WAT      O80725   6.264   1.010   6.456
26828WAT     H180726   6.186   1.005   6.518
26828WAT     H280727   6.303   0.919   6.443
26829WAT      O80728   6.978   4.881   5.615
26829WAT     H180729   6.980   4.803   5.553
26829WAT     H280730   7.053   4.872   5.681
26830WAT      O80731   7.469   8.541   6.856
26830WAT     H180732   7.556   8.589   6.859
26830WAT     H280733   7.403   8.587   6.916
26831WAT      O80734   5.344   2.292   1.165
26831WAT     H180735   5.286   2.351   1.221
26831WAT     H280736   5.399   2.233   1.224
26832WAT      O80737   2.037   8.899   2.984
26832WAT     H180738   2.106   8.832   3.010
26832WAT     H280739   1.977   8.918   3.062
26833WAT      O80740   1.116   7.365   2.492
26833WAT     H180741   1.093   7.424   2.414
26833WAT     H280742   1.192   7.405   2.543
26834WAT      O80743   0.306   0.269   8.423
26834WAT     H180744   0.283   0.363   8.397
26834WAT     H280745   0.373   0.233   8.358
26835WAT      O80746   4.154   1.309   8.269
26835WAT     H180747   4.089   1.234   8.254
26835WAT     H280748   4.138   1.381   8.202
26836WAT      O80749   4.261   0.379   6.465
26836WAT     H180750   4.283   0.468   6.505
26836WAT     H280751   4.235   0.391   6.370
26837WAT      O80752   8.093   8.302   8.616
26837WAT     H180753   8.092   8.238   8.693
26837WAT     H280754   8.002   8.342   8.604
26838WAT      O80755   6.077   2.013   6.426
26838WAT     H180756   6.043   1.927   6.388
26838WAT     H280757   6.000   2.074   6.445
26839WAT      O80758   5.209   0.283   5.021
26839WAT     H180759   5.226   0.203   4.963
26839WAT     H280760   5.253   0.363   4.982
26840WAT      O80761   0.280   0.786   8.213
26840WAT     H180762   0.326   0.872   8.191
26840WAT     H280763   0.184   0.804   8.233
26841WAT      O80764   4.458   7.727   7.397
26841WAT     H180765   4.555   7.733   7.373
26841WAT     H280766   4.417   7.819   7.394
26842WAT      O80767   9.042   0.777   3.689
26842WAT     H180768   9.101   0.697   3.695
26842WAT     H280769   9.054   0.822   3.600
26843WAT      O80770   0.457   8.653   1.164
26843WAT     H180771   0.451   8.651   1.064
26843WAT     H280772   0.448   8.560   1.200
26844WAT      O80773   6.843   5.521   7.970
26844WAT     H180774   6.747   5.526   7.998
26844WAT     H280775   6.901   5.525   8.051
26845WAT      O80776   1.548   6.568   6.787
26845WAT     H180777   1.456   6.604   6.798
26845WAT     H280778   1.557   6.524   6.698
26846WAT      O80779   9.548   0.602   8.701
26846WAT     H180780   9.619   0.640   8.643
26846WAT     H280781   9.543   0.503   8.688
26847WAT      O80782   5.852   8.304   3.428
26847WAT     H180783   5.800   8.313   3.343
26847WAT     H280784   5.948   8.288   3.406
26848WAT      O80785   7.380   5.661   9.290
26848WAT     H180786   7.318   5.732   9.324
26848WAT     H280787   7.360   5.643   9.194
26849WAT      O80788   3.476   9.502   8.636
26849WAT     H180789   3.491   9.492   8.735
26849WAT     H280790   3.384   9.472   8.613
26850WAT      O80791   8.687   2.926   3.671
26850WAT     H180792   8.749   2.958   3.599
26850WAT     H280793   8.595   2.916   3.633
26851WAT      O80794   4.407   0.710   3.053
26851WAT     H180795   4.320   0.663   3.068
26851WAT     H280796   4.417   0.732   2.955
26852WAT      O80797   3.566   6.031   4.528
26852WAT     H180798   3.499   6.084   4.580
26852WAT     H280799   3.657   6.071   4.539
26853WAT      O80800   5.911   0.389   3.138
26853WAT     H180801   5.836   0.418   3.079
26853WAT     H280802   5.962   0.470   3.169
26854WAT      O80803   2.972   1.468   5.237
26854WAT     H180804   3.000   1.422   5.153
26854WAT     H280805   3.005   1.563   5.236
26855WAT      O80806   0.071   7.236   1.727
26855WAT     H180807   0.145   7.196   1.782
26855WAT     H280808   0.021   7.302   1.782
26856WAT      O80809   2.858   8.097   4.488
26856WAT     H180810   2.794   8.128   4.559
26856WAT     H280811   2.904   8.014   4.519
26857WAT      O80812   2.977   4.745   1.566
26857WAT     H180813   2.987   4.787   1.656
26857WAT     H280814   3.062   4.698   1.542
26858WAT      O80815   3.450   0.095   3.488
26858WAT     H180816   3.474   0.019   3.427
26858WAT     H280817   3.392   0.061   3.562
26859WAT      O80818   2.472   3.348   2.283
26859WAT     H180819   2.475   3.307   2.375
26859WAT     H280820   2.549   3.315   2.229
26860WAT      O80821   4.710   1.384   7.572
26860WAT     H180822   4.754   1.375   7.483
26860WAT     H280823   4.754   1.323   7.637
26861WAT      O80824   4.368   1.829   7.267
26861WAT     H180825   4.348   1.923   7.296
26861WAT     H280826   4.283   1.776   7.267
26862WAT      O80827   4.117   0.026   6.740
26862WAT     H180828   4.168  -0.050   6.701
26862WAT     H280829   4.167   0.111   6.726
26863WAT      O80830   2.097   5.114   0.397
26863WAT     H180831   2.152   5.031   0.404
26863WAT     H280832   2.111   5.170   0.478
26864WAT      O80833   6.874   8.137   3.704
26864WAT     H180834   6.912   8.199   3.636
26864WAT     H280835   6.891   8.042   3.676
26865WAT      O80836   1.923   1.393   9.281
26865WAT     H180837   1.911   1.485   9.243
26865WAT     H280838   1.854   1.376   9.351
26866WAT      O80839   1.571   6.748   8.550
26866WAT     H180840   1.520   6.699   8.480
26866WAT     H280841   1.544   6.844   8.550
26867WAT      O80842   9.282   7.802   0.257
26867WAT     H180843   9.253   7.865   0.185
26867WAT     H280844   9.280   7.708   0.223
26868WAT      O80845   8.079   4.475   0.996
26868WAT     H180846   8.163   4.423   0.981
26868WAT     H280847   8.001   4.421   0.967
26869WAT      O80848   1.624   0.515   4.456
26869WAT     H180849   1.615   0.614   4.463
26869WAT     H280850   1.694   0.493   4.388
26870WAT      O80851   0.434   0.388   4.939
26870WAT     H180852   0.516   0.446   4.943
26870WAT     H280853   0.462   0.292   4.937
26871WAT      O80854   3.811   3.448   6.148
26871WAT     H180855   3.851   3.383   6.213
26871WAT     H280856   3.764   3.397   6.076
26872WAT      O80857   1.215   8.320   7.775
26872WAT     H180858   1.138   8.310   7.838
26872WAT     H280859   1.238   8.417   7.766
26873WAT      O80860   1.923   7.314   8.149
26873WAT     H180861   1.848   7.278   8.205
26873WAT     H280862   1.911   7.412   8.136
26874WAT      O80863   6.220   2.107   8.141
26874WAT     H180864   6.126   2.076   8.153
26874WAT     H280865   6.221   2.205   8.119
26875WAT      O80866   2.965   2.941   1.992
26875WAT     H180867   2.910   2.922   2.073
26875WAT     H280868   2.914   3.001   1.930
26876WAT      O80869   2.655   7.664   0.720
26876WAT     H180870   2.673   7.571   0.752
26876WAT     H280871   2.727   7.692   0.656
26877WAT      O80872   8.658   3.964   2.945
26877WAT     H180873   8.647   3.972   2.846
26877WAT     H280874   8.617   4.043   2.990
26878WAT      O80875   5.385   9.341   4.606
26878WAT     H180876   5.417   9.325   4.700
26878WAT     H280877   5.302   9.288   4.590
26879WAT      O80878   6.471   4.991   8.714
26879WAT     H180879   6.436   4.966   8.624
26879WAT     H280880   6.542   5.062   8.703
26880WAT      O80881   2.237   1.053   8.535
26880WAT     H180882   2.251   0.973   8.477
26880WAT     H280883   2.307   1.055   8.606
26881WAT      O80884   5.116   2.763   0.698
26881WAT     H180885   5.069   2.823   0.762
26881WAT     H280886   5.055   2.740   0.622
26882WAT      O80887   7.616   7.767   5.894
26882WAT     H180888   7.585   7.729   5.807
26882WAT     H280889   7.688   7.834   5.878
26883WAT      O80890   2.713   6.739   0.965
26883WAT     H180891   2.744   6.817   1.019
26883WAT     H280892   2.639   6.692   1.012
26884WAT      O80893   2.227   2.800   1.843
26884WAT     H180894   2.163   2.861   1.796
26884WAT     H280895   2.177   2.747   1.912
26885WAT      O80896   7.864   4.918   1.949
26885WAT     H180897   7.798   4.964   2.008
26885WAT     H280898   7.950   4.969   1.948
26886WAT      O80899   2.274   6.460   9.089
26886WAT     H180900   2.175   6.474   9.082
26886WAT     H280901   2.311   6.517   9.162
26887WAT      O80902   7.968   8.949   5.151
26887WAT     H180903   7.883   8.991   5.183
26887WAT     H280904   8.044   9.013   5.165
26888WAT      O80905   7.036   4.054   6.158
26888WAT     H180906   7.004   4.140   6.119
26888WAT     H280907   7.025   4.057   6.258
26889WAT      O80908   8.950   1.853   2.562
26889WAT     H180909   8.963   1.950   2.540
26889WAT     H280910   9.029   1.801   2.528
26890WAT      O80911   1.933   0.381   2.452
26890WAT     H180912   2.025   0.348   2.434
26890WAT     H280913   1.912   0.373   2.550
26891WAT      O80914   6.310   3.470   2.448
26891WAT     H180915   6.384   3.408   2.422
26891WAT     H280916   6.254   3.427   2.519
26892WAT      O80917   8.297   5.549   4.124
26892WAT     H180918   8.391   5.577   4.104
26892WAT     H280919   8.295   5.450   4.140
26893WAT      O80920   7.012   7.473   4.148
26893WAT     H180921   6.996   7.465   4.246
26893WAT     H280922   7.100   7.431   4.126
26894WAT      O80923   9.299   0.030   2.757
26894WAT     H180924   9.372  -0.023   2.800
26894WAT     H280925   9.338   0.101   2.700
26895WAT      O80926   8.891   1.213   8.275
26895WAT     H180927   8.865   1.134   8.220
26895WAT     H280928   8.898   1.294   8.217
26896WAT      O80929   8.331   2.728   6.635
26896WAT     H180930   8.299   2.731   6.730
26896WAT     H280931   8.370   2.638   6.616
26897WAT      O80932   8.572   8.107   4.956
26897WAT     H180933   8.607   8.171   5.024
26897WAT     H280934   8.559   8.155   4.869
26898WAT      O80935   9.661   7.548   7.805
26898WAT     H180936   9.603   7.472   7.774
26898WAT     H280937   9.611   7.601   7.874
26899WAT      O80938   4.093   1.293   9.559
26899WAT     H180939   4.128   1.210   9.515
26899WAT     H280940   3.993   1.293   9.556
26900WAT      O80941   3.964   5.842   8.961
26900WAT     H180942   3.911   5.910   8.910
26900WAT     H280943   3.901   5.779   9.008
26901WAT      O80944   6.855   1.796   0.332
26901WAT     H180945   6.756   1.807   0.326
26901WAT     H280946   6.885   1.816   0.426
26902WAT      O80947   5.353   3.752   4.492
26902WAT     H180948   5.452   3.736   4.493
26902WAT     H280949   5.325   3.789   4.581
26903WAT      O80950   1.371   0.352   9.450
26903WAT     H180951   1.409   0.300   9.373
26903WAT     H280952   1.400   0.448   9.443
26904WAT      O80953   9.874   2.419   5.604
26904WAT     H180954   9.800   2.473   5.565
26904WAT     H280955   9.952   2.419   5.541
26905WAT      O80956   1.068   2.977   4.506
26905WAT     H180957   1.092   2.945   4.414
26905WAT     H280958   1.150   3.005   4.554
26906WAT      O80959   4.568   1.979   5.761
26906WAT     H180960   4.656   2.016   5.733
26906WAT     H280961   4.504   2.054   5.781
26907WAT      O80962   9.481   7.655   7.977
26907WAT     H180963   9.421   7.716   7.925
26907WAT     H280964   9.428   7.610   8.049
26908WAT      O80965   5.160   0.044   1.627
26908WAT     H180966   5.230  -0.003   1.573
26908WAT     H280967   5.204   0.101   1.697
26909WAT      O80968   4.008   8.589   0.631
26909WAT     H180969   4.022   8.633   0.719
26909WAT     H280970   3.911   8.583   0.611
26910WAT      O80971   1.862   0.508   5.412
26910WAT     H180972   1.900   0.542   5.326
26910WAT     H280973   1.935   0.473   5.470
26911WAT      O80974   6.241   0.721   1.757
26911WAT     H180975   6.143   0.729   1.741
26911WAT     H280976   6.285   0.675   1.680
26912WAT      O80977   8.738   2.546   0.902
26912WAT     H180978   8.722   2.642   0.924
26912WAT     H280979   8.785   2.502   0.978
26913WAT      O80980   1.884   8.672   0.146
26913WAT     H180981   1.959   8.738   0.151
26913WAT     H280982   1.911   8.594   0.091
26914WAT      O80983   6.488   7.271   1.617
26914WAT     H180984   6.392   7.244   1.620
26914WAT     H280985   6.522   7.261   1.524
26915WAT      O80986   7.921   8.882   1.586
26915WAT     H180987   7.829   8.916   1.608
26915WAT     H280988   7.913   8.804   1.524
26916WAT      O80989   2.260   1.653   8.285
26916WAT     H180990   2.359   1.652   8.297
26916WAT     H280991   2.237   1.686   8.194
26917WAT      O80992   5.730   4.116   6.501
26917WAT     H180993   5.750   4.211   6.525
26917WAT     H280994   5.687   4.114   6.410
26918WAT      O80995   4.517   8.496   3.083
26918WAT     H180996   4.440   8.523   3.024
26918WAT     H280997   4.600   8.543   3.053
26919WAT      O80998   7.708   3.327   1.726
26919WAT     H180999   7.706   3.400   1.794
26919WAT     H281000   7.798   3.285   1.723
26920WAT      O81001   1.776   8.307   1.520
26920WAT     H181002   1.843   8.284   1.590
26920WAT     H281003   1.821   8.306   1.430
26921WAT      O81004   4.570   1.732   1.621
26921WAT     H181005   4.500   1.672   1.583
26921WAT     H281006   4.621   1.684   1.691
26922WAT      O81007   0.783   8.462   2.501
26922WAT     H181008   0.689   8.482   2.475
26922WAT     H281009   0.834   8.432   2.420
26923WAT      O81010   4.139   6.093   9.566
26923WAT     H181011   4.231   6.132   9.559
26923WAT     H281012   4.072   6.163   9.541
26924WAT      O81013   9.352   4.982   2.056
26924WAT     H181014   9.305   4.962   2.142
26924WAT     H281015   9.293   5.040   1.999
26925WAT      O81016   0.048   8.367   1.540
26925WAT     H181017  -0.040   8.415   1.538
26925WAT     H281018   0.121   8.432   1.562
26926WAT      O81019   5.324   3.925   6.608
26926WAT     H181020   5.395   3.855   6.607
26926WAT     H281021   5.324   3.974   6.521
26927WAT      O81022   8.185   3.263   9.657
26927WAT     H181023   8.125   3.242   9.580
26927WAT     H281024   8.260   3.321   9.626
26928WAT      O81025   8.054   6.158   8.207
26928WAT     H181026   8.100   6.070   8.222
26928WAT     H281027   7.987   6.148   8.133
26929WAT      O81028   8.991   2.807   5.851
26929WAT     H181029   8.988   2.896   5.895
26929WAT     H281030   8.940   2.809   5.765
26930WAT      O81031   3.354   6.226   8.510
26930WAT     H181032   3.392   6.298   8.452
26930WAT     H281033   3.428   6.172   8.549
26931WAT      O81034   6.270   3.182   3.475
26931WAT     H181035   6.303   3.100   3.428
26931WAT     H281036   6.193   3.221   3.425
26932WAT      O81037   9.218   0.108   4.338
26932WAT     H181038   9.194   0.034   4.401
26932WAT     H281039   9.188   0.195   4.376
26933WAT      O81040   8.141   3.682   9.234
26933WAT     H181041   8.123   3.777   9.205
26933WAT     H281042   8.064   3.624   9.206
26934WAT      O81043   9.666   7.605   2.453
26934WAT     H181044   9.619   7.591   2.540
26934WAT     H281045   9.741   7.671   2.466
26935WAT      O81046   2.323   6.086   8.552
26935WAT     H181047   2.295   6.088   8.648
26935WAT     H281048   2.253   6.041   8.498
26936WAT      O81049   8.965   6.042   3.766
26936WAT     H181050   8.978   6.038   3.667
26936WAT     H281051   8.900   6.114   3.789
26937WAT      O81052   7.196   1.837   8.568
26937WAT     H181053   7.123   1.897   8.538
26937WAT     H281054   7.277   1.891   8.590
26938WAT      O81055   9.665   6.376   1.935
26938WAT     H181056   9.679   6.455   1.994
26938WAT     H281057   9.588   6.322   1.969
26939WAT      O81058   5.561   9.761   1.005
26939WAT     H181059   5.621   9.799   0.935
26939WAT     H281060   5.552   9.825   1.081
26940WAT      O81061   3.041   8.984   1.839
26940WAT     H181062   2.957   9.013   1.885
26940WAT     H281063   3.116   8.981   1.905
26941WAT      O81064   3.563   6.506   3.693
26941WAT     H181065   3.528   6.546   3.778
26941WAT     H281066   3.498   6.522   3.619
26942WAT      O81067   9.569   2.602   2.059
26942WAT     H181068   9.591   2.546   1.980
26942WAT     H281069   9.485   2.653   2.041
26943WAT      O81070   5.976   2.185   9.751
26943WAT     H181071   6.056   2.226   9.795
26943WAT     H281072   5.968   2.089   9.779
26944WAT      O81073   3.454   2.658   8.908
26944WAT     H181074   3.365   2.620   8.930
26944WAT     H281075   3.448   2.758   8.902
26945WAT      O81076   4.505   9.490   6.257
26945WAT     H181077   4.601   9.492   6.285
26945WAT     H281078   4.498   9.454   6.164
26946WAT      O81079   6.482   9.329   6.814
26946WAT     H181080   6.438   9.360   6.730
26946WAT     H281081   6.565   9.382   6.830
26947WAT      O81082   0.739   5.239   2.632
26947WAT     H181083   0.816   5.199   2.682
26947WAT     H281084   0.766   5.254   2.537
26948WAT      O81085   2.202   6.269   3.071
26948WAT     H181086   2.234   6.224   2.987
26948WAT     H281087   2.119   6.224   3.104
26949WAT      O81088   8.997   6.393   1.979
26949WAT     H181089   9.004   6.293   1.974
26949WAT     H281090   8.964   6.419   2.070
26950WAT      O81091   4.397   1.588   0.238
26950WAT     H181092   4.337   1.603   0.317
26950WAT     H281093   4.446   1.672   0.216
26951WAT      O81094   7.988   4.196   9.487
26951WAT     H181095   7.931   4.137   9.430
26951WAT     H281096   8.019   4.144   9.567
26952WAT      O81097   6.630   4.727   8.212
26952WAT     H181098   6.549   4.706   8.158
26952WAT     H281099   6.630   4.824   8.237
26953WAT      O81100   1.575   8.307   7.941
26953WAT     H181101   1.656   8.275   7.989
26953WAT     H281102   1.504   8.331   8.008
26954WAT      O81103   8.823   3.034   2.041
26954WAT     H181104   8.883   2.956   2.022
26954WAT     H281105   8.729   3.009   2.018
26955WAT      O81106   8.306   4.813   0.681
26955WAT     H181107   8.368   4.883   0.646
26955WAT     H281108   8.339   4.781   0.770
26956WAT      O81109   7.480   2.392   2.190
26956WAT     H181110   7.389   2.354   2.175
26956WAT     H281111   7.545   2.318   2.208
26957WAT      O81112   8.564   6.397   0.638
26957WAT     H181113   8.661   6.406   0.615
26957WAT     H281114   8.548   6.432   0.730
26958WAT      O81115   3.821   2.394   4.388
26958WAT     H181116   3.785   2.460   4.454
26958WAT     H281117   3.746   2.361   4.331
26959WAT      O81118   7.947   2.816   0.805
26959WAT     H181119   7.963   2.873   0.886
26959WAT     H281120   8.033   2.805   0.755
26960WAT      O81121   4.642   1.411   3.410
26960WAT     H181122   4.570   1.410   3.479
26960WAT     H281123   4.722   1.459   3.447
26961WAT      O81124   3.880   4.491   7.805
26961WAT     H181125   3.866   4.496   7.904
26961WAT     H281126   3.976   4.506   7.784
26962WAT      O81127   6.004   7.825   0.982
26962WAT     H181128   6.054   7.825   0.895
26962WAT     H281129   5.905   7.826   0.964
26963WAT      O81130   2.138   3.355   4.687
26963WAT     H181131   2.161   3.297   4.610
26963WAT     H281132   2.159   3.307   4.772
26964WAT      O81133   0.339   6.253   6.164
26964WAT     H181134   0.324   6.160   6.198
26964WAT     H281135   0.383   6.249   6.074
26965WAT      O81136   7.065   4.664   7.352
26965WAT     H181137   7.099   4.601   7.421
26965WAT     H281138   7.064   4.618   7.263
26966WAT      O81139   5.615   1.570   8.227
26966WAT     H181140   5.565   1.608   8.304
26966WAT     H281141   5.593   1.621   8.144
26967WAT      O81142   0.588   7.092   0.490
26967WAT     H181143   0.557   7.056   0.402
26967WAT     H281144   0.648   7.025   0.534
26968WAT      O81145   4.558   2.151   6.391
26968WAT     H181146   4.506   2.212   6.332
26968WAT     H281147   4.649   2.136   6.352
26969WAT      O81148   6.929   6.321   9.720
26969WAT     H181149   7.002   6.285   9.662
26969WAT     H281150   6.841   6.311   9.672
26970WAT      O81151   8.143   9.373   5.672
26970WAT     H181152   8.093   9.300   5.718
26970WAT     H281153   8.129   9.365   5.573
26971WAT      O81154   7.364   6.250   0.871
26971WAT     H181155   7.339   6.181   0.803
26971WAT     H281156   7.454   6.229   0.909
26972WAT      O81157   2.522   2.175   1.619
26972WAT     H181158   2.488   2.188   1.713
26972WAT     H281159   2.474   2.237   1.557
26973WAT      O81160   7.732   2.903   2.634
26973WAT     H181161   7.672   2.852   2.696
26973WAT     H281162   7.814   2.931   2.684
26974WAT      O81163   2.651   5.564   4.704
26974WAT     H181164   2.638   5.663   4.706
26974WAT     H281165   2.730   5.542   4.647
26975WAT      O81166   3.011   7.171   9.364
26975WAT     H181167   2.976   7.259   9.332
26975WAT     H281168   3.103   7.184   9.402
26976WAT      O81169   4.379   0.686   4.597
26976WAT     H181170   4.419   0.775   4.616
26976WAT     H281171   4.420   0.617   4.658
26977WAT      O81172   6.082   2.302   6.002
26977WAT     H181173   6.087   2.202   5.993
26977WAT     H281174   6.174   2.339   6.015
26978WAT      O81175   8.146   7.691   0.402
26978WAT     H181176   8.078   7.640   0.454
26978WAT     H281177   8.232   7.639   0.399
26979WAT      O81178   3.246   4.305   2.508
26979WAT     H181179   3.181   4.370   2.469
26979WAT     H281180   3.330   4.306   2.453
26980WAT      O81181   1.833   1.429   9.558
26980WAT     H181182   1.887   1.346   9.543
26980WAT     H281183   1.750   1.406   9.609
26981WAT      O81184   1.288   9.453   2.097
26981WAT     H181185   1.263   9.362   2.064
26981WAT     H281186   1.276   9.520   2.024
26982WAT      O81187   4.529   9.309   2.395
26982WAT     H181188   4.616   9.338   2.356
26982WAT     H281189   4.542   9.283   2.491
26983WAT      O81190   6.006   9.735   7.553
26983WAT     H181191   6.059   9.734   7.638
26983WAT     H281192   6.066   9.757   7.476
26984WAT      O81193   1.274   1.583   3.079
26984WAT     H181194   1.260   1.574   2.981
26984WAT     H281195   1.369   1.610   3.097
26985WAT      O81196   4.976   7.384   3.666
26985WAT     H181197   4.974   7.299   3.614
26985WAT     H281198   5.025   7.454   3.613
26986WAT      O81199   1.936   9.695   6.008
26986WAT     H181200   1.860   9.635   6.032
26986WAT     H281201   1.911   9.750   5.929
26987WAT      O81202   1.950   7.804   6.772
26987WAT     H181203   2.030   7.783   6.829
26987WAT     H281204   1.976   7.797   6.676
26988WAT      O81205   3.363   9.222   9.012
26988WAT     H181206   3.282   9.164   9.019
26988WAT     H281207   3.393   9.227   8.916
26989WAT      O81208   8.088   2.680   8.041
26989WAT     H181209   8.062   2.642   8.130
26989WAT     H281210   8.014   2.666   7.975
26990WAT      O81211   0.738   4.228   4.637
26990WAT     H181212   0.656   4.259   4.686
26990WAT     H281213   0.732   4.258   4.542
26991WAT      O81214   5.405   0.925   6.633
26991WAT     H181215   5.447   0.993   6.573
26991WAT     H281216   5.440   0.936   6.726
26992WAT      O81217   6.991   9.252   6.025
26992WAT     H181218   7.010   9.342   6.063
26992WAT     H281219   6.934   9.262   5.943
26993WAT      O81220   9.616   7.909   5.177
26993WAT     H181221   9.534   7.854   5.192
26993WAT     H281222   9.604   7.999   5.217
26994WAT      O81223   4.875   2.382   4.652
26994WAT     H181224   4.911   2.440   4.579
26994WAT     H281225   4.791   2.422   4.688
26995WAT      O81226   7.901   7.260   4.107
26995WAT     H181227   7.918   7.358   4.108
26995WAT     H281228   7.805   7.243   4.087
26996WAT      O81229   7.415   0.307   6.732
26996WAT     H181230   7.469   0.254   6.797
26996WAT     H281231   7.456   0.300   6.641
26997WAT      O81232   7.910   7.406   1.267
26997WAT     H181233   7.841   7.347   1.307
26997WAT     H281234   7.866   7.481   1.218
26998WAT      O81235   9.822   9.645   8.130
26998WAT     H181236   9.738   9.657   8.184
26998WAT     H281237   9.852   9.550   8.138
26999WAT      O81238   3.872   5.934   1.184
26999WAT     H181239   3.860   5.959   1.088
26999WAT     H281240   3.822   5.998   1.242
27000WAT      O81241   5.619   2.957   6.444
27000WAT     H181242   5.660   3.009   6.519
27000WAT     H281243   5.627   3.008   6.359
27001WAT      O81244   2.432   8.470   7.524
27001WAT     H181245   2.402   8.495   7.432
27001WAT     H281246   2.394   8.380   7.547
27002WAT      O81247   2.438   0.650   4.649
27002WAT     H181248   2.479   0.571   4.603
27002WAT     H281249   2.499   0.680   4.723
27003WAT      O81250   1.293   8.142   7.563
27003WAT     H181251   1.234   8.200   7.619
27003WAT     H281252   1.242   8.063   7.530
27004WAT      O81253   0.917   7.641   4.150
27004WAT     H181254   0.944   7.715   4.088
27004WAT     H281255   0.886   7.681   4.237
27005WAT      O81256   7.236   6.396   1.646
27005WAT     H181257   7.328   6.366   1.671
27005WAT     H281258   7.176   6.393   1.726
27006WAT      O81259   7.776   6.413   8.893
27006WAT     H181260   7.754   6.369   8.806
27006WAT     H281261   7.870   6.448   8.890
27007WAT      O81262   4.125   6.194   1.172
27007WAT     H181263   4.074   6.274   1.203
27007WAT     H281264   4.100   6.115   1.228
27008WAT      O81265   0.303   5.835   2.279
27008WAT     H181266   0.397   5.844   2.310
27008WAT     H281267   0.292   5.879   2.190
27009WAT      O81268   7.071   0.281   6.973
27009WAT     H181269   7.005   0.205   6.976
27009WAT     H281270   7.119   0.281   6.886
27010WAT      O81271   5.346   9.356   4.151
27010WAT     H181272   5.270   9.330   4.211
27010WAT     H281273   5.312   9.411   4.076
27011WAT      O81274   3.360   9.587   2.552
27011WAT     H181275   3.460   9.595   2.545
27011WAT     H281276   3.335   9.491   2.565
27012WAT      O81277   2.586   8.137   8.232
27012WAT     H181278   2.681   8.105   8.223
27012WAT     H281279   2.530   8.066   8.273
27013WAT      O81280   2.742   2.930   8.753
27013WAT     H181281   2.698   2.842   8.736
27013WAT     H281282   2.684   3.003   8.718
27014WAT      O81283   3.651   4.177   5.665
27014WAT     H181284   3.585   4.208   5.598
27014WAT     H281285   3.679   4.083   5.645
27015WAT      O81286   3.976   9.222   8.298
27015WAT     H181287   3.925   9.290   8.351
27015WAT     H281288   4.035   9.170   8.359
27016WAT      O81289   8.518   4.388   4.234
27016WAT     H181290   8.422   4.387   4.207
27016WAT     H281291   8.554   4.294   4.233
27017WAT      O81292   4.492   2.675   8.834
27017WAT     H181293   4.474   2.587   8.791
27017WAT     H281294   4.469   2.670   8.932
27018WAT      O81295   6.538   4.597   9.471
27018WAT     H181296   6.456   4.637   9.431
27018WAT     H281297   6.573   4.525   9.411
27019WAT      O81298   5.589   8.135   7.558
27019WAT     H181299   5.507   8.154   7.504
27019WAT     H281300   5.564   8.118   7.653
27020WAT      O81301   6.216   7.525   6.203
27020WAT     H181302   6.160   7.581   6.264
27020WAT     H281303   6.187   7.541   6.109
27021WAT      O81304   1.642   0.100   1.721
27021WAT     H181305   1.595   0.174   1.769
27021WAT     H281306   1.580   0.022   1.709
27022WAT      O81307   6.116   7.003   6.893
27022WAT     H181308   6.133   6.950   6.810
27022WAT     H281309   6.052   6.954   6.952
27023WAT      O81310   8.573   4.586   8.834
27023WAT     H181311   8.525   4.499   8.842
27023WAT     H281312   8.581   4.612   8.738
27024WAT      O81313   7.960   8.175   4.675
27024WAT     H181314   8.025   8.223   4.734
27024WAT     H281315   7.867   8.196   4.704
27025WAT      O81316   1.302   2.093   5.857
27025WAT     H181317   1.219   2.137   5.823
27025WAT     H281318   1.381   2.150   5.835
27026WAT      O81319   1.844   6.517   4.439
27026WAT     H181320   1.913   6.572   4.390
27026WAT     H281321   1.853   6.533   4.537
27027WAT      O81322   6.513   1.804   8.290
27027WAT     H181323   6.413   1.807   8.286
27027WAT     H281324   6.544   1.709   8.280
27028WAT      O81325   9.249   4.274   2.350
27028WAT     H181326   9.346   4.262   2.369
27028WAT     H281327   9.227   4.372   2.350
27029WAT      O81328   1.088   6.846   9.038
27029WAT     H181329   1.012   6.784   9.019
27029WAT     H281330   1.173   6.807   9.001
27030WAT      O81331   4.184   3.291   3.631
27030WAT     H181332   4.101   3.238   3.614
27030WAT     H281333   4.161   3.388   3.638
27031WAT      O81334   1.984   2.294   3.048
27031WAT     H181335   1.901   2.246   3.021
27031WAT     H281336   2.060   2.229   3.053
27032WAT      O81337   4.342   1.271   4.851
27032WAT     H181338   4.292   1.184   4.848
27032WAT     H281339   4.345   1.304   4.945
27033WAT      O81340   7.455   5.913   4.408
27033WAT     H181341   7.393   5.989   4.390
27033WAT     H281342   7.540   5.949   4.447
27034WAT      O81343   0.310   1.035   0.511
27034WAT     H181344   0.370   0.998   0.581
27034WAT     H281345   0.232   1.080   0.553
27035WAT      O81346   9.149   9.337   5.326
27035WAT     H181347   9.216   9.363   5.396
27035WAT     H281348   9.118   9.419   5.277
27036WAT      O81349   3.669   2.801   2.894
27036WAT     H181350   3.727   2.861   2.949
27036WAT     H281351   3.722   2.766   2.816
27037WAT      O81352   8.561   5.417   6.933
27037WAT     H181353   8.508   5.402   7.016
27037WAT     H281354   8.566   5.332   6.880
27038WAT      O81355   6.443   6.204   6.958
27038WAT     H181356   6.473   6.109   6.969
27038WAT     H281357   6.367   6.207   6.894
27039WAT      O81358   6.626   9.080   6.947
27039WAT     H181359   6.590   9.159   6.898
27039WAT     H281360   6.709   9.048   6.902
27040WAT      O81361   4.081   8.352   0.532
27040WAT     H181362   4.061   8.436   0.583
27040WAT     H281363   4.136   8.291   0.589
27041WAT      O81364   0.401   7.917   2.357
27041WAT     H181365   0.435   7.841   2.413
27041WAT     H281366   0.460   7.927   2.276
27042WAT      O81367   6.454   8.606   9.498
27042WAT     H181368   6.526   8.650   9.551
27042WAT     H281369   6.467   8.507   9.500
27043WAT      O81370   5.799   6.777   0.920
27043WAT     H181371   5.707   6.750   0.892
27043WAT     H281372   5.795   6.820   1.010
27044WAT      O81373   3.832   5.887   3.860
27044WAT     H181374   3.863   5.971   3.814
27044WAT     H281375   3.805   5.820   3.791
27045WAT      O81376   0.119   6.523   7.011
27045WAT     H181377   0.029   6.567   7.011
27045WAT     H281378   0.144   6.496   6.918
27046WAT      O81379   4.147   2.486   4.034
27046WAT     H181380   4.053   2.455   4.047
27046WAT     H281381   4.196   2.422   3.975
27047WAT      O81382   5.762   0.751   5.926
27047WAT     H181383   5.730   0.660   5.902
27047WAT     H281384   5.700   0.820   5.888
27048WAT      O81385   6.460   0.315   1.997
27048WAT     H181386   6.369   0.303   2.039
27048WAT     H281387   6.494   0.406   2.018
27049WAT      O81388   8.036   4.618   7.610
27049WAT     H181389   8.032   4.705   7.660
27049WAT     H281390   8.036   4.635   7.512
27050WAT      O81391   2.552   8.200   4.271
27050WAT     H181392   2.473   8.224   4.216
27050WAT     H281393   2.540   8.108   4.310
27051WAT      O81394   2.535   2.985   4.853
27051WAT     H181395   2.619   2.947   4.814
27051WAT     H281396   2.557   3.042   4.932
27052WAT      O81397   6.143   3.593   2.849
27052WAT     H181398   6.170   3.517   2.791
27052WAT     H281399   6.139   3.677   2.794
27053WAT      O81400   5.982   1.182   5.772
27053WAT     H181401   5.886   1.187   5.801
27053WAT     H281402   5.993   1.230   5.686
27054WAT      O81403   5.584   1.863   1.870
27054WAT     H181404   5.670   1.849   1.819
27054WAT     H281405   5.601   1.853   1.968
27055WAT      O81406   8.592   7.138   8.145
27055WAT     H181407   8.532   7.058   8.137
27055WAT     H281408   8.678   7.120   8.097
27056WAT      O81409   0.163   3.842   2.704
27056WAT     H181410   0.150   3.746   2.729
27056WAT     H281411   0.090   3.898   2.744
27057WAT      O81412   0.648   7.115   2.878
27057WAT     H181413   0.693   7.120   2.967
27057WAT     H281414   0.560   7.161   2.883
27058WAT      O81415   4.804   3.753   9.242
27058WAT     H181416   4.744   3.828   9.272
27058WAT     H281417   4.815   3.757   9.143
27059WAT      O81418   7.906   7.301   3.121
27059WAT     H181419   7.956   7.386   3.106
27059WAT     H281420   7.877   7.296   3.217
27060WAT      O81421   0.477   2.955   5.868
27060WAT     H181422   0.569   2.929   5.898
27060WAT     H281423   0.413   2.945   5.945
27061WAT      O81424   5.843   0.487   4.495
27061WAT     H181425   5.875   0.403   4.539
27061WAT     H281426   5.851   0.564   4.559
27062WAT      O81427   0.341   6.514   4.009
27062WAT     H181428   0.330   6.561   4.097
27062WAT     H281429   0.326   6.579   3.935
27063WAT      O81430   7.727   6.922   9.530
27063WAT     H181431   7.758   7.014   9.505
27063WAT     H281432   7.780   6.854   9.480
27064WAT      O81433   3.492   6.669   1.706
27064WAT     H181434   3.491   6.611   1.788
27064WAT     H281435   3.480   6.612   1.625
27065WAT      O81436   7.867   9.689   2.721
27065WAT     H181437   7.797   9.742   2.768
27065WAT     H281438   7.854   9.697   2.622
27066WAT      O81439   1.752   5.016   5.945
27066WAT     H181440   1.726   5.111   5.924
27066WAT     H281441   1.755   4.963   5.860
27067WAT      O81442   2.070   9.615   2.052
27067WAT     H181443   2.063   9.522   2.016
27067WAT     H281444   2.148   9.622   2.113
27068WAT      O81445   4.113   3.144   1.908
27068WAT     H181446   4.149   3.110   1.995
27068WAT     H281447   4.119   3.073   1.838
27069WAT      O81448   6.310   1.533   0.567
27069WAT     H181449   6.263   1.522   0.655
27069WAT     H281450   6.357   1.448   0.543
27070WAT      O81451   7.854   5.486   5.872
27070WAT     H181452   7.800   5.533   5.942
27070WAT     H281453   7.867   5.391   5.900
27071WAT      O81454   7.644   7.450   6.387
27071WAT     H181455   7.661   7.481   6.481
27071WAT     H281456   7.570   7.504   6.347
27072WAT      O81457   7.146   2.904   7.379
27072WAT     H181458   7.096   2.888   7.464
27072WAT     H281459   7.083   2.899   7.301
27073WAT      O81460   4.069   5.060   3.387
27073WAT     H181461   4.061   5.122   3.465
27073WAT     H281462   4.004   5.088   3.316
27074WAT      O81463   7.527   3.397   2.194
27074WAT     H181464   7.466   3.340   2.139
27074WAT     H281465   7.520   3.371   2.290
27075WAT      O81466   8.786   3.926   6.637
27075WAT     H181467   8.858   3.866   6.602
27075WAT     H281468   8.749   3.887   6.722
27076WAT      O81469   8.763   9.258   4.596
27076WAT     H181470   8.844   9.239   4.541
27076WAT     H281471   8.715   9.173   4.616
27077WAT      O81472   9.233   5.916   8.825
27077WAT     H181473   9.179   5.929   8.742
27077WAT     H281474   9.191   5.967   8.900
27078WAT      O81475   3.442   5.655   8.493
27078WAT     H181476   3.395   5.598   8.559
27078WAT     H281477   3.502   5.719   8.542
27079WAT      O81478   4.559   0.994   9.077
27079WAT     H181479   4.531   0.925   9.010
27079WAT     H281480   4.527   0.965   9.168
27080WAT      O81481   5.624   4.105   8.681
27080WAT     H181482   5.599   4.042   8.607
27080WAT     H281483   5.551   4.172   8.693
27081WAT      O81484   8.103   6.222   3.394
27081WAT     H181485   8.198   6.189   3.392
27081WAT     H281486   8.096   6.297   3.460
27082WAT      O81487   8.052   5.551   7.341
27082WAT     H181488   8.048   5.643   7.303
27082WAT     H281489   7.961   5.524   7.372
27083WAT      O81490   5.143   2.483   9.739
27083WAT     H181491   5.149   2.474   9.639
27083WAT     H281492   5.126   2.578   9.762
27084WAT      O81493   5.897   8.879   3.850
27084WAT     H181494   5.855   8.803   3.900
27084WAT     H281495   5.835   8.957   3.850
27085WAT      O81496   5.012   2.959   0.017
27085WAT     H181497   5.014   3.056  -0.008
27085WAT     H281498   4.975   2.950   0.110
27086WAT      O81499   3.827   8.476   0.164
27086WAT     H181500   3.808   8.567   0.199
27086WAT     H281501   3.913   8.441   0.203
27087WAT      O81502   2.591   2.002   7.916
27087WAT     H181503   2.661   1.981   7.984
27087WAT     H281504   2.504   2.017   7.961
27088WAT      O81505   5.589   9.680   8.301
27088WAT     H181506   5.562   9.732   8.220
27088WAT     H281507   5.662   9.729   8.350
27089WAT      O81508   1.642   8.142   3.086
27089WAT     H181509   1.647   8.158   2.988
27089WAT     H281510   1.691   8.214   3.135
27090WAT      O81511   4.861   8.220   2.303
27090WAT     H181512   4.933   8.201   2.237
27090WAT     H281513   4.900   8.269   2.382
27091WAT      O81514   5.272   8.482   6.105
27091WAT     H181515   5.212   8.503   6.182
27091WAT     H281516   5.326   8.563   6.082
27092WAT      O81517   8.623   8.498   2.418
27092WAT     H181518   8.584   8.406   2.429
27092WAT     H281519   8.682   8.499   2.337
27093WAT      O81520   1.293   8.793   2.607
27093WAT     H181521   1.368   8.858   2.619
27093WAT     H281522   1.266   8.791   2.511
27094WAT      O81523   9.312   3.308   8.240
27094WAT     H181524   9.398   3.259   8.251
27094WAT     H281525   9.242   3.266   8.297
27095WAT      O81526   7.690   6.458   5.826
27095WAT     H181527   7.661   6.509   5.744
27095WAT     H281528   7.786   6.477   5.844
27096WAT      O81529   5.981   9.692   0.976
27096WAT     H181530   6.014   9.652   1.061
27096WAT     H281531   5.911   9.633   0.936
27097WAT      O81532   5.252   8.512   8.210
27097WAT     H181533   5.299   8.424   8.201
27097WAT     H281534   5.287   8.561   8.290
27098WAT      O81535   2.867   4.174   8.384
27098WAT     H181536   2.924   4.197   8.463
27098WAT     H281537   2.771   4.170   8.411
27099WAT      O81538   8.248   8.197   9.362
27099WAT     H181539   8.310   8.125   9.329
27099WAT     H281540   8.295   8.285   9.360
27100WAT      O81541   6.564   9.727   3.531
27100WAT     H181542   6.532   9.682   3.615
27100WAT     H281543   6.497   9.794   3.501
27101WAT      O81544   6.955   7.424   7.921
27101WAT     H181545   6.873   7.391   7.874
27101WAT     H281546   7.036   7.390   7.873
27102WAT      O81547   6.542   6.651   5.749
27102WAT     H181548   6.501   6.737   5.719
27102WAT     H281549   6.603   6.616   5.678
27103WAT      O81550   4.762   9.145   3.156
27103WAT     H181551   4.860   9.157   3.141
27103WAT     H281552   4.740   9.167   3.251
27104WAT      O81553   3.341   8.728   3.456
27104WAT     H181554   3.243   8.707   3.456
27104WAT     H281555   3.356   8.817   3.498
27105WAT      O81556   1.612   9.747   3.014
27105WAT     H181557   1.535   9.686   2.995
27105WAT     H281558   1.599   9.791   3.103
27106WAT      O81559   5.964   2.096   3.688
27106WAT     H181560   5.930   2.089   3.594
27106WAT     H281561   6.020   2.017   3.710
27107WAT      O81562   4.273   1.664   7.886
27107WAT     H181563   4.348   1.642   7.948
27107WAT     H281564   4.310   1.694   7.798
27108WAT      O81565   1.872   6.691   6.018
27108WAT     H181566   1.898   6.605   5.976
27108WAT     H281567   1.953   6.748   6.032
27109WAT      O81568   5.794   3.540   7.502
27109WAT     H181569   5.840   3.613   7.451
27109WAT     H281570   5.809   3.453   7.456
27110WAT      O81571   7.441   7.925   1.897
27110WAT     H181572   7.506   7.993   1.932
27110WAT     H281573   7.413   7.864   1.971
27111WAT      O81574   1.681   8.906   5.144
27111WAT     H181575   1.614   8.832   5.143
27111WAT     H281576   1.647   8.980   5.201
27112WAT      O81577   4.683   1.215   9.159
27112WAT     H181578   4.646   1.126   9.133
27112WAT     H281579   4.612   1.269   9.204
27113WAT      O81580   8.199   9.273   7.299
27113WAT     H181581   8.262   9.250   7.226
27113WAT     H281582   8.234   9.351   7.351
27114WAT      O81583   1.042   4.124   7.336
27114WAT     H181584   1.043   4.212   7.384
27114WAT     H281585   1.122   4.118   7.277
27115WAT      O81586   0.845   9.764   9.397
27115WAT     H181587   0.765   9.726   9.350
27115WAT     H281588   0.835   9.863   9.405
27116WAT      O81589   8.631   0.097   3.702
27116WAT     H181590   8.565   0.091   3.777
27116WAT     H281591   8.652   0.005   3.668
27117WAT      O81592   4.601   7.241   8.586
27117WAT     H181593   4.586   7.303   8.509
27117WAT     H281594   4.691   7.199   8.580
27118WAT      O81595   4.513   4.903   0.014
27118WAT     H181596   4.416   4.899  -0.011
27118WAT     H281597   4.560   4.821  -0.021
27119WAT      O81598   6.185   0.024   1.974
27119WAT     H181599   6.154   0.103   2.028
27119WAT     H281600   6.160  -0.060   2.021
27120WAT      O81601   3.655   6.086   6.723
27120WAT     H181602   3.742   6.122   6.689
27120WAT     H281603   3.648   6.103   6.822
27121WAT      O81604   5.315   5.788   3.816
27121WAT     H181605   5.393   5.782   3.878
27121WAT     H281606   5.318   5.711   3.752
27122WAT      O81607   9.606   5.531   0.571
27122WAT     H181608   9.702   5.532   0.545
27122WAT     H281609   9.596   5.561   0.666
27123WAT      O81610   0.651   9.428   9.668
27123WAT     H181611   0.571   9.402   9.614
27123WAT     H281612   0.731   9.434   9.608
27124WAT      O81613   5.478   2.166   2.455
27124WAT     H181614   5.559   2.128   2.500
27124WAT     H281615   5.412   2.093   2.438
27125WAT      O81616   4.513   9.460   5.034
27125WAT     H181617   4.544   9.526   5.102
27125WAT     H281618   4.591   9.404   5.004
27126WAT      O81619   1.353   4.681   6.255
27126WAT     H181620   1.273   4.679   6.194
27126WAT     H281621   1.360   4.594   6.303
27127WAT      O81622   5.842   5.289   1.919
27127WAT     H181623   5.831   5.386   1.896
27127WAT     H281624   5.778   5.265   1.992
27128WAT      O81625   5.011   1.871   9.588
27128WAT     H181626   5.087   1.818   9.627
27128WAT     H281627   4.944   1.891   9.659
27129WAT      O81628   8.089   1.034   5.754
27129WAT     H181629   8.026   0.960   5.777
27129WAT     H281630   8.139   1.062   5.836
27130WAT      O81631   2.805   7.154   4.429
27130WAT     H181632   2.708   7.173   4.420
27130WAT     H281633   2.858   7.233   4.395
27131WAT      O81634   0.599   5.714   0.487
27131WAT     H181635   0.688   5.687   0.524
27131WAT     H281636   0.566   5.645   0.423
27132WAT      O81637   0.865   8.910   5.283
27132WAT     H181638   0.909   8.993   5.318
27132WAT     H281639   0.798   8.935   5.214
27133WAT      O81640   0.211   1.020   0.068
27133WAT     H181641   0.115   1.046   0.077
27133WAT     H281642   0.263   1.098   0.032
27134WAT      O81643   5.112   4.655   9.717
27134WAT     H181644   5.086   4.679   9.811
27134WAT     H281645   5.158   4.732   9.674
27135WAT      O81646   9.529   7.072   8.350
27135WAT     H181647   9.622   7.087   8.316
27135WAT     H281648   9.533   7.034   8.442
27136WAT      O81649   2.218   5.894   2.842
27136WAT     H181650   2.267   5.980   2.859
27136WAT     H281651   2.144   5.911   2.777
27137WAT      O81652   1.982   3.994   9.778
27137WAT     H181653   1.937   3.907   9.795
27137WAT     H281654   1.986   4.047   9.863
27138WAT      O81655   1.458   2.855   7.937
27138WAT     H181656   1.400   2.840   8.017
27138WAT     H281657   1.424   2.799   7.861
27139WAT      O81658   0.907   0.463   9.723
27139WAT     H181659   0.896   0.462   9.823
27139WAT     H281660   0.917   0.369   9.690
27140WAT      O81661   2.136   5.620   8.309
27140WAT     H181662   2.195   5.548   8.273
27140WAT     H281663   2.046   5.582   8.332
27141WAT      O81664   2.587   1.602   6.663
27141WAT     H181665   2.681   1.570   6.677
27141WAT     H281666   2.545   1.621   6.751
27142WAT      O81667   8.775   2.874   4.147
27142WAT     H181668   8.872   2.849   4.147
27142WAT     H281669   8.720   2.790   4.143
27143WAT      O81670   9.338   9.102   2.940
27143WAT     H181671   9.290   9.137   2.860
27143WAT     H281672   9.299   9.143   3.023
27144WAT      O81673   4.865   7.448   1.558
27144WAT     H181674   4.876   7.482   1.465
27144WAT     H281675   4.804   7.508   1.609
27145WAT      O81676   2.654   1.537   2.118
27145WAT     H181677   2.593   1.615   2.103
27145WAT     H281678   2.749   1.568   2.117
27146WAT      O81679   5.076   1.395   9.723
27146WAT     H181680   5.163   1.390   9.773
27146WAT     H281681   5.093   1.412   9.626
27147WAT      O81682   2.609   5.688   9.866
27147WAT     H181683   2.704   5.659   9.853
27147WAT     H281684   2.607   5.781   9.901
27148WAT      O81685   8.715   2.128   2.949
27148WAT     H181686   8.777   2.120   2.871
27148WAT     H281687   8.767   2.126   3.034
27149WAT      O81688   7.191   8.156   0.844
27149WAT     H181689   7.141   8.095   0.783
27149WAT     H281690   7.144   8.244   0.849
27150WAT      O81691   1.797   3.565   9.241
27150WAT     H181692   1.881   3.525   9.203
27150WAT     H281693   1.768   3.512   9.321
27151WAT      O81694   5.498   7.189   8.503
27151WAT     H181695   5.413   7.242   8.511
27151WAT     H281696   5.505   7.125   8.580
27152WAT      O81697   0.622   8.825   6.236
27152WAT     H181698   0.623   8.925   6.225
27152WAT     H281699   0.531   8.790   6.214
27153WAT      O81700   3.024   8.447   0.335
27153WAT     H181701   3.007   8.436   0.237
27153WAT     H281702   3.087   8.375   0.366
27154WAT      O81703   8.623   0.314   4.660
27154WAT     H181704   8.531   0.276   4.659
27154WAT     H281705   8.690   0.239   4.656
27155WAT      O81706   2.610   6.874   9.706
27155WAT     H181707   2.571   6.956   9.748
27155WAT     H281708   2.541   6.828   9.650
27156WAT      O81709   4.652   0.851   4.123
27156WAT     H181710   4.741   0.893   4.139
27156WAT     H281711   4.579   0.911   4.157
27157WAT      O81712   8.292   8.538   1.874
27157WAT     H181713   8.338   8.454   1.901
27157WAT     H281714   8.258   8.585   1.955
27158WAT      O81715   7.864   6.021   7.195
27158WAT     H181716   7.890   6.118   7.199
27158WAT     H281717   7.769   6.011   7.224
27159WAT      O81718   0.255   1.589   9.058
27159WAT     H181719   0.302   1.659   9.111
27159WAT     H281720   0.293   1.499   9.080
27160WAT      O81721   7.094   4.900   2.593
27160WAT     H181722   7.002   4.926   2.562
27160WAT     H281723   7.153   4.883   2.514
27161WAT      O81724   9.418   6.110   1.741
27161WAT     H181725   9.518   6.114   1.744
27161WAT     H281726   9.383   6.186   1.685
27162WAT      O81727   7.753   8.735   4.226
27162WAT     H181728   7.744   8.655   4.287
27162WAT     H281729   7.710   8.814   4.269
27163WAT      O81730   3.891   8.345   7.936
27163WAT     H181731   3.831   8.384   8.006
27163WAT     H281732   3.840   8.277   7.883
27164WAT      O81733   9.005   4.101   4.571
27164WAT     H181734   9.105   4.111   4.574
27164WAT     H281735   8.977   4.029   4.634
27165WAT      O81736   8.186   3.877   4.254
27165WAT     H181737   8.155   3.826   4.175
27165WAT     H281738   8.191   3.975   4.231
27166WAT      O81739   5.166   2.215   9.140
27166WAT     H181740   5.193   2.197   9.045
27166WAT     H281741   5.125   2.132   9.179
27167WAT      O81742   7.845   6.590   5.105
27167WAT     H181743   7.920   6.523   5.105
27167WAT     H281744   7.832   6.624   5.012
27168WAT      O81745   3.883   6.224   6.625
27168WAT     H181746   3.883   6.311   6.676
27168WAT     H281747   3.926   6.238   6.536
27169WAT      O81748   2.304   6.454   9.527
27169WAT     H181749   2.217   6.456   9.576
27169WAT     H281750   2.298   6.513   9.447
27170WAT      O81751   4.896   1.797   3.948
27170WAT     H181752   4.939   1.783   3.859
27170WAT     H281753   4.846   1.883   3.948
27171WAT      O81754   4.682   8.005   6.124
27171WAT     H181755   4.597   7.969   6.162
27171WAT     H281756   4.703   7.958   6.039
27172WAT      O81757   1.370   3.418   9.890
27172WAT     H181758   1.349   3.321   9.906
27172WAT     H281759   1.317   3.451   9.813
27173WAT      O81760   6.144   8.599   3.856
27173WAT     H181761   6.074   8.631   3.792
27173WAT     H281762   6.214   8.669   3.867
27174WAT      O81763   3.823   1.500   4.818
27174WAT     H181764   3.829   1.559   4.738
27174WAT     H281765   3.763   1.422   4.798
27175WAT      O81766   6.143   0.188   6.481
27175WAT     H181767   6.130   0.140   6.568
27175WAT     H281768   6.077   0.263   6.474
27176WAT      O81769   6.374   8.436   4.195
27176WAT     H181770   6.408   8.528   4.178
27176WAT     H281771   6.408   8.374   4.124
27177WAT      O81772   5.210   7.381   1.383
27177WAT     H181773   5.274   7.361   1.309
27177WAT     H281774   5.131   7.320   1.375
27178WAT      O81775   2.806   5.968   1.820
27178WAT     H181776   2.846   6.042   1.873
27178WAT     H281777   2.774   6.003   1.732
27179WAT      O81778   5.576   0.386   4.475
27179WAT     H181779   5.509   0.398   4.401
27179WAT     H281780   5.656   0.442   4.457
27180WAT      O81781   2.566   7.285   7.798
27180WAT     H181782   2.608   7.280   7.889
27180WAT     H281783   2.589   7.373   7.756
27181WAT      O81784   8.604   9.025   9.330
27181WAT     H181785   8.548   9.108   9.331
27181WAT     H281786   8.700   9.049   9.337
27182WAT      O81787   4.401   4.700   9.627
27182WAT     H181788   4.489   4.716   9.670
27182WAT     H281789   4.361   4.615   9.660
27183WAT      O81790   3.903   5.500   6.340
27183WAT     H181791   3.825   5.443   6.367
27183WAT     H281792   3.879   5.551   6.257
27184WAT      O81793   9.340   0.310   7.538
27184WAT     H181794   9.367   0.397   7.579
27184WAT     H281795   9.386   0.235   7.585
27185WAT      O81796   9.469   1.976   1.575
27185WAT     H181797   9.479   2.074   1.562
27185WAT     H281798   9.465   1.931   1.486
27186WAT      O81799   8.725   1.595   7.842
27186WAT     H181800   8.694   1.542   7.763
27186WAT     H281801   8.647   1.620   7.898
27187WAT      O81802   0.673   4.026   6.565
27187WAT     H181803   0.599   3.963   6.586
27187WAT     H281804   0.636   4.116   6.545
27188WAT      O81805   1.702   5.624   4.258
27188WAT     H181806   1.758   5.544   4.278
27188WAT     H281807   1.689   5.631   4.159
27189WAT      O81808   8.424   1.119   9.003
27189WAT     H181809   8.351   1.169   9.049
27189WAT     H281810   8.412   1.021   9.018
27190WAT      O81811   6.883   5.057   6.096
27190WAT     H181812   6.829   5.040   6.178
27190WAT     H281813   6.836   5.020   6.016
27191WAT      O81814   7.602   3.244   3.281
27191WAT     H181815   7.685   3.247   3.337
27191WAT     H281816   7.618   3.293   3.195
27192WAT      O81817   8.688   3.734   9.890
27192WAT     H181818   8.602   3.704   9.847
27192WAT     H281819   8.753   3.760   9.818
27193WAT      O81820   1.596   9.444   2.772
27193WAT     H181821   1.529   9.497   2.719
27193WAT     H281822   1.684   9.446   2.726
27194WAT      O81823   9.811   9.623   9.716
27194WAT     H181824   9.716   9.634   9.745
27194WAT     H281825   9.869   9.606   9.795
27195WAT      O81826   4.400   6.113   5.405
27195WAT     H181827   4.450   6.071   5.330
27195WAT     H281828   4.459   6.179   5.452
27196WAT      O81829   3.788   8.253   1.103
27196WAT     H181830   3.756   8.261   1.198
27196WAT     H281831   3.723   8.198   1.051
27197WAT      O81832   4.539   9.154   9.467
27197WAT     H181833   4.611   9.222   9.456
27197WAT     H281834   4.552   9.081   9.400
27198WAT      O81835   1.175   6.022   6.337
27198WAT     H181836   1.177   5.970   6.422
27198WAT     H281837   1.083   6.056   6.321
27199WAT      O81838   2.172   8.069   5.658
27199WAT     H181839   2.232   8.093   5.582
27199WAT     H281840   2.191   7.975   5.688
27200WAT      O81841   2.883   0.815   0.809
27200WAT     H181842   2.918   0.759   0.884
27200WAT     H281843   2.838   0.897   0.846
27201WAT      O81844   1.121   9.058   9.522
27201WAT     H181845   1.220   9.045   9.511
27201WAT     H281846   1.104   9.110   9.606
27202WAT      O81847   2.994   3.458   2.152
27202WAT     H181848   2.938   3.514   2.092
27202WAT     H281849   2.940   3.382   2.189
27203WAT      O81850   5.694   7.143   7.995
27203WAT     H181851   5.629   7.143   8.070
27203WAT     H281852   5.743   7.230   7.992
27204WAT      O81853   5.247   3.324   3.315
27204WAT     H181854   5.154   3.360   3.320
27204WAT     H281855   5.252   3.251   3.247
27205WAT      O81856   6.137   5.585   7.114
27205WAT     H181857   6.062   5.524   7.087
27205WAT     H281858   6.110   5.680   7.101
27206WAT      O81859   3.921   9.379   0.071
27206WAT     H181860   3.831   9.401   0.033
27206WAT     H281861   3.991   9.391   0.001
27207WAT      O81862   6.082   9.345   5.592
27207WAT     H181863   6.077   9.326   5.494
27207WAT     H281864   6.008   9.297   5.639
27208WAT      O81865   5.576   2.697   1.198
27208WAT     H181866   5.514   2.754   1.144
27208WAT     H281867   5.583   2.734   1.291
27209WAT      O81868   1.008   6.900   8.741
27209WAT     H181869   1.034   6.806   8.720
27209WAT     H281870   0.908   6.908   8.741
27210WAT      O81871   2.030   0.210   3.711
27210WAT     H181872   2.073   0.227   3.800
27210WAT     H281873   2.010   0.297   3.666
27211WAT      O81874   4.836   6.410   1.995
27211WAT     H181875   4.797   6.500   2.014
27211WAT     H281876   4.923   6.421   1.946
27212WAT      O81877   1.027   4.427   3.058
27212WAT     H181878   1.092   4.459   2.989
27212WAT     H281879   1.010   4.330   3.045
27213WAT      O81880   3.654   2.500   1.655
27213WAT     H181881   3.689   2.574   1.598
27213WAT     H281882   3.555   2.491   1.643
27214WAT      O81883   1.243   3.610   7.797
27214WAT     H181884   1.189   3.692   7.815
27214WAT     H281885   1.267   3.606   7.700
27215WAT      O81886   1.819   9.207   0.200
27215WAT     H181887   1.745   9.152   0.239
27215WAT     H281888   1.861   9.261   0.273
27216WAT      O81889   1.459   9.821   0.055
27216WAT     H181890   1.521   9.885   0.098
27216WAT     H281891   1.365   9.856   0.060
27217WAT      O81892   4.804   4.715   1.038
27217WAT     H181893   4.836   4.645   1.102
27217WAT     H281894   4.836   4.805   1.069
27218WAT      O81895   0.424   1.132   6.388
27218WAT     H181896   0.369   1.165   6.465
27218WAT     H281897   0.444   1.209   6.327
27219WAT      O81898   1.326   4.357   5.488
27219WAT     H181899   1.261   4.411   5.434
27219WAT     H281900   1.283   4.271   5.516
27220WAT      O81901   8.698   5.103   9.024
27220WAT     H181902   8.749   5.049   9.090
27220WAT     H281903   8.762   5.160   8.971
27221WAT      O81904   7.564   9.589   7.460
27221WAT     H181905   7.604   9.678   7.439
27221WAT     H281906   7.606   9.519   7.403
27222WAT      O81907   8.366   7.532   5.057
27222WAT     H181908   8.329   7.482   5.136
27222WAT     H281909   8.457   7.566   5.079
27223WAT      O81910   3.898   8.130   9.413
27223WAT     H181911   3.860   8.078   9.489
27223WAT     H281912   3.867   8.225   9.418
27224WAT      O81913   4.364   0.155   4.386
27224WAT     H181914   4.433   0.226   4.373
27224WAT     H281915   4.322   0.164   4.476
27225WAT      O81916   3.719   3.774   3.817
27225WAT     H181917   3.696   3.679   3.838
27225WAT     H281918   3.644   3.834   3.846
27226WAT      O81919   2.385   0.509   3.146
27226WAT     H181920   2.317   0.526   3.074
27226WAT     H281921   2.338   0.480   3.229
27227WAT      O81922   7.464   0.763   7.310
27227WAT     H181923   7.464   0.863   7.308
27227WAT     H281924   7.369   0.729   7.311
27228WAT      O81925   9.579   0.897   6.966
27228WAT     H181926   9.515   0.938   7.031
27228WAT     H281927   9.659   0.862   7.016
27229WAT      O81928   8.734   1.766   5.897
27229WAT     H181929   8.716   1.811   5.810
27229WAT     H281930   8.649   1.732   5.936
27230WAT      O81931   7.302   5.628   9.024
27230WAT     H181932   7.239   5.705   9.011
27230WAT     H281933   7.351   5.609   8.939
27231WAT      O81934   5.398   3.826   8.008
27231WAT     H181935   5.453   3.844   7.926
27231WAT     H281936   5.430   3.741   8.050
27232WAT      O81937   6.753   1.894   9.774
27232WAT     H181938   6.706   1.825   9.830
27232WAT     H281939   6.694   1.920   9.698
27233WAT      O81940   5.146   3.907   1.988
27233WAT     H181941   5.228   3.901   2.045
27233WAT     H281942   5.141   3.996   1.945
27234WAT      O81943   5.539   3.901   9.203
27234WAT     H181944   5.579   3.925   9.291
27234WAT     H281945   5.542   3.980   9.142
27235WAT      O81946   8.351   5.857   7.320
27235WAT     H181947   8.446   5.852   7.350
27235WAT     H281948   8.346   5.900   7.229
27236WAT      O81949   8.940   2.130   5.935
27236WAT     H181950   8.978   2.037   5.939
27236WAT     H281951   8.841   2.124   5.922
27237WAT      O81952   0.274   5.855   7.653
27237WAT     H181953   0.355   5.909   7.675
27237WAT     H281954   0.198   5.916   7.629
27238WAT      O81955   6.775   3.309   1.611
27238WAT     H181956   6.705   3.380   1.601
27238WAT     H281957   6.770   3.271   1.704
27239WAT      O81958   5.478   4.031   4.814
27239WAT     H181959   5.404   3.965   4.824
27239WAT     H281960   5.506   4.064   4.904
27240WAT      O81961   4.978   8.980   8.846
27240WAT     H181962   4.986   8.929   8.760
27240WAT     H281963   5.068   9.013   8.875
27241WAT      O81964   7.119   4.241   0.741
27241WAT     H181965   7.193   4.202   0.687
27241WAT     H281966   7.039   4.256   0.683
27242WAT      O81967   2.341   5.430   8.086
27242WAT     H181968   2.243   5.422   8.102
27242WAT     H281969   2.358   5.449   7.989
27243WAT      O81970   0.209   0.469   4.831
27243WAT     H181971   0.123   0.472   4.882
27243WAT     H281972   0.280   0.428   4.888
27244WAT      O81973   3.065   8.068   3.814
27244WAT     H181974   3.051   7.973   3.787
27244WAT     H281975   3.029   8.129   3.744
27245WAT      O81976   1.752   2.085   5.932
27245WAT     H181977   1.755   2.176   5.972
27245WAT     H281978   1.844   2.056   5.907
27246WAT      O81979   2.093   0.819   2.102
27246WAT     H181980   2.122   0.737   2.149
27246WAT     H281981   2.008   0.800   2.052
27247WAT      O81982   8.506   8.917   6.555
27247WAT     H181983   8.520   8.959   6.466
27247WAT     H281984   8.589   8.868   6.583
27248WAT      O81985   2.937   4.104   0.868
27248WAT     H181986   2.858   4.101   0.928
27248WAT     H281987   2.936   4.189   0.815
27249WAT      O81988   9.429   4.868   1.374
27249WAT     H181989   9.490   4.887   1.297
27249WAT     H281990   9.401   4.772   1.371
27250WAT      O81991   3.398   2.028   7.553
27250WAT     H181992   3.311   1.980   7.546
27250WAT     H281993   3.381   2.126   7.560
27251WAT      O81994   7.957   2.660   0.363
27251WAT     H181995   7.989   2.628   0.274
27251WAT     H281996   8.036   2.681   0.422
27252WAT      O81997   6.187   0.970   3.052
27252WAT     H181998   6.211   1.021   2.970
27252WAT     H281999   6.171   1.034   3.128
27253WAT      O82000   7.441   1.613   2.133
27253WAT     H182001   7.455   1.666   2.217
27253WAT     H282002   7.365   1.549   2.146
27254WAT      O82003   4.312   0.353   0.173
27254WAT     H182004   4.249   0.383   0.245
27254WAT     H282005   4.404   0.388   0.193
27255WAT      O82006   7.017   1.485   7.110
27255WAT     H182007   7.080   1.473   7.033
27255WAT     H282008   6.925   1.457   7.083
27256WAT      O82009   6.348   2.256   4.714
27256WAT     H182010   6.341   2.310   4.629
27256WAT     H282011   6.339   2.317   4.793
27257WAT      O82012   6.904   7.064   3.147
27257WAT     H182013   6.869   7.052   3.055
27257WAT     H282014   6.921   7.161   3.164
27258WAT      O82015   4.803   0.855   0.952
27258WAT     H182016   4.855   0.930   0.993
27258WAT     H282017   4.710   0.884   0.933
27259WAT      O82018   2.428   7.560   5.622
27259WAT     H182019   2.485   7.481   5.601
27259WAT     H282020   2.456   7.637   5.565
27260WAT      O82021   6.271   3.889   2.370
27260WAT     H182022   6.260   3.945   2.452
27260WAT     H282023   6.215   3.807   2.377
27261WAT      O82024   2.287   9.036   5.622
27261WAT     H182025   2.338   9.065   5.703
27261WAT     H282026   2.190   9.056   5.634
27262WAT      O82027   2.195   6.243   0.523
27262WAT     H182028   2.277   6.277   0.568
27262WAT     H282029   2.221   6.195   0.439
27263WAT      O82030   7.306   4.840   6.595
27263WAT     H182031   7.366   4.883   6.527
27263WAT     H282032   7.337   4.865   6.687
27264WAT      O82033   0.653   4.390   7.851
27264WAT     H182034   0.586   4.325   7.813
27264WAT     H282035   0.688   4.354   7.938
27265WAT      O82036   4.183   0.424   7.923
27265WAT     H182037   4.182   0.521   7.899
27265WAT     H282038   4.193   0.369   7.840
27266WAT      O82039   1.276   4.457   1.674
27266WAT     H182040   1.347   4.461   1.744
27266WAT     H282041   1.205   4.393   1.704
27267WAT      O82042   4.382   4.004   6.443
27267WAT     H182043   4.285   3.994   6.424
27267WAT     H282044   4.410   4.098   6.423
27268WAT      O82045   2.604   1.207   5.554
27268WAT     H182046   2.680   1.149   5.525
27268WAT     H282047   2.518   1.159   5.539
27269WAT      O82048   7.104   5.571   6.257
27269WAT     H182049   7.088   5.633   6.334
27269WAT     H282050   7.040   5.494   6.262
27270WAT      O82051   5.643   5.763   6.445
27270WAT     H182052   5.574   5.818   6.397
27270WAT     H282053   5.665   5.683   6.390
27271WAT      O82054   6.528   2.396   1.543
27271WAT     H182055   6.499   2.480   1.498
27271WAT     H282056   6.598   2.351   1.487
27272WAT      O82057   9.815   6.246   5.211
27272WAT     H182058   9.910   6.250   5.180
27272WAT     H282059   9.758   6.206   5.139
27273WAT      O82060   8.818   3.575   1.879
27273WAT     H182061   8.812   3.601   1.975
27273WAT     H282062   8.747   3.507   1.859
27274WAT      O82063   2.583   8.439   9.191
27274WAT     H182064   2.563   8.352   9.147
27274WAT     H282065   2.664   8.481   9.149
27275WAT      O82066   3.960   7.702   7.988
27275WAT     H182067   3.865   7.719   7.959
27275WAT     H282068   4.022   7.719   7.911
27276WAT      O82069   2.126   9.190   0.275
27276WAT     H182070   2.107   9.142   0.360
27276WAT     H282071   2.060   9.163   0.205
27277WAT      O82072   5.330   8.754   6.573
27277WAT     H182073   5.396   8.699   6.623
27277WAT     H282074   5.355   8.850   6.579
27278WAT      O82075   0.594   0.564   3.148
27278WAT     H182076   0.530   0.487   3.142
27278WAT     H282077   0.552   0.639   3.199
27279WAT      O82078   3.687   8.201   7.813
27279WAT     H182079   3.621   8.275   7.817
27279WAT     H282080   3.646   8.117   7.848
27280WAT      O82081   8.113   1.730   5.345
27280WAT     H182082   8.157   1.791   5.279
27280WAT     H282083   8.140   1.636   5.327
27281WAT      O82084   2.907   2.573   4.919
27281WAT     H182085   2.959   2.587   5.003
27281WAT     H282086   2.820   2.621   4.925
27282WAT      O82087   9.271   3.792   0.696
27282WAT     H182088   9.338   3.824   0.629
27282WAT     H282089   9.227   3.870   0.739
27283WAT      O82090   0.619   3.974   0.158
27283WAT     H182091   0.645   3.916   0.235
27283WAT     H282092   0.521   3.990   0.159
27284WAT      O82093   7.241   5.228   3.272
27284WAT     H182094   7.336   5.246   3.297
27284WAT     H282095   7.181   5.295   3.316
27285WAT      O82096   9.141   5.086   3.129
27285WAT     H182097   9.094   5.077   3.216
27285WAT     H282098   9.224   5.141   3.141
27286WAT      O82099   9.713   4.120   2.311
27286WAT     H182100   9.670   4.040   2.268
27286WAT     H282101   9.764   4.171   2.242
27287WAT      O82102   6.860   4.907   3.289
27287WAT     H182103   6.790   4.841   3.261
27287WAT     H282104   6.918   4.867   3.359
27288WAT      O82105   4.284   3.923   0.325
27288WAT     H182106   4.232   3.922   0.411
27288WAT     H282107   4.279   3.833   0.282
27289WAT      O82108   7.028   6.409   6.301
27289WAT     H182109   6.989   6.464   6.227
27289WAT     H282110   7.054   6.320   6.265
27290WAT      O82111   7.860   3.101   3.803
27290WAT     H182112   7.881   3.009   3.836
27290WAT     H282113   7.790   3.096   3.732
27291WAT      O82114   1.374   5.683   0.030
27291WAT     H182115   1.374   5.589   0.065
27291WAT     H282116   1.465   5.706  -0.004
27292WAT      O82117   5.748   1.239   0.873
27292WAT     H182118   5.793   1.254   0.785
27292WAT     H282119   5.686   1.161   0.866
27293WAT      O82120   8.226   2.542   4.579
27293WAT     H182121   8.171   2.509   4.503
27293WAT     H282122   8.323   2.531   4.557
27294WAT      O82123   5.420   2.176   5.280
27294WAT     H182124   5.436   2.264   5.237
27294WAT     H282125   5.495   2.113   5.258
27295WAT      O82126   0.848   7.562   7.952
27295WAT     H182127   0.916   7.635   7.956
27295WAT     H282128   0.868   7.493   8.022
27296WAT      O82129   8.545   2.058   6.189
27296WAT     H182130   8.501   2.031   6.275
27296WAT     H282131   8.641   2.081   6.207
27297WAT      O82132   8.737   8.764   4.630
27297WAT     H182133   8.729   8.689   4.696
27297WAT     H282134   8.740   8.727   4.538
27298WAT      O82135   3.843   5.216   1.397
27298WAT     H182136   3.874   5.273   1.472
27298WAT     H282137   3.854   5.265   1.310
27299WAT      O82138   4.939   5.787   1.690
27299WAT     H182139   4.925   5.836   1.776
27299WAT     H282140   4.895   5.838   1.615
27300WAT      O82141   9.387   4.781   9.662
27300WAT     H182142   9.362   4.721   9.586
27300WAT     H282143   9.461   4.843   9.634
27301WAT      O82144   2.543   4.741   0.469
27301WAT     H182145   2.502   4.784   0.550
27301WAT     H282146   2.537   4.804   0.392
27302WAT      O82147   8.464   1.584   8.801
27302WAT     H182148   8.387   1.628   8.847
27302WAT     H282149   8.520   1.654   8.756
27303WAT      O82150   8.204   4.523   8.806
27303WAT     H182151   8.194   4.436   8.854
27303WAT     H282152   8.227   4.506   8.710
27304WAT      O82153   5.717   0.624   6.695
27304WAT     H182154   5.717   0.534   6.738
27304WAT     H282155   5.716   0.695   6.766
27305WAT      O82156   0.098   8.131   6.799
27305WAT     H182157   0.064   8.218   6.766
27305WAT     H282158   0.152   8.087   6.727
27306WAT      O82159   3.767   7.255   1.493
27306WAT     H182160   3.802   7.256   1.399
27306WAT     H282161   3.781   7.344   1.535
27307WAT      O82162   4.896   2.463   1.954
27307WAT     H182163   4.860   2.473   2.046
27307WAT     H282164   4.866   2.376   1.915
27308WAT      O82165   1.332   3.668   7.155
27308WAT     H182166   1.321   3.640   7.060
27308WAT     H282167   1.404   3.613   7.197
27309WAT      O82168   4.792   9.042   2.720
27309WAT     H182169   4.809   8.963   2.660
27309WAT     H282170   4.872   9.102   2.719
27310WAT      O82171   7.311   4.055   5.645
27310WAT     H182172   7.310   4.089   5.551
27310WAT     H282173   7.403   4.064   5.682
27311WAT      O82174   5.940   8.040   6.470
27311WAT     H182175   6.004   8.037   6.393
27311WAT     H282176   5.893   7.952   6.477
27312WAT      O82177   1.433   7.973   5.008
27312WAT     H182178   1.488   7.891   4.995
27312WAT     H282179   1.477   8.050   4.962
27313WAT      O82180   8.458   2.114   9.781
27313WAT     H182181   8.384   2.153   9.836
27313WAT     H282182   8.470   2.169   9.698
27314WAT      O82183   0.056   9.602   2.005
27314WAT     H182184   0.121   9.671   2.036
27314WAT     H282185   0.100   9.541   1.939
27315WAT      O82186   0.262   3.993   3.220
27315WAT     H182187   0.293   3.938   3.298
27315WAT     H282188   0.335   3.999   3.153
27316WAT      O82189   2.244   9.155   2.373
27316WAT     H182190   2.315   9.170   2.442
27316WAT     H282191   2.287   9.146   2.283
27317WAT      O82192   6.728   3.672   0.991
27317WAT     H182193   6.759   3.645   0.900
27317WAT     H282194   6.633   3.703   0.987
27318WAT      O82195   2.252   7.079   4.595
27318WAT     H182196   2.276   7.176   4.594
27318WAT     H282197   2.333   7.025   4.617
27319WAT      O82198   1.336   3.363   5.514
27319WAT     H182199   1.386   3.445   5.543
27319WAT     H282200   1.398   3.284   5.515
27320WAT      O82201   4.317   4.524   8.180
27320WAT     H182202   4.386   4.582   8.137
27320WAT     H282203   4.341   4.427   8.168
27321WAT      O82204   3.150   0.865   4.388
27321WAT     H182205   3.211   0.846   4.312
27321WAT     H282206   3.055   0.852   4.359
27322WAT      O82207   7.793   7.429   5.128
27322WAT     H182208   7.786   7.354   5.062
27322WAT     H282209   7.854   7.402   5.203
27323WAT      O82210   7.932   1.735   2.559
27323WAT     H182211   7.884   1.650   2.538
27323WAT     H282212   7.871   1.796   2.611
27324WAT      O82213   4.065   1.301   0.787
27324WAT     H182214   4.037   1.367   0.718
27324WAT     H282215   4.034   1.209   0.760
27325WAT      O82216   5.396   2.557   5.694
27325WAT     H182217   5.428   2.462   5.691
27325WAT     H282218   5.377   2.588   5.601
27326WAT      O82219   3.247   8.590   7.113
27326WAT     H182220   3.328   8.637   7.150
27326WAT     H282221   3.276   8.514   7.055
27327WAT      O82222   2.062   2.309   5.347
27327WAT     H182223   2.101   2.390   5.302
27327WAT     H282224   2.093   2.227   5.301
27328WAT      O82225   0.529   4.097   2.663
27328WAT     H182226   0.454   4.089   2.596
27328WAT     H282227   0.593   4.021   2.649
27329WAT      O82228   7.809   5.596   4.915
27329WAT     H182229   7.799   5.580   5.013
27329WAT     H282230   7.899   5.634   4.896
27330WAT      O82231   6.439   6.309   2.783
27330WAT     H182232   6.421   6.324   2.880
27330WAT     H282233   6.355   6.322   2.731
27331WAT      O82234   0.293   0.613   1.584
27331WAT     H182235   0.217   0.626   1.520
27331WAT     H282236   0.320   0.701   1.622
27332WAT      O82237   6.359   7.011   4.777
27332WAT     H182238   6.281   7.060   4.816
27332WAT     H282239   6.444   7.054   4.809
27333WAT      O82240   6.459   4.245   2.368
27333WAT     H182241   6.479   4.148   2.353
27333WAT     H282242   6.446   4.261   2.466
27334WAT      O82243   5.646   3.952   2.414
27334WAT     H182244   5.602   3.864   2.394
27334WAT     H282245   5.702   3.980   2.336
27335WAT      O82246   6.191   8.214   4.879
27335WAT     H182247   6.097   8.202   4.909
27335WAT     H282248   6.209   8.157   4.798
27336WAT      O82249   1.714   6.487   5.341
27336WAT     H182250   1.714   6.542   5.257
27336WAT     H282251   1.699   6.391   5.317
27337WAT      O82252   8.333   0.592   3.411
27337WAT     H182253   8.341   0.692   3.401
27337WAT     H282254   8.388   0.563   3.489
27338WAT      O82255   2.946   8.209   3.589
27338WAT     H182256   2.858   8.242   3.555
27338WAT     H282257   3.004   8.288   3.612
27339WAT      O82258   8.256   4.080   7.814
27339WAT     H182259   8.165   4.120   7.811
27339WAT     H282260   8.275   4.036   7.726
27340WAT      O82261   9.799   5.206   9.410
27340WAT     H182262   9.757   5.217   9.321
27340WAT     H282263   9.729   5.186   9.478
27341WAT      O82264   4.016   6.503   1.928
27341WAT     H182265   3.987   6.415   1.966
27341WAT     H282266   4.102   6.531   1.971
27342WAT      O82267   2.083   0.336   7.556
27342WAT     H182268   2.087   0.400   7.480
27342WAT     H282269   2.029   0.375   7.630
27343WAT      O82270   0.999   7.879   1.697
27343WAT     H182271   1.003   7.836   1.788
27343WAT     H282272   0.988   7.978   1.707
27344WAT      O82273   5.714   0.757   5.352
27344WAT     H182274   5.753   0.818   5.420
27344WAT     H282275   5.777   0.682   5.334
27345WAT      O82276   1.023   2.330   1.578
27345WAT     H182277   1.030   2.414   1.632
27345WAT     H282278   1.091   2.264   1.609
27346WAT      O82279   2.188   3.652   4.052
27346WAT     H182280   2.150   3.688   3.966
27346WAT     H282281   2.114   3.630   4.115
27347WAT      O82282   1.678   3.362   8.763
27347WAT     H182283   1.643   3.304   8.690
27347WAT     H282284   1.721   3.305   8.833
27348WAT      O82285   1.034   8.936   2.096
27348WAT     H182286   1.099   9.008   2.070
27348WAT     H282287   1.001   8.953   2.189
27349WAT      O82288   0.380   6.863   6.265
27349WAT     H182289   0.354   6.930   6.195
27349WAT     H282290   0.479   6.855   6.268
27350WAT      O82291   4.804   3.543   5.706
27350WAT     H182292   4.706   3.533   5.724
27350WAT     H282293   4.843   3.453   5.687
27351WAT      O82294   1.277   0.961   9.496
27351WAT     H182295   1.186   1.002   9.488
27351WAT     H282296   1.292   0.898   9.420
27352WAT      O82297   1.062   8.778   4.663
27352WAT     H182298   1.162   8.775   4.663
27352WAT     H282299   1.025   8.689   4.638
27353WAT      O82300   0.853   5.530   3.008
27353WAT     H182301   0.809   5.522   2.919
27353WAT     H282302   0.819   5.459   3.069
27354WAT      O82303   6.708   0.392   0.438
27354WAT     H182304   6.788   0.410   0.496
27354WAT     H282305   6.712   0.450   0.357
27355WAT      O82306   0.373   2.791   0.037
27355WAT     H182307   0.300   2.858   0.032
27355WAT     H282308   0.393   2.756  -0.054
27356WAT      O82309   9.872   8.584   0.811
27356WAT     H182310   9.918   8.559   0.725
27356WAT     H282311   9.852   8.682   0.810
27357WAT      O82312   4.025   9.057   8.022
27357WAT     H182313   3.968   9.014   7.952
27357WAT     H282314   3.977   9.136   8.060
27358WAT      O82315   8.233   0.596   9.095
27358WAT     H182316   8.230   0.505   9.136
27358WAT     H282317   8.163   0.654   9.137
27359WAT      O82318   5.965   2.407   2.633
27359WAT     H182319   5.921   2.497   2.632
27359WAT     H282320   5.900   2.338   2.666
27360WAT      O82321   3.662   2.934   0.761
27360WAT     H182322   3.590   2.921   0.829
27360WAT     H282323   3.634   2.893   0.674
27361WAT      O82324   9.841   7.981   3.453
27361WAT     H182325   9.931   7.938   3.452
27361WAT     H282326   9.798   7.972   3.363
27362WAT      O82327   6.727   0.586   5.203
27362WAT     H182328   6.703   0.649   5.129
27362WAT     H282329   6.675   0.610   5.285
27363WAT      O82330   7.657   9.645   6.331
27363WAT     H182331   7.598   9.564   6.332
27363WAT     H282332   7.647   9.694   6.418
27364WAT      O82333   0.088   8.990   9.803
27364WAT     H182334   0.109   9.039   9.719
27364WAT     H282335   0.087   9.053   9.880
27365WAT      O82336   2.754   2.303   3.096
27365WAT     H182337   2.771   2.305   3.195
27365WAT     H282338   2.840   2.283   3.048
27366WAT      O82339   2.256   3.278   7.606
27366WAT     H182340   2.216   3.190   7.580
27366WAT     H282341   2.349   3.285   7.570
27367WAT      O82342   7.192   8.963   7.450
27367WAT     H182343   7.133   9.025   7.502
27367WAT     H282344   7.250   8.912   7.513
27368WAT      O82345   2.977   9.025   2.582
27368WAT     H182346   3.002   9.016   2.486
27368WAT     H282347   2.893   8.974   2.600
27369WAT      O82348   4.717   4.338   5.189
27369WAT     H182349   4.792   4.395   5.155
27369WAT     H282350   4.756   4.256   5.232
27370WAT      O82351   8.993   8.207   7.484
27370WAT     H182352   8.950   8.144   7.419
27370WAT     H282353   8.937   8.289   7.493
27371WAT      O82354   3.110   9.006   9.199
27371WAT     H182355   3.077   9.079   9.259
27371WAT     H282356   3.110   9.038   9.104
27372WAT      O82357   1.159   8.425   8.911
27372WAT     H182358   1.157   8.505   8.970
27372WAT     H282359   1.111   8.349   8.956
27373WAT      O82360   3.410   7.773   5.753
27373WAT     H182361   3.462   7.692   5.781
27373WAT     H282362   3.455   7.855   5.788
27374WAT      O82363   6.089   6.682   5.571
27374WAT     H182364   6.072   6.766   5.519
27374WAT     H282365   6.081   6.603   5.511
27375WAT      O82366   0.755   8.233   1.919
27375WAT     H182367   0.771   8.223   2.017
27375WAT     H282368   0.832   8.194   1.868
27376WAT      O82369   1.627   9.838   9.142
27376WAT     H182370   1.716   9.803   9.113
27376WAT     H282371   1.558   9.765   9.133
27377WAT      O82372   2.556   1.696   6.399
27377WAT     H182373   2.570   1.659   6.491
27377WAT     H282374   2.515   1.787   6.406
27378WAT      O82375   3.482   2.577   0.718
27378WAT     H182376   3.502   2.662   0.669
27378WAT     H282377   3.560   2.553   0.775
27379WAT      O82378   8.432   2.199   1.200
27379WAT     H182379   8.449   2.207   1.101
27379WAT     H282380   8.434   2.290   1.241
27380WAT      O82381   9.607   6.397   9.441
27380WAT     H182382   9.558   6.481   9.415
27380WAT     H282383   9.551   6.345   9.506
27381WAT      O82384   2.953   1.783   5.245
27381WAT     H182385   2.971   1.875   5.278
27381WAT     H282386   2.954   1.782   5.145
27382WAT      O82387   9.617   6.715   3.825
27382WAT     H182388   9.686   6.744   3.760
27382WAT     H282389   9.590   6.621   3.806
27383WAT      O82390   5.094   0.619   9.112
27383WAT     H182391   5.180   0.598   9.158
27383WAT     H282392   5.102   0.709   9.068
27384WAT      O82393   0.947   4.980   9.652
27384WAT     H182394   0.927   4.952   9.746
27384WAT     H282395   0.971   5.077   9.651
27385WAT      O82396   3.466   4.619   8.431
27385WAT     H182397   3.373   4.586   8.417
27385WAT     H282398   3.531   4.545   8.411
27386WAT      O82399   4.674   4.070   6.720
27386WAT     H182400   4.623   4.156   6.715
27386WAT     H282401   4.760   4.079   6.671
27387WAT      O82402   9.442   4.942   4.235
27387WAT     H182403   9.388   4.875   4.286
27387WAT     H282404   9.469   4.904   4.147
27388WAT      O82405   9.799   6.867   8.121
27388WAT     H182406   9.764   6.796   8.182
27388WAT     H282407   9.783   6.840   8.026
27389WAT      O82408   4.133   9.090   1.872
27389WAT     H182409   4.159   9.187   1.862
27389WAT     H282410   4.151   9.061   1.966
27390WAT      O82411   3.181   3.878   5.892
27390WAT     H182412   3.272   3.903   5.859
27390WAT     H282413   3.190   3.834   5.982
27391WAT      O82414   0.288   0.221   0.847
27391WAT     H182415   0.343   0.153   0.799
27391WAT     H282416   0.290   0.203   0.946
27392WAT      O82417   9.389   1.792   8.119
27392WAT     H182418   9.412   1.763   8.211
27392WAT     H282419   9.450   1.865   8.090
27393WAT      O82420   9.291   3.090   5.351
27393WAT     H182421   9.246   3.137   5.275
27393WAT     H282422   9.383   3.064   5.324
27394WAT      O82423   1.075   2.996   3.890
27394WAT     H182424   1.137   3.044   3.828
27394WAT     H282425   1.049   2.908   3.850
27395WAT      O82426   6.503   3.592   9.018
27395WAT     H182427   6.443   3.671   9.027
27395WAT     H282428   6.538   3.588   8.924
27396WAT      O82429   3.141   1.921   7.522
27396WAT     H182430   3.048   1.943   7.549
27396WAT     H282431   3.141   1.835   7.470
27397WAT      O82432   7.098   5.271   8.037
27397WAT     H182433   7.118   5.188   8.088
27397WAT     H282434   7.009   5.262   7.992
27398WAT      O82435   5.312   7.519   1.777
27398WAT     H182436   5.360   7.477   1.700
27398WAT     H282437   5.292   7.614   1.756
27399WAT      O82438   6.166   9.793   2.800
27399WAT     H182439   6.088   9.825   2.747
27399WAT     H282440   6.144   9.795   2.898
27400WAT      O82441   1.011   2.237   3.756
27400WAT     H182442   1.094   2.274   3.798
27400WAT     H282443   0.962   2.310   3.709
27401WAT      O82444   1.071   0.795   0.351
27401WAT     H182445   1.116   0.788   0.440
27401WAT     H282446   0.987   0.848   0.360
27402WAT      O82447   0.415   6.345   1.514
27402WAT     H182448   0.490   6.298   1.466
27402WAT     H282449   0.332   6.289   1.509
27403WAT      O82450   8.320   6.698   2.625
27403WAT     H182451   8.358   6.621   2.574
27403WAT     H282452   8.389   6.769   2.636
27404WAT      O82453   8.878   5.167   8.784
27404WAT     H182454   8.901   5.080   8.828
27404WAT     H282455   8.962   5.213   8.756
27405WAT      O82456   0.885   0.071   5.684
27405WAT     H182457   0.795   0.029   5.680
27405WAT     H282458   0.895   0.137   5.609
27406WAT      O82459   6.297   1.094   2.550
27406WAT     H182460   6.250   1.174   2.512
27406WAT     H282461   6.252   1.011   2.518
27407WAT      O82462   3.304   4.693   4.467
27407WAT     H182463   3.320   4.625   4.539
27407WAT     H282464   3.392   4.728   4.435
27408WAT      O82465   0.341   8.432   6.889
27408WAT     H182466   0.253   8.422   6.937
27408WAT     H282467   0.396   8.501   6.934
27409WAT      O82468   2.682   7.802   2.787
27409WAT     H182469   2.624   7.841   2.715
27409WAT     H282470   2.658   7.842   2.875
27410WAT      O82471   1.291   2.665   0.848
27410WAT     H182472   1.254   2.705   0.932
27410WAT     H282473   1.363   2.725   0.811
27411WAT      O82474   0.471   8.751   3.206
27411WAT     H182475   0.439   8.659   3.228
27411WAT     H282476   0.496   8.756   3.110
27412WAT      O82477   6.270   0.036   6.076
27412WAT     H182478   6.272   0.122   6.026
27412WAT     H282479   6.184  -0.012   6.058
27413WAT      O82480   6.288   3.750   6.782
27413WAT     H182481   6.366   3.803   6.750
27413WAT     H282482   6.218   3.748   6.711
27414WAT      O82483   6.862   9.655   0.484
27414WAT     H182484   6.922   9.682   0.409
27414WAT     H282485   6.792   9.592   0.450
27415WAT      O82486   8.471   9.676   3.394
27415WAT     H182487   8.493   9.751   3.331
27415WAT     H282488   8.540   9.672   3.466
27416WAT      O82489   8.523   8.664   5.912
27416WAT     H182490   8.512   8.749   5.964
27416WAT     H282491   8.512   8.586   5.974
27417WAT      O82492   0.555   0.468   8.221
27417WAT     H182493   0.474   0.493   8.273
27417WAT     H282494   0.531   0.403   8.149
27418WAT      O82495   0.396   4.057   1.412
27418WAT     H182496   0.354   3.975   1.449
27418WAT     H282497   0.443   4.033   1.326
27419WAT      O82498   7.989   6.487   9.553
27419WAT     H182499   8.079   6.496   9.595
27419WAT     H282500   7.999   6.452   9.460
27420WAT      O82501   1.247   8.054   8.154
27420WAT     H182502   1.326   8.012   8.109
27420WAT     H282503   1.277   8.099   8.238
27421WAT      O82504   1.724   5.144   0.995
27421WAT     H182505   1.760   5.205   1.065
27421WAT     H282506   1.743   5.182   0.905
27422WAT      O82507   8.764   6.232   3.781
27422WAT     H182508   8.772   6.200   3.875
27422WAT     H282509   8.669   6.256   3.762
27423WAT      O82510   8.104   8.213   2.626
27423WAT     H182511   8.198   8.228   2.596
27423WAT     H282512   8.060   8.148   2.565
27424WAT      O82513   0.280   3.911   0.908
27424WAT     H182514   0.316   3.829   0.951
27424WAT     H282515   0.194   3.891   0.862
27425WAT      O82516   4.350   3.764   8.216
27425WAT     H182517   4.278   3.833   8.228
27425WAT     H282518   4.328   3.708   8.136
27426WAT      O82519   1.230   2.158   5.032
27426WAT     H182520   1.219   2.060   5.044
27426WAT     H282521   1.220   2.203   5.121
27427WAT      O82522   1.342   2.784   2.739
27427WAT     H182523   1.385   2.764   2.827
27427WAT     H282524   1.360   2.711   2.674
27428WAT      O82525   7.145   5.719   3.885
27428WAT     H182526   7.173   5.793   3.824
27428WAT     H282527   7.224   5.660   3.904
27429WAT      O82528   9.596   6.016   9.671
27429WAT     H182529   9.633   5.926   9.649
27429WAT     H282530   9.504   6.006   9.709
27430WAT      O82531   8.926   5.147   7.361
27430WAT     H182532   8.872   5.155   7.278
27430WAT     H282533   8.964   5.054   7.367
27431WAT      O82534   3.574   2.193   5.845
27431WAT     H182535   3.561   2.096   5.866
27431WAT     H282536   3.543   2.211   5.751
27432WAT      O82537   4.916   7.165   2.374
27432WAT     H182538   4.824   7.150   2.336
27432WAT     H282539   4.908   7.200   2.467
27433WAT      O82540   0.232   1.003   3.629
27433WAT     H182541   0.133   0.991   3.621
27433WAT     H282542   0.255   1.099   3.613
27434WAT      O82543   9.140   0.051   3.759
27434WAT     H182544   9.111   0.021   3.667
27434WAT     H282545   9.064   0.037   3.823
27435WAT      O82546   7.468   1.726   0.486
27435WAT     H182547   7.529   1.719   0.565
27435WAT     H282548   7.428   1.637   0.468
27436WAT      O82549   8.301   0.069   7.859
27436WAT     H182550   8.331  -0.022   7.890
27436WAT     H282551   8.380   0.119   7.821
27437WAT      O82552   4.708   3.527   0.115
27437WAT     H182553   4.695   3.510   0.213
27437WAT     H282554   4.635   3.586   0.082
27438WAT      O82555   2.688   6.289   4.762
27438WAT     H182556   2.614   6.250   4.706
27438WAT     H282557   2.767   6.308   4.703
27439WAT      O82558   3.307   5.620   1.928
27439WAT     H182559   3.305   5.616   2.027
27439WAT     H282560   3.394   5.583   1.895
27440WAT      O82561   6.832   3.244   1.339
27440WAT     H182562   6.926   3.229   1.310
27440WAT     H282563   6.827   3.323   1.399
27441WAT      O82564   4.266   7.163   3.476
27441WAT     H182565   4.278   7.145   3.378
27441WAT     H282566   4.299   7.254   3.498
27442WAT      O82567   8.092   1.720   0.873
27442WAT     H182568   8.139   1.661   0.807
27442WAT     H282569   7.993   1.711   0.861
27443WAT      O82570   5.297   9.205   8.687
27443WAT     H182571   5.394   9.211   8.667
27443WAT     H282572   5.250   9.158   8.612
27444WAT      O82573   5.953   2.139   7.259
27444WAT     H182574   5.976   2.118   7.354
27444WAT     H282575   5.995   2.225   7.233
27445WAT      O82576   8.773   5.925   4.485
27445WAT     H182577   8.790   5.831   4.516
27445WAT     H282578   8.749   5.982   4.563
27446WAT      O82579   3.989   7.892   3.672
27446WAT     H182580   3.988   7.799   3.710
27446WAT     H282581   4.064   7.944   3.714
27447WAT      O82582   0.090   0.181   5.049
27447WAT     H182583   0.057   0.115   5.116
27447WAT     H282584   0.190   0.180   5.049
27448WAT      O82585   7.187   1.603   8.729
27448WAT     H182586   7.286   1.602   8.743
27448WAT     H282587   7.162   1.681   8.671
27449WAT      O82588   0.673   5.160   6.693
27449WAT     H182589   0.596   5.148   6.630
27449WAT     H282590   0.732   5.233   6.659
27450WAT      O82591   5.976   5.025   4.018
27450WAT     H182592   5.934   5.007   4.108
27450WAT     H282593   6.042   5.099   4.027
27451WAT      O82594   2.528   3.894   2.178
27451WAT     H182595   2.490   3.977   2.219
27451WAT     H282596   2.460   3.853   2.118
27452WAT      O82597   6.944   7.065   5.664
27452WAT     H182598   6.852   7.082   5.700
27452WAT     H282599   6.951   6.970   5.634
27453WAT      O82600   8.539   5.832   8.064
27453WAT     H182601   8.577   5.740   8.054
27453WAT     H282602   8.567   5.870   8.152
27454WAT      O82603   9.368   0.889   5.428
27454WAT     H182604   9.422   0.921   5.351
27454WAT     H282605   9.404   0.801   5.461
27455WAT      O82606   3.735   2.822   5.973
27455WAT     H182607   3.714   2.736   5.926
27455WAT     H282608   3.751   2.894   5.906
27456WAT      O82609   0.927   0.845   9.867
27456WAT     H182610   0.988   0.923   9.879
27456WAT     H282611   0.836   0.869   9.900
27457WAT      O82612   8.542   9.093   6.318
27457WAT     H182613   8.589   9.180   6.301
27457WAT     H282614   8.451   9.095   6.277
27458WAT      O82615   8.495   0.848   2.000
27458WAT     H182616   8.445   0.762   2.000
27458WAT     H282617   8.593   0.830   1.993
27459WAT      O82618   1.118   6.596   8.777
27459WAT     H182619   1.049   6.538   8.819
27459WAT     H282620   1.174   6.639   8.848
27460WAT      O82621   8.532   5.324   9.719
27460WAT     H182622   8.577   5.400   9.673
27460WAT     H282623   8.451   5.296   9.666
27461WAT      O82624   7.505   5.653   3.217
27461WAT     H182625   7.530   5.750   3.217
27461WAT     H282626   7.502   5.619   3.124
27462WAT      O82627   3.898   0.362   6.749
27462WAT     H182628   3.977   0.423   6.760
27462WAT     H282629   3.815   0.409   6.780
27463WAT      O82630   6.827   6.468   0.289
27463WAT     H182631   6.884   6.550   0.287
27463WAT     H282632   6.863   6.401   0.224
27464WAT      O82633   0.174   4.034   6.891
27464WAT     H182634   0.095   3.981   6.924
27464WAT     H282635   0.217   4.082   6.967
27465WAT      O82636   4.044   4.112   6.512
27465WAT     H182637   3.947   4.085   6.516
27465WAT     H282638   4.089   4.062   6.438
27466WAT      O82639   3.598   4.302   1.908
27466WAT     H182640   3.540   4.290   1.827
27466WAT     H282641   3.576   4.389   1.952
27467WAT      O82642   0.135   7.564   3.231
27467WAT     H182643   0.044   7.598   3.253
27467WAT     H282644   0.181   7.536   3.316
27468WAT      O82645   6.963   6.456   2.349
27468WAT     H182646   7.009   6.379   2.393
27468WAT     H282647   6.865   6.436   2.340
27469WAT      O82648   8.214   3.266   8.382
27469WAT     H182649   8.220   3.365   8.389
27469WAT     H282650   8.138   3.232   8.438
27470WAT      O82651   3.450   0.295   2.004
27470WAT     H182652   3.435   0.309   1.907
27470WAT     H282653   3.408   0.209   2.032
27471WAT      O82654   4.468   7.263   2.437
27471WAT     H182655   4.496   7.297   2.527
27471WAT     H282656   4.489   7.166   2.431
27472WAT      O82657   8.372   7.855   8.636
27472WAT     H182658   8.339   7.776   8.688
27472WAT     H282659   8.369   7.835   8.538
27473WAT      O82660   0.898   5.255   5.250
27473WAT     H182661   0.912   5.189   5.324
27473WAT     H282662   0.812   5.303   5.264
27474WAT      O82663   5.784   2.883   7.055
27474WAT     H182664   5.876   2.880   7.096
27474WAT     H282665   5.728   2.949   7.104
27475WAT      O82666   2.752   3.633   2.834
27475WAT     H182667   2.681   3.696   2.865
27475WAT     H282668   2.775   3.654   2.739
27476WAT      O82669   4.102   8.356   5.195
27476WAT     H182670   4.156   8.365   5.279
27476WAT     H282671   4.006   8.374   5.215
27477WAT      O82672   1.601   1.749   3.387
27477WAT     H182673   1.506   1.780   3.396
27477WAT     H282674   1.625   1.692   3.466
27478WAT      O82675   1.571   2.355   5.587
27478WAT     H182676   1.542   2.334   5.681
27478WAT     H282677   1.667   2.383   5.588
27479WAT      O82678   2.330   1.060   2.751
27479WAT     H182679   2.415   1.105   2.723
27479WAT     H282680   2.252   1.110   2.713
27480WAT      O82681   7.853   0.737   8.037
27480WAT     H182682   7.832   0.707   7.944
27480WAT     H282683   7.839   0.662   8.101
27481WAT      O82684   2.532   0.187   6.355
27481WAT     H182685   2.602   0.210   6.423
27481WAT     H282686   2.447   0.162   6.402
27482WAT      O82687   5.839   0.489   5.149
27482WAT     H182688   5.911   0.424   5.172
27482WAT     H282689   5.749   0.447   5.164
27483WAT      O82690   1.150   4.292   9.482
27483WAT     H182691   1.230   4.343   9.514
27483WAT     H282692   1.162   4.195   9.502
27484WAT      O82693   2.248   3.067   0.408
27484WAT     H182694   2.288   3.146   0.455
27484WAT     H282695   2.232   2.994   0.473
27485WAT      O82696   0.933   9.290   2.040
27485WAT     H182697   1.021   9.252   2.012
27485WAT     H282698   0.917   9.377   1.993
27486WAT      O82699   1.266   0.043   8.625
27486WAT     H182700   1.211  -0.038   8.647
27486WAT     H282701   1.294   0.088   8.710
27487WAT      O82702   2.839   8.311   8.111
27487WAT     H182703   2.861   8.336   8.206
27487WAT     H282704   2.923   8.287   8.063
27488WAT      O82705   4.157   9.021   6.989
27488WAT     H182706   4.238   9.079   6.981
27488WAT     H282707   4.083   9.059   6.933
27489WAT      O82708   6.682   1.217   4.539
27489WAT     H182709   6.617   1.276   4.589
27489WAT     H282710   6.634   1.138   4.502
27490WAT      O82711   1.361   9.733   9.390
27490WAT     H182712   1.397   9.651   9.346
27490WAT     H282713   1.269   9.753   9.356
27491WAT      O82714   0.466   7.762   4.042
27491WAT     H182715   0.525   7.682   4.032
27491WAT     H282716   0.494   7.833   3.977
27492WAT      O82717   3.585   6.714   0.733
27492WAT     H182718   3.533   6.629   0.732
27492WAT     H282719   3.542   6.780   0.672
27493WAT      O82720   7.654   5.858   2.953
27493WAT     H182721   7.571   5.901   2.917
27493WAT     H282722   7.701   5.810   2.879
27494WAT      O82723   5.777   9.716   0.677
27494WAT     H182724   5.866   9.674   0.661
27494WAT     H282725   5.776   9.758   0.767
27495WAT      O82726   6.595   8.790   5.708
27495WAT     H182727   6.659   8.767   5.635
27495WAT     H282728   6.531   8.714   5.721
27496WAT      O82729   5.670   6.156   3.275
27496WAT     H182730   5.718   6.242   3.260
27496WAT     H282731   5.734   6.080   3.261
27497WAT      O82732   2.886   6.193   8.543
27497WAT     H182733   2.959   6.125   8.533
27497WAT     H282734   2.814   6.175   8.476
27498WAT      O82735   5.434   8.092   6.844
27498WAT     H182736   5.441   8.044   6.932
27498WAT     H282737   5.495   8.050   6.777
27499WAT      O82738   3.848   4.819   0.685
27499WAT     H182739   3.909   4.864   0.750
27499WAT     H282740   3.762   4.870   0.679
27500WAT      O82741   5.840   3.380   0.273
27500WAT     H182742   5.782   3.443   0.324
27500WAT     H282743   5.917   3.430   0.233
27501WAT      O82744   8.871   1.855   8.937
27501WAT     H182745   8.921   1.773   8.963
27501WAT     H282746   8.852   1.911   9.018
27502WAT      O82747   3.626   1.761   5.426
27502WAT     H182748   3.643   1.837   5.488
27502WAT     H282749   3.688   1.767   5.348
27503WAT      O82750   4.981   5.988   6.608
27503WAT     H182751   5.058   5.939   6.566
27503WAT     H282752   5.007   6.083   6.623
27504WAT      O82753   7.807   9.787   5.485
27504WAT     H182754   7.800   9.774   5.386
27504WAT     H282755   7.873   9.722   5.522
27505WAT      O82756   9.750   1.486   8.538
27505WAT     H182757   9.758   1.585   8.545
27505WAT     H282758   9.812   1.444   8.604
27506WAT      O82759   8.214   9.436   1.785
27506WAT     H182760   8.208   9.456   1.688
27506WAT     H282761   8.174   9.347   1.804
27507WAT      O82762   9.822   9.622   9.374
27507WAT     H182763   9.740   9.674   9.350
27507WAT     H282764   9.847   9.562   9.298
27508WAT      O82765   1.622   8.105   6.074
27508WAT     H182766   1.602   8.037   6.004
27508WAT     H282767   1.680   8.177   6.036
27509WAT      O82768   6.780   0.389   1.081
27509WAT     H182769   6.727   0.432   1.155
27509WAT     H282770   6.721   0.326   1.030
27510WAT      O82771   7.703   1.002   7.725
27510WAT     H182772   7.757   0.937   7.672
27510WAT     H282773   7.754   1.088   7.734
27511WAT      O82774   8.585   0.771   2.396
27511WAT     H182775   8.638   0.749   2.479
27511WAT     H282776   8.592   0.869   2.377
27512WAT      O82777   0.778   9.821   3.822
27512WAT     H182778   0.689   9.839   3.862
27512WAT     H282779   0.792   9.723   3.812
27513WAT      O82780   3.167   7.211   0.208
27513WAT     H182781   3.239   7.146   0.183
27513WAT     H282782   3.198   7.267   0.285
27514WAT      O82783   3.542   5.156   3.412
27514WAT     H182784   3.627   5.136   3.460
27514WAT     H282785   3.472   5.091   3.441
27515WAT      O82786   1.559   3.764   8.926
27515WAT     H182787   1.646   3.761   8.975
27515WAT     H282788   1.511   3.848   8.949
27516WAT      O82789   0.924   2.696   1.964
27516WAT     H182790   0.851   2.737   2.020
27516WAT     H282791   0.996   2.661   2.024
27517WAT      O82792   4.570   7.238   7.073
27517WAT     H182793   4.645   7.183   7.035
27517WAT     H282794   4.603   7.331   7.090
27518WAT      O82795   1.476   9.274   0.348
27518WAT     H182796   1.379   9.249   0.348
27518WAT     H282797   1.521   9.231   0.426
27519WAT      O82798   0.610   3.594   5.267
27519WAT     H182799   0.643   3.581   5.173
27519WAT     H282800   0.647   3.523   5.326
27520WAT      O82801   2.519   9.487   7.039
27520WAT     H182802   2.603   9.436   7.018
27520WAT     H282803   2.541   9.584   7.044
27521WAT      O82804   5.219   7.870   4.758
27521WAT     H182805   5.281   7.794   4.775
27521WAT     H282806   5.238   7.910   4.668
27522WAT      O82807   0.100   5.680   3.514
27522WAT     H182808   0.050   5.742   3.453
27522WAT     H282809   0.121   5.727   3.599
27523WAT      O82810   3.700   8.802   1.296
27523WAT     H182811   3.796   8.781   1.315
27523WAT     H282812   3.665   8.739   1.228
27524WAT      O82813   9.838   0.367   2.016
27524WAT     H182814   9.857   0.429   2.092
27524WAT     H282815   9.793   0.417   1.942
27525WAT      O82816   6.836   1.750   3.728
27525WAT     H182817   6.804   1.709   3.813
27525WAT     H282818   6.881   1.837   3.748
27526WAT      O82819   1.496   9.196   9.735
27526WAT     H182820   1.468   9.256   9.811
27526WAT     H282821   1.591   9.216   9.711
27527WAT      O82822   7.447   8.996   1.327
27527WAT     H182823   7.510   8.919   1.315
27527WAT     H282824   7.496   9.082   1.311
27528WAT      O82825   5.354   5.859   1.159
27528WAT     H182826   5.321   5.772   1.196
27528WAT     H282827   5.393   5.914   1.233
27529WAT      O82828   5.528   4.891   2.528
27529WAT     H182829   5.561   4.853   2.614
27529WAT     H282830   5.471   4.824   2.481
27530WAT      O82831   2.568   7.532   8.578
27530WAT     H182832   2.558   7.462   8.507
27530WAT     H282833   2.654   7.582   8.564
27531WAT      O82834   2.617   8.403   0.202
27531WAT     H182835   2.644   8.314   0.165
27531WAT     H282836   2.680   8.429   0.275
27532WAT      O82837   4.379   6.758   9.727
27532WAT     H182838   4.422   6.674   9.759
27532WAT     H282839   4.438   6.836   9.749
27533WAT      O82840   7.258   0.891   7.594
27533WAT     H182841   7.244   0.816   7.529
27533WAT     H282842   7.193   0.882   7.669
27534WAT      O82843   4.853   3.796   7.677
27534WAT     H182844   4.879   3.886   7.711
27534WAT     H282845   4.916   3.768   7.604
27535WAT      O82846   9.575   8.731   8.799
27535WAT     H182847   9.546   8.752   8.705
27535WAT     H282848   9.575   8.814   8.854
27536WAT      O82849   8.294   8.355   8.198
27536WAT     H182850   8.221   8.424   8.194
27536WAT     H282851   8.342   8.352   8.110
27537WAT      O82852   8.995   5.927   0.379
27537WAT     H182853   8.944   5.919   0.464
27537WAT     H282854   8.932   5.943   0.303
27538WAT      O82855   4.151   5.649   9.760
27538WAT     H182856   4.219   5.580   9.736
27538WAT     H282857   4.093   5.668   9.681
27539WAT      O82858   1.867   1.874   6.629
27539WAT     H182859   1.844   1.818   6.709
27539WAT     H282860   1.807   1.850   6.553
27540WAT      O82861   7.073   6.219   2.413
27540WAT     H182862   7.054   6.219   2.511
27540WAT     H282863   7.171   6.225   2.397
27541WAT      O82864   1.164   4.116   6.764
27541WAT     H182865   1.121   4.080   6.681
27541WAT     H282866   1.177   4.041   6.829
27542WAT      O82867   4.215   0.825   7.268
27542WAT     H182868   4.250   0.846   7.177
27542WAT     H282869   4.134   0.766   7.260
27543WAT      O82870   8.322   1.847   6.924
27543WAT     H182871   8.407   1.886   6.960
27543WAT     H282872   8.270   1.806   6.999
27544WAT      O82873   7.248   3.017   1.532
27544WAT     H182874   7.251   2.917   1.538
27544WAT     H282875   7.330   3.050   1.485
27545WAT      O82876   2.076   2.553   6.088
27545WAT     H182877   2.021   2.632   6.058
27545WAT     H282878   2.173   2.577   6.082
27546WAT      O82879   4.064   0.100   9.606
27546WAT     H182880   4.092   0.055   9.691
27546WAT     H282881   3.973   0.138   9.617
27547WAT      O82882   2.225   8.708   2.775
27547WAT     H182883   2.214   8.615   2.809
27547WAT     H282884   2.286   8.759   2.837
27548WAT      O82885   5.517   7.514   5.672
27548WAT     H182886   5.435   7.500   5.728
27548WAT     H282887   5.585   7.444   5.692
27549WAT      O82888   0.423   7.693   3.339
27549WAT     H182889   0.521   7.703   3.356
27549WAT     H282890   0.395   7.600   3.365
27550WAT      O82891   4.018   7.753   5.660
27550WAT     H182892   4.064   7.759   5.572
27550WAT     H282893   4.082   7.716   5.728
27551WAT      O82894   0.834   4.842   8.424
27551WAT     H182895   0.764   4.910   8.401
27551WAT     H282896   0.860   4.853   8.519
27552WAT      O82897   9.172   1.798   9.569
27552WAT     H182898   9.137   1.880   9.524
27552WAT     H282899   9.271   1.794   9.556
27553WAT      O82900   3.798   7.324   6.965
27553WAT     H182901   3.809   7.416   7.003
27553WAT     H282902   3.760   7.263   7.035
27554WAT      O82903   3.921   9.408   1.226
27554WAT     H182904   3.981   9.329   1.216
27554WAT     H282905   3.855   9.391   1.299
27555WAT      O82906   8.982   3.922   5.438
27555WAT     H182907   9.032   3.843   5.471
27555WAT     H282908   8.962   3.983   5.515
27556WAT      O82909   3.143   2.250   5.357
27556WAT     H182910   3.194   2.302   5.289
27556WAT     H282911   3.186   2.261   5.447
27557WAT      O82912   9.824   2.838   8.051
27557WAT     H182913   9.856   2.908   7.987
27557WAT     H282914   9.805   2.753   8.000
27558WAT      O82915   7.360   5.437   8.629
27558WAT     H182916   7.339   5.465   8.535
27558WAT     H282917   7.374   5.519   8.685
27559WAT      O82918   5.527   9.518   4.289
27559WAT     H182919   5.473   9.603   4.286
27559WAT     H282920   5.479   9.446   4.239
27560WAT      O82921   4.635   9.019   2.265
27560WAT     H182922   4.600   9.082   2.334
27560WAT     H282923   4.631   9.061   2.175
27561WAT      O82924   4.551   9.223   8.326
27561WAT     H182925   4.514   9.270   8.246
27561WAT     H282926   4.502   9.254   8.408
27562WAT      O82927   4.415   5.797   9.590
27562WAT     H182928   4.373   5.848   9.664
27562WAT     H282929   4.504   5.837   9.568
27563WAT      O82930   6.372   8.650   8.902
27563WAT     H182931   6.438   8.721   8.925
27563WAT     H282932   6.388   8.569   8.959
27564WAT      O82933   3.232   2.423   8.235
27564WAT     H182934   3.314   2.402   8.289
27564WAT     H282935   3.251   2.407   8.138
27565WAT      O82936   3.362   7.674   5.468
27565WAT     H182937   3.385   7.693   5.563
27565WAT     H282938   3.309   7.750   5.430
27566WAT      O82939   8.740   3.657   2.731
27566WAT     H182940   8.725   3.664   2.830
27566WAT     H282941   8.812   3.720   2.703
27567WAT      O82942   8.053   2.258   6.776
27567WAT     H182943   8.067   2.325   6.703
27567WAT     H282944   7.956   2.255   6.800
27568WAT      O82945   1.867   5.917   3.817
27568WAT     H182946   1.966   5.905   3.809
27568WAT     H282947   1.845   6.015   3.816
27569WAT      O82948   6.709   7.312   4.523
27569WAT     H182949   6.748   7.237   4.576
27569WAT     H282950   6.741   7.399   4.561
27570WAT      O82951   1.723   1.760   2.964
27570WAT     H182952   1.678   1.757   2.875
27570WAT     H282953   1.714   1.671   3.009
27571WAT      O82954   3.039   4.364   6.391
27571WAT     H182955   3.114   4.343   6.329
27571WAT     H282956   3.020   4.462   6.390
27572WAT      O82957   7.361   3.992   2.639
27572WAT     H182958   7.401   4.030   2.723
27572WAT     H282959   7.305   4.062   2.595
27573WAT      O82960   2.362   1.695   3.875
27573WAT     H182961   2.425   1.618   3.861
27573WAT     H282962   2.268   1.662   3.874
27574WAT      O82963   3.591   8.824   6.911
27574WAT     H182964   3.636   8.787   6.830
27574WAT     H282965   3.633   8.911   6.936
27575WAT      O82966   3.747   1.894   3.560
27575WAT     H182967   3.780   1.805   3.527
27575WAT     H282968   3.792   1.916   3.646
27576WAT      O82969   0.813   8.118   2.166
27576WAT     H182970   0.730   8.061   2.164
27576WAT     H282971   0.892   8.061   2.189
27577WAT      O82972   5.193   7.846   6.859
27577WAT     H182973   5.190   7.934   6.811
27577WAT     H282974   5.208   7.861   6.956
27578WAT      O82975   7.892   2.523   2.768
27578WAT     H182976   7.865   2.582   2.692
27578WAT     H282977   7.932   2.578   2.841
27579WAT      O82978   4.483   5.437   8.800
27579WAT     H182979   4.568   5.481   8.827
27579WAT     H282980   4.408   5.471   8.857
27580WAT      O82981   2.082   3.243   2.590
27580WAT     H182982   2.043   3.151   2.580
27580WAT     H282983   2.178   3.241   2.562
27581WAT      O82984   1.031   0.210   0.703
27581WAT     H182985   1.005   0.245   0.793
27581WAT     H282986   1.123   0.170   0.709
27582WAT      O82987   1.092   6.894   7.895
27582WAT     H182988   1.134   6.897   7.986
27582WAT     H282989   1.047   6.805   7.883
27583WAT      O82990   9.466   8.724   1.063
27583WAT     H182991   9.411   8.698   0.984
27583WAT     H282992   9.541   8.658   1.075
27584WAT      O82993   5.286   0.859   5.919
27584WAT     H182994   5.298   0.848   6.018
27584WAT     H282995   5.253   0.773   5.880
27585WAT      O82996   1.618   6.622   3.154
27585WAT     H182997   1.548   6.562   3.116
27585WAT     H282998   1.647   6.689   3.085
27586WAT      O82999   1.261   9.527   8.404
27586WAT     H183000   1.174   9.577   8.407
27586WAT     H283001   1.336   9.589   8.422
27587WAT      O83002   5.116   9.366   2.025
27587WAT     H183003   5.070   9.314   2.097
27587WAT     H283004   5.073   9.345   1.937
27588WAT      O83005   0.514   4.908   5.276
27588WAT     H183006   0.608   4.934   5.257
27588WAT     H283007   0.511   4.847   5.355
27589WAT      O83008   9.777   5.124   2.470
27589WAT     H183009   9.825   5.167   2.394
27589WAT     H283010   9.824   5.145   2.556
27590WAT      O83011   6.736   4.063   5.778
27590WAT     H183012   6.727   3.966   5.798
27590WAT     H283013   6.654   4.111   5.809
27591WAT      O83014   2.997   0.932   5.920
27591WAT     H183015   2.920   0.978   5.876
27591WAT     H283016   3.062   0.999   5.954
27592WAT      O83017   1.289   2.349   5.214
27592WAT     H183018   1.274   2.448   5.210
27592WAT     H283019   1.379   2.330   5.252
27593WAT      O83020   9.837   8.142   0.710
27593WAT     H183021   9.747   8.098   0.719
27593WAT     H283022   9.908   8.071   0.710
27594WAT      O83023   3.842   3.129   9.718
27594WAT     H183024   3.745   3.129   9.695
27594WAT     H283025   3.855   3.167   9.809
27595WAT      O83026   0.697   3.230   1.638
27595WAT     H183027   0.654   3.191   1.557
27595WAT     H283028   0.769   3.169   1.670
27596WAT      O83029   7.329   7.521   3.106
27596WAT     H183030   7.398   7.581   3.147
27596WAT     H283031   7.368   7.474   3.027
27597WAT      O83032   2.244   2.660   3.682
27597WAT     H183033   2.308   2.731   3.652
27597WAT     H283034   2.153   2.681   3.648
27598WAT      O83035   3.935   1.528   6.090
27598WAT     H183036   3.917   1.431   6.104
27598WAT     H283037   3.921   1.577   6.176
27599WAT      O83038   9.245   5.667   3.504
27599WAT     H183039   9.154   5.698   3.532
27599WAT     H283040   9.240   5.631   3.410
27600WAT      O83041   1.529   5.177   0.123
27600WAT     H183042   1.481   5.091   0.102
27600WAT     H283043   1.621   5.174   0.084
27601WAT      O83044   0.469   2.624   7.832
27601WAT     H183045   0.536   2.574   7.885
27601WAT     H283046   0.508   2.650   7.743
27602WAT      O83047   8.900   9.508   4.355
27602WAT     H183048   8.980   9.558   4.320
27602WAT     H283049   8.817   9.549   4.318
27603WAT      O83050   0.208   6.556   4.858
27603WAT     H183051   0.191   6.550   4.956
27603WAT     H283052   0.179   6.645   4.824
27604WAT      O83053   0.088   3.081   2.823
27604WAT     H183054   0.178   3.069   2.780
27604WAT     H283055   0.017   3.052   2.759
27605WAT      O83056   5.499   0.524   8.959
27605WAT     H183057   5.555   0.446   8.986
27605WAT     H283058   5.524   0.604   9.013
27606WAT      O83059   8.579   8.209   4.165
27606WAT     H183060   8.563   8.305   4.187
27606WAT     H283061   8.550   8.152   4.241
27607WAT      O83062   0.112   8.468   6.126
27607WAT     H183063   0.076   8.503   6.212
27607WAT     H283064   0.063   8.384   6.101
27608WAT      O83065   5.478   6.811   1.432
27608WAT     H183066   5.460   6.888   1.370
27608WAT     H283067   5.530   6.843   1.511
27609WAT      O83068   9.534   3.059   5.287
27609WAT     H183069   9.519   3.088   5.193
27609WAT     H283070   9.570   3.136   5.340
27610WAT      O83071   3.494   8.775   7.567
27610WAT     H183072   3.476   8.728   7.653
27610WAT     H283073   3.428   8.849   7.555
27611WAT      O83074   7.130   3.767   0.696
27611WAT     H183075   7.156   3.672   0.682
27611WAT     H283076   7.133   3.789   0.794
27612WAT      O83077   3.141   1.893   8.484
27612WAT     H183078   3.132   1.894   8.384
27612WAT     H283079   3.214   1.829   8.510
27613WAT      O83080   1.271   2.762   7.691
27613WAT     H183081   1.173   2.780   7.684
27613WAT     H283082   1.322   2.837   7.646
27614WAT      O83083   3.197   2.315   1.737
27614WAT     H183084   3.215   2.241   1.801
27614WAT     H283085   3.173   2.398   1.787
27615WAT      O83086   2.548   3.616   1.762
27615WAT     H183087   2.481   3.685   1.732
27615WAT     H283088   2.638   3.639   1.726
27616WAT      O83089   2.535   8.158   6.874
27616WAT     H183090   2.523   8.153   6.775
27616WAT     H283091   2.616   8.213   6.894
27617WAT      O83092   6.983   3.768   8.220
27617WAT     H183093   7.065   3.804   8.177
27617WAT     H283094   6.966   3.675   8.188
27618WAT      O83095   4.619   0.461   6.202
27618WAT     H183096   4.603   0.376   6.252
27618WAT     H283097   4.548   0.527   6.226
27619WAT      O83098   8.529   9.034   3.767
27619WAT     H183099   8.430   9.024   3.778
27619WAT     H283100   8.554   9.020   3.671
27620WAT      O83101   7.382   2.829   8.630
27620WAT     H183102   7.441   2.880   8.692
27620WAT     H283103   7.299   2.801   8.677
27621WAT      O83104   4.289   0.155   0.875
27621WAT     H183105   4.298   0.212   0.793
27621WAT     H283106   4.358   0.083   0.872
27622WAT      O83107   3.569   2.618   6.953
27622WAT     H183108   3.593   2.664   6.868
27622WAT     H283109   3.472   2.632   6.973
27623WAT      O83110   6.218   1.108   2.815
27623WAT     H183111   6.234   1.104   2.717
27623WAT     H283112   6.292   1.159   2.859
27624WAT      O83113   2.542   0.992   6.731
27624WAT     H183114   2.555   1.061   6.802
27624WAT     H283115   2.529   0.902   6.773
27625WAT      O83116   6.694   3.299   0.807
27625WAT     H183117   6.694   3.292   0.906
27625WAT     H283118   6.739   3.384   0.779
27626WAT      O83119   1.730   7.263   7.165
27626WAT     H183120   1.634   7.290   7.151
27626WAT     H283121   1.734   7.170   7.201
27627WAT      O83122   8.681   2.061   1.216
27627WAT     H183123   8.746   2.078   1.141
27627WAT     H283124   8.620   2.140   1.226
27628WAT      O83125   5.385   6.903   9.159
27628WAT     H183126   5.373   6.946   9.069
27628WAT     H283127   5.445   6.959   9.215
27629WAT      O83128   6.603   9.345   6.014
27629WAT     H183129   6.676   9.413   6.025
27629WAT     H283130   6.631   9.277   5.947
27630WAT      O83131   5.037   1.919   8.395
27630WAT     H183132   5.065   1.926   8.491
27630WAT     H283133   5.011   2.009   8.361
27631WAT      O83134   6.815   0.844   0.343
27631WAT     H183135   6.885   0.853   0.272
27631WAT     H283136   6.767   0.756   0.331
27632WAT      O83137   4.031   1.436   2.971
27632WAT     H183138   4.095   1.439   2.894
27632WAT     H283139   4.068   1.377   3.042
27633WAT      O83140   2.106   0.549   6.289
27633WAT     H183141   2.091   0.646   6.309
27633WAT     H283142   2.122   0.500   6.374
27634WAT      O83143   1.774   9.747   0.212
27634WAT     H183144   1.837   9.760   0.289
27634WAT     H283145   1.768   9.832   0.159
27635WAT      O83146   5.242   1.573   8.141
27635WAT     H183147   5.236   1.598   8.044
27635WAT     H283148   5.259   1.656   8.195
27636WAT      O83149   1.631   9.112   1.671
27636WAT     H183150   1.612   9.127   1.768
27636WAT     H283151   1.546   9.086   1.624
27637WAT      O83152   1.002   6.915   3.897
27637WAT     H183153   0.950   6.894   3.814
27637WAT     H283154   1.070   6.986   3.877
27638WAT      O83155   6.941   0.699   6.302
27638WAT     H183156   7.012   0.653   6.248
27638WAT     H283157   6.966   0.695   6.399
27639WAT      O83158   0.104   0.262   8.807
27639WAT     H183159   0.131   0.182   8.753
27639WAT     H283160   0.039   0.233   8.879
27640WAT      O83161   6.400   7.593   0.673
27640WAT     H183162   6.454   7.509   0.660
27640WAT     H283163   6.458   7.672   0.654
27641WAT      O83164   0.758   0.531   0.474
27641WAT     H183165   0.737   0.479   0.392
27641WAT     H283166   0.849   0.505   0.507
27642WAT      O83167   3.170   8.462   8.559
27642WAT     H183168   3.070   8.460   8.568
27642WAT     H283169   3.195   8.514   8.476
27643WAT      O83170   9.504   4.333   5.297
27643WAT     H183171   9.435   4.297   5.234
27643WAT     H283172   9.480   4.426   5.324
27644WAT      O83173   5.787   1.742   2.565
27644WAT     H183174   5.792   1.782   2.473
27644WAT     H283175   5.874   1.696   2.586
27645WAT      O83176   5.868   8.607   7.360
27645WAT     H183177   5.892   8.569   7.450
27645WAT     H283178   5.827   8.697   7.373
27646WAT      O83179   2.236   0.622   5.401
27646WAT     H183180   2.314   0.582   5.447
27646WAT     H283181   2.243   0.606   5.302
27647WAT      O83182   2.240   8.078   0.536
27647WAT     H183183   2.326   8.089   0.586
27647WAT     H283184   2.198   8.167   0.521
27648WAT      O83185   4.754   7.527   5.584
27648WAT     H183186   4.662   7.488   5.593
27648WAT     H283187   4.820   7.453   5.574
27649WAT      O83188   8.160   3.749   2.955
27649WAT     H183189   8.135   3.793   3.042
27649WAT     H283190   8.208   3.814   2.897
27650WAT      O83191   6.146   9.605   5.529
27650WAT     H183192   6.144   9.506   5.543
27650WAT     H283193   6.136   9.625   5.431
27651WAT      O83194   9.215   9.428   6.287
27651WAT     H183195   9.279   9.363   6.327
27651WAT     H283196   9.264   9.493   6.229
27652WAT      O83197   6.394   8.062   6.158
27652WAT     H183198   6.473   8.015   6.197
27652WAT     H283199   6.362   8.013   6.077
27653WAT      O83200   5.151   7.215   2.861
27653WAT     H183201   5.058   7.230   2.896
27653WAT     H283202   5.186   7.300   2.823
27654WAT      O83203   3.323   6.660   6.875
27654WAT     H183204   3.244   6.710   6.912
27654WAT     H283205   3.406   6.711   6.895
27655WAT      O83206   4.024   5.399   6.561
27655WAT     H183207   4.088   5.330   6.527
27655WAT     H283208   3.971   5.437   6.485
27656WAT      O83209   9.463   4.986   7.580
27656WAT     H183210   9.463   4.954   7.674
27656WAT     H283211   9.542   5.045   7.564
27657WAT      O83212   8.183   0.576   5.876
27657WAT     H183213   8.099   0.572   5.822
27657WAT     H283214   8.164   0.620   5.964
27658WAT      O83215   6.217   7.539   5.704
27658WAT     H183216   6.315   7.558   5.705
27658WAT     H283217   6.203   7.440   5.711
27659WAT      O83218   2.702   7.148   7.246
27659WAT     H183219   2.755   7.097   7.178
27659WAT     H283220   2.609   7.113   7.249
27660WAT      O83221   7.518   6.007   1.660
27660WAT     H183222   7.615   6.006   1.683
27660WAT     H283223   7.468   5.951   1.726
27661WAT      O83224   8.484   5.366   3.481
27661WAT     H183225   8.385   5.376   3.479
27661WAT     H283226   8.510   5.307   3.558
27662WAT      O83227   2.082   9.133   8.824
27662WAT     H183228   2.038   9.091   8.904
27662WAT     H283229   2.042   9.223   8.808
27663WAT      O83230   7.408   9.475   8.555
27663WAT     H183231   7.347   9.543   8.515
27663WAT     H283232   7.358   9.419   8.621
27664WAT      O83233   4.558   6.906   8.449
27664WAT     H183234   4.544   6.922   8.351
27664WAT     H283235   4.493   6.961   8.501
27665WAT      O83236   8.969   3.216   4.004
27665WAT     H183237   8.937   3.135   3.956
27665WAT     H283238   9.020   3.274   3.941
27666WAT      O83239   8.089   3.199   9.363
27666WAT     H183240   8.163   3.266   9.360
27666WAT     H283241   8.053   3.185   9.271
27667WAT      O83242   4.902   0.135   6.703
27667WAT     H183243   4.845   0.206   6.660
27667WAT     H283244   4.961   0.094   6.633
27668WAT      O83245   0.505   3.656   5.767
27668WAT     H183246   0.558   3.717   5.707
27668WAT     H283247   0.516   3.562   5.736
27669WAT      O83248   4.741   7.795   0.337
27669WAT     H183249   4.810   7.729   0.310
27669WAT     H283250   4.766   7.886   0.304
27670WAT      O83251   3.233   9.024   5.998
27670WAT     H183252   3.293   8.958   5.953
27670WAT     H283253   3.278   9.058   6.082
27671WAT      O83254   8.007   7.792   6.538
27671WAT     H183255   8.030   7.875   6.588
27671WAT     H283256   8.011   7.809   6.440
27672WAT      O83257   7.341   4.216   5.989
27672WAT     H183258   7.373   4.211   5.894
27672WAT     H283259   7.256   4.267   5.993
27673WAT      O83260   8.574   4.453   3.985
27673WAT     H183261   8.552   4.447   4.083
27673WAT     H283262   8.597   4.548   3.963
27674WAT      O83263   6.599   6.596   6.007
27674WAT     H183264   6.590   6.635   5.915
27674WAT     H283265   6.574   6.500   6.005
27675WAT      O83266   1.675   0.470   5.956
27675WAT     H183267   1.693   0.441   5.862
27675WAT     H283268   1.760   0.501   5.998
27676WAT      O83269   7.240   3.916   3.204
27676WAT     H183270   7.167   3.980   3.227
27676WAT     H283271   7.202   3.838   3.155
27677WAT      O83272   7.927   9.790   4.361
27677WAT     H183273   7.850   9.776   4.423
27677WAT     H283274   7.972   9.702   4.343
27678WAT      O83275   8.599   1.737   3.108
27678WAT     H183276   8.551   1.802   3.048
27678WAT     H283277   8.618   1.781   3.196
27679WAT      O83278   9.497   9.808   5.213
27679WAT     H183279   9.539   9.767   5.132
27679WAT     H283280   9.514   9.906   5.213
27680WAT      O83281   4.059   3.813   2.889
27680WAT     H183282   4.122   3.745   2.926
27680WAT     H283283   4.104   3.862   2.814
27681WAT      O83284   0.334   6.520   8.933
27681WAT     H183285   0.293   6.611   8.926
27681WAT     H283286   0.280   6.464   8.996
27682WAT      O83287   3.969   0.464   4.390
27682WAT     H183288   3.987   0.370   4.420
27682WAT     H283289   3.892   0.501   4.442
27683WAT      O83290   7.305   5.186   1.960
27683WAT     H183291   7.387   5.154   2.006
27683WAT     H283292   7.323   5.199   1.862
27684WAT      O83293   9.183   7.136   9.195
27684WAT     H183294   9.213   7.230   9.212
27684WAT     H283295   9.240   7.095   9.125
27685WAT      O83296   7.271   4.089   1.270
27685WAT     H183297   7.284   4.169   1.328
27685WAT     H283298   7.343   4.022   1.289
27686WAT      O83299   2.076   7.234   4.948
27686WAT     H183300   2.172   7.217   4.929
27686WAT     H283301   2.063   7.241   5.047
27687WAT      O83302   0.151   8.542   2.681
27687WAT     H183303   0.187   8.470   2.621
27687WAT     H283304   0.227   8.598   2.715
27688WAT      O83305   2.051   4.802   5.812
27688WAT     H183306   2.142   4.836   5.792
27688WAT     H283307   1.988   4.830   5.740
27689WAT      O83308   8.362   4.757   5.949
27689WAT     H183309   8.368   4.845   5.902
27689WAT     H283310   8.421   4.759   6.029
27690WAT      O83311   5.561   6.843   2.304
27690WAT     H183312   5.503   6.911   2.258
27690WAT     H283313   5.632   6.890   2.357
27691WAT      O83314   8.023   5.936   0.046
27691WAT     H183315   7.964   5.858   0.062
27691WAT     H283316   8.042   5.982   0.133
27692WAT      O83317   9.734   1.987   0.630
27692WAT     H183318   9.768   2.027   0.545
27692WAT     H283319   9.635   2.000   0.635
27693WAT      O83320   0.354   8.858   0.279
27693WAT     H183321   0.369   8.860   0.378
27693WAT     H283322   0.280   8.795   0.258
27694WAT      O83323   9.492   8.497   5.099
27694WAT     H183324   9.426   8.437   5.145
27694WAT     H283325   9.513   8.574   5.159
27695WAT      O83326   3.115   3.780   3.343
27695WAT     H183327   3.074   3.823   3.262
27695WAT     H283328   3.165   3.699   3.315
27696WAT      O83329   9.166   9.746   4.523
27696WAT     H183330   9.194   9.763   4.618
27696WAT     H283331   9.132   9.652   4.515
27697WAT      O83332   8.600   1.499   0.270
27697WAT     H183333   8.678   1.506   0.332
27697WAT     H283334   8.632   1.502   0.175
27698WAT      O83335   2.778   6.621   4.341
27698WAT     H183336   2.753   6.718   4.344
27698WAT     H283337   2.844   6.606   4.267
27699WAT      O83338   2.006   6.649   9.245
27699WAT     H183339   2.103   6.630   9.260
27699WAT     H283340   1.971   6.586   9.175
27700WAT      O83341   1.181   2.387   0.536
27700WAT     H183342   1.145   2.428   0.620
27700WAT     H283343   1.266   2.432   0.510
27701WAT      O83344   8.087   0.347   4.949
27701WAT     H183345   8.055   0.277   4.885
27701WAT     H283346   8.045   0.435   4.927
27702WAT      O83347   7.780   6.630   0.093
27702WAT     H183348   7.774   6.705   0.027
27702WAT     H283349   7.831   6.554   0.053
27703WAT      O83350   3.101   4.452   2.817
27703WAT     H183351   3.130   4.459   2.912
27703WAT     H283352   3.171   4.493   2.758
27704WAT      O83353   9.680   2.229   3.590
27704WAT     H183354   9.647   2.216   3.684
27704WAT     H283355   9.707   2.324   3.577
27705WAT      O83356   8.610   6.195   7.821
27705WAT     H183357   8.601   6.282   7.867
27705WAT     H283358   8.590   6.207   7.723
27706WAT      O83359   0.566   5.240   3.592
27706WAT     H183360   0.533   5.211   3.682
27706WAT     H283361   0.634   5.175   3.559
27707WAT      O83362   3.463   8.460   1.332
27707WAT     H183363   3.436   8.433   1.240
27707WAT     H283364   3.484   8.558   1.333
27708WAT      O83365   9.690   5.769   9.597
27708WAT     H183366   9.658   5.699   9.533
27708WAT     H283367   9.726   5.725   9.679
27709WAT      O83368   1.125   1.694   6.164
27709WAT     H183369   1.106   1.713   6.068
27709WAT     H283370   1.194   1.622   6.170
27710WAT      O83371   7.196   8.568   3.298
27710WAT     H183372   7.125   8.530   3.239
27710WAT     H283373   7.170   8.660   3.327
27711WAT      O83374   4.436   3.202   3.040
27711WAT     H183375   4.517   3.183   3.096
27711WAT     H283376   4.424   3.129   2.972
27712WAT      O83377   9.270   5.787   3.884
27712WAT     H183378   9.304   5.881   3.888
27712WAT     H283379   9.328   5.732   3.824
27713WAT      O83380   8.840   6.386   0.567
27713WAT     H183381   8.902   6.316   0.601
27713WAT     H283382   8.865   6.411   0.474
27714WAT      O83383   7.847   3.758   3.776
27714WAT     H183384   7.893   3.670   3.772
27714WAT     H283385   7.845   3.799   3.685
27715WAT      O83386   7.530   7.328   5.747
27715WAT     H183387   7.510   7.311   5.650
27715WAT     H283388   7.622   7.367   5.755
27716WAT      O83389   6.248   8.662   9.684
27716WAT     H183390   6.276   8.750   9.724
27716WAT     H283391   6.304   8.644   9.603
27717WAT      O83392   3.325   8.486   7.412
27717WAT     H183393   3.389   8.479   7.488
27717WAT     H283394   3.362   8.548   7.342
27718WAT      O83395   0.716   6.899   2.749
27718WAT     H183396   0.796   6.880   2.806
27718WAT     H283397   0.664   6.974   2.790
27719WAT      O83398   0.744   9.634   8.702
27719WAT     H183399   0.762   9.716   8.647
27719WAT     H283400   0.676   9.577   8.656
27720WAT      O83401   3.415   0.292   3.077
27720WAT     H183402   3.325   0.335   3.067
27720WAT     H283403   3.470   0.308   2.995
27721WAT      O83404   0.798   8.111   5.594
27721WAT     H183405   0.785   8.209   5.580
27721WAT     H283406   0.878   8.096   5.652
27722WAT      O83407   4.088   6.460   5.304
27722WAT     H183408   4.056   6.395   5.235
27722WAT     H283409   4.020   6.468   5.376
27723WAT      O83410   7.813   2.406   8.855
27723WAT     H183411   7.791   2.310   8.834
27723WAT     H283412   7.850   2.413   8.947
27724WAT      O83413   2.647   7.482   2.657
27724WAT     H183414   2.601   7.558   2.610
27724WAT     H283415   2.746   7.494   2.649
27725WAT      O83416   7.120   5.471   0.348
27725WAT     H183417   7.041   5.526   0.373
27725WAT     H283418   7.177   5.521   0.283
27726WAT      O83419   1.566   3.761   4.828
27726WAT     H183420   1.477   3.715   4.826
27726WAT     H283421   1.635   3.703   4.785
27727WAT      O83422   0.298   0.007   1.516
27727WAT     H183423   0.345  -0.041   1.442
27727WAT     H283424   0.340  -0.015   1.603
27728WAT      O83425   6.828   6.780   7.342
27728WAT     H183426   6.744   6.812   7.387
27728WAT     H283427   6.820   6.682   7.322
27729WAT      O83428   9.828   3.825   9.830
27729WAT     H183429   9.750   3.802   9.888
27729WAT     H283430   9.841   3.924   9.830
27730WAT      O83431   9.322   8.525   2.354
27730WAT     H183432   9.285   8.443   2.398
27730WAT     H283433   9.255   8.561   2.288
27731WAT      O83434   8.657   2.406   9.148
27731WAT     H183435   8.580   2.370   9.201
27731WAT     H283436   8.742   2.367   9.181
27732WAT      O83437   1.481   2.487   1.093
27732WAT     H183438   1.434   2.412   1.046
27732WAT     H283439   1.414   2.551   1.130
27733WAT      O83440   6.456   3.465   4.926
27733WAT     H183441   6.475   3.532   4.998
27733WAT     H283442   6.371   3.490   4.879
27734WAT      O83443   5.502   0.781   9.075
27734WAT     H183444   5.542   0.825   8.995
27734WAT     H283445   5.445   0.847   9.124
27735WAT      O83446   7.504   7.224   8.293
27735WAT     H183447   7.442   7.220   8.215
27735WAT     H283448   7.473   7.294   8.357
27736WAT      O83449   6.147   0.603   9.188
27736WAT     H183450   6.110   0.696   9.190
27736WAT     H283451   6.071   0.537   9.191
27737WAT      O83452   1.063   5.393   1.058
27737WAT     H183453   1.005   5.394   0.977
27737WAT     H283454   1.151   5.436   1.036
27738WAT      O83455   5.175   4.360   7.604
27738WAT     H183456   5.195   4.424   7.530
27738WAT     H283457   5.134   4.277   7.567
27739WAT      O83458   1.479   2.385   3.651
27739WAT     H183459   1.528   2.300   3.670
27739WAT     H283460   1.402   2.366   3.590
27740WAT      O83461   0.427   1.899   1.354
27740WAT     H183462   0.512   1.929   1.312
27740WAT     H283463   0.443   1.818   1.410
27741WAT      O83464   1.366   9.293   6.577
27741WAT     H183465   1.434   9.343   6.523
27741WAT     H283466   1.396   9.288   6.672
27742WAT      O83467   4.259   1.738   5.410
27742WAT     H183468   4.318   1.783   5.477
27742WAT     H283469   4.204   1.807   5.362
27743WAT      O83470   9.746   0.481   2.787
27743WAT     H183471   9.787   0.395   2.755
27743WAT     H283472   9.647   0.471   2.789
27744WAT      O83473   5.773   2.821   9.638
27744WAT     H183474   5.690   2.832   9.692
27744WAT     H283475   5.810   2.910   9.614
27745WAT      O83476   7.281   7.621   1.412
27745WAT     H183477   7.363   7.678   1.416
27745WAT     H283478   7.242   7.613   1.503
27746WAT      O83479   2.574   5.004   4.894
27746WAT     H183480   2.517   4.948   4.953
27746WAT     H283481   2.634   4.946   4.839
27747WAT      O83482   7.256   8.458   5.796
27747WAT     H183483   7.215   8.383   5.744
27747WAT     H283484   7.220   8.545   5.763
27748WAT      O83485   4.709   3.687   6.162
27748WAT     H183486   4.641   3.726   6.223
27748WAT     H283487   4.688   3.712   6.067
27749WAT      O83488   3.762   1.571   4.142
27749WAT     H183489   3.718   1.601   4.057
27749WAT     H283490   3.861   1.581   4.133
27750WAT      O83491   4.457   3.978   8.609
27750WAT     H183492   4.435   3.889   8.569
27750WAT     H283493   4.490   3.965   8.702
27751WAT      O83494   0.356   2.134   4.856
27751WAT     H183495   0.347   2.184   4.770
27751WAT     H283496   0.274   2.148   4.912
27752WAT      O83497   9.423   0.638   3.219
27752WAT     H183498   9.518   0.662   3.199
27752WAT     H283499   9.372   0.721   3.244
27753WAT      O83500   6.757   1.027   2.663
27753WAT     H183501   6.689   1.072   2.606
27753WAT     H283502   6.784   1.088   2.738
27754WAT      O83503   3.612   1.427   7.630
27754WAT     H183504   3.684   1.480   7.675
27754WAT     H283505   3.616   1.443   7.531
27755WAT      O83506   7.193   7.375   6.972
27755WAT     H183507   7.174   7.291   6.921
27755WAT     H283508   7.247   7.352   7.053
27756WAT      O83509   9.238   1.023   3.106
27756WAT     H183510   9.213   1.110   3.150
27756WAT     H283511   9.160   0.990   3.052
27757WAT      O83512   2.687   8.271   3.518
27757WAT     H183513   2.682   8.192   3.456
27757WAT     H283514   2.639   8.348   3.477
27758WAT      O83515   5.283   7.647   3.890
27758WAT     H183516   5.191   7.686   3.889
27758WAT     H283517   5.310   7.628   3.984
27759WAT      O83518   7.583   0.082   7.640
27759WAT     H183519   7.651   0.117   7.576
27759WAT     H283520   7.537   0.158   7.685
27760WAT      O83521   1.869   3.316   2.414
27760WAT     H183522   1.940   3.291   2.480
27760WAT     H283523   1.902   3.297   2.322
27761WAT      O83524   5.046   8.455   4.328
27761WAT     H183525   5.114   8.528   4.324
27761WAT     H283526   4.991   8.457   4.244
27762WAT      O83527   5.916   9.408   3.859
27762WAT     H183528   5.916   9.311   3.882
27762WAT     H283529   5.864   9.459   3.927
27763WAT      O83530   2.188   2.963   3.159
27763WAT     H183531   2.143   2.902   3.224
27763WAT     H283532   2.132   2.972   3.077
27764WAT      O83533   8.353   0.298   4.662
27764WAT     H183534   8.334   0.388   4.699
27764WAT     H283535   8.358   0.303   4.562
27765WAT      O83536   1.174   8.971   0.027
27765WAT     H183537   1.273   8.982   0.026
27765WAT     H283538   1.133   9.028  -0.044
27766WAT      O83539   3.314   7.811   9.551
27766WAT     H183540   3.220   7.818   9.517
27766WAT     H283541   3.325   7.725   9.601
27767WAT      O83542   1.195   3.500   9.698
27767WAT     H183543   1.133   3.562   9.745
27767WAT     H283544   1.194   3.521   9.600
27768WAT      O83545   0.561   4.329   2.786
27768WAT     H183546   0.552   4.245   2.733
27768WAT     H283547   0.633   4.319   2.854
27769WAT      O83548   6.489   9.034   2.063
27769WAT     H183549   6.432   9.097   2.009
27769WAT     H283550   6.430   8.978   2.121
27770WAT      O83551   0.186   9.413   7.179
27770WAT     H183552   0.205   9.369   7.091
27770WAT     H283553   0.189   9.513   7.167
27771WAT      O83554   6.788   8.910   0.250
27771WAT     H183555   6.716   8.975   0.273
27771WAT     H283556   6.840   8.886   0.333
27772WAT      O83557   8.989   6.347   2.712
27772WAT     H183558   9.020   6.391   2.628
27772WAT     H283559   9.057   6.281   2.743
27773WAT      O83560   2.126   3.520   6.201
27773WAT     H183561   2.160   3.599   6.150
27773WAT     H283562   2.139   3.535   6.299
27774WAT      O83563   7.028   8.219   2.649
27774WAT     H183564   6.966   8.215   2.570
27774WAT     H283565   7.109   8.164   2.631
27775WAT      O83566   9.006   2.465   6.724
27775WAT     H183567   8.992   2.524   6.645
27775WAT     H283568   8.981   2.371   6.700
27776WAT      O83569   4.880   5.540   9.796
27776WAT     H183570   4.969   5.584   9.802
27776WAT     H283571   4.814   5.604   9.756
27777WAT      O83572   4.760   8.331   3.879
27777WAT     H183573   4.813   8.329   3.795
27777WAT     H283574   4.662   8.323   3.857
27778WAT      O83575   1.594   0.473   4.016
27778WAT     H183576   1.688   0.448   4.041
27778WAT     H283577   1.583   0.572   4.023
27779WAT      O83578   1.393   8.919   0.682
27779WAT     H183579   1.303   8.910   0.725
27779WAT     H283580   1.451   8.843   0.709
27780WAT      O83581   7.841   0.907   3.989
27780WAT     H183582   7.874   0.924   4.082
27780WAT     H283583   7.759   0.850   3.993
27781WAT      O83584   3.535   0.236   0.241
27781WAT     H183585   3.561   0.330   0.223
27781WAT     H283586   3.609   0.174   0.213
27782WAT      O83587   5.464   8.113   2.919
27782WAT     H183588   5.420   8.044   2.976
27782WAT     H283589   5.418   8.201   2.931
27783WAT      O83590   2.506   7.891   9.875
27783WAT     H183591   2.475   7.798   9.858
27783WAT     H283592   2.441   7.938   9.935
27784WAT      O83593   7.062   5.863   5.367
27784WAT     H183594   6.977   5.813   5.379
27784WAT     H283595   7.123   5.845   5.444
27785WAT      O83596   7.894   8.657   4.907
27785WAT     H183597   7.988   8.682   4.884
27785WAT     H283598   7.843   8.738   4.935
27786WAT      O83599   8.495   6.256   8.829
27786WAT     H183600   8.557   6.324   8.870
27786WAT     H283601   8.545   6.173   8.809
27787WAT      O83602   3.878   7.402   8.565
27787WAT     H183603   3.945   7.406   8.491
27787WAT     H283604   3.892   7.318   8.618
27788WAT      O83605   7.970   4.909   1.262
27788WAT     H183606   7.980   4.868   1.171
27788WAT     H283607   7.883   4.879   1.302
27789WAT      O83608   1.370   2.011   9.741
27789WAT     H183609   1.380   1.929   9.686
27789WAT     H283610   1.364   1.986   9.838
27790WAT      O83611   5.740   5.616   7.103
27790WAT     H183612   5.770   5.531   7.146
27790WAT     H283613   5.676   5.664   7.163
27791WAT      O83614   1.079   9.430   6.330
27791WAT     H183615   1.176   9.417   6.307
27791WAT     H283616   1.025   9.357   6.286
27792WAT      O83617   5.305   0.552   4.999
27792WAT     H183618   5.345   0.572   5.088
27792WAT     H283619   5.375   0.561   4.928
27793WAT      O83620   3.030   0.753   0.138
27793WAT     H183621   2.949   0.750   0.196
27793WAT     H283622   3.047   0.847   0.108
27794WAT      O83623   3.299   5.706   5.647
27794WAT     H183624   3.244   5.756   5.580
27794WAT     H283625   3.308   5.760   5.731
27795WAT      O83626   4.477   0.336   2.995
27795WAT     H183627   4.442   0.400   2.927
27795WAT     H283628   4.556   0.375   3.041
27796WAT      O83629   9.042   7.963   0.643
27796WAT     H183630   9.125   7.912   0.664
27796WAT     H283631   8.976   7.904   0.597
27797WAT      O83632   4.793   3.626   1.764
27797WAT     H183633   4.839   3.710   1.791
27797WAT     H283634   4.845   3.580   1.693
27798WAT      O83635   7.600   1.604   1.936
27798WAT     H183636   7.537   1.605   2.013
27798WAT     H283637   7.662   1.682   1.941
27799WAT      O83638   2.942   7.453   4.571
27799WAT     H183639   2.974   7.388   4.503
27799WAT     H283640   2.991   7.438   4.657
27800WAT      O83641   9.355   7.481   3.457
27800WAT     H183642   9.402   7.394   3.475
27800WAT     H283643   9.403   7.530   3.384
27801WAT      O83644   5.324   7.772   8.555
27801WAT     H183645   5.299   7.716   8.476
27801WAT     H283646   5.256   7.760   8.627
27802WAT      O83647   2.240   8.535   3.227
27802WAT     H183648   2.186   8.455   3.253
27802WAT     H283649   2.299   8.562   3.303
27803WAT      O83650   7.197   9.639   5.651
27803WAT     H183651   7.166   9.545   5.662
27803WAT     H283652   7.243   9.669   5.735
27804WAT      O83653   4.112   9.640   3.122
27804WAT     H183654   4.211   9.625   3.121
27804WAT     H283655   4.090   9.720   3.066
27805WAT      O83656   2.278   5.640   0.270
27805WAT     H183657   2.283   5.586   0.186
27805WAT     H283658   2.329   5.593   0.342
27806WAT      O83659   6.188   5.313   8.226
27806WAT     H183660   6.259   5.377   8.256
27806WAT     H283661   6.098   5.346   8.254
27807WAT      O83662   5.765   9.074   0.968
27807WAT     H183663   5.719   9.083   1.056
27807WAT     H283664   5.698   9.077   0.894
27808WAT      O83665   0.582   3.514   2.432
27808WAT     H183666   0.622   3.577   2.365
27808WAT     H283667   0.653   3.485   2.497
27809WAT      O83668   5.754   5.689   1.054
27809WAT     H183669   5.731   5.627   0.978
27809WAT     H283670   5.845   5.667   1.087
27810WAT      O83671   4.652   2.080   8.727
27810WAT     H183672   4.750   2.067   8.711
27810WAT     H283673   4.640   2.145   8.803
27811WAT      O83674   7.874   8.342   7.896
27811WAT     H183675   7.828   8.253   7.895
27811WAT     H283676   7.860   8.388   7.809
27812WAT      O83677   0.101   6.000   8.834
27812WAT     H183678   0.171   5.976   8.766
27812WAT     H283679   0.146   6.020   8.921
27813WAT      O83680   2.003   3.051   7.249
27813WAT     H183681   2.047   3.130   7.206
27813WAT     H283682   1.906   3.051   7.224
27814WAT      O83683   3.698   7.011   5.960
27814WAT     H183684   3.635   7.089   5.966
27814WAT     H283685   3.757   7.022   5.880
27815WAT      O83686   7.652   1.418   2.777
27815WAT     H183687   7.673   1.455   2.868
27815WAT     H283688   7.640   1.319   2.783
27816WAT      O83689   1.750   3.471   7.643
27816WAT     H183690   1.723   3.548   7.585
27816WAT     H283691   1.812   3.504   7.715
27817WAT      O83692   7.645   6.646   6.218
27817WAT     H183693   7.624   6.739   6.249
27817WAT     H283694   7.583   6.621   6.143
27818WAT      O83695   5.890   6.430   5.143
27818WAT     H183696   5.808   6.373   5.141
27818WAT     H283697   5.917   6.453   5.050
27819WAT      O83698   6.282   8.680   5.487
27819WAT     H183699   6.247   8.774   5.488
27819WAT     H283700   6.213   8.620   5.446
27820WAT      O83701   5.941   1.414   7.453
27820WAT     H183702   5.971   1.450   7.365
27820WAT     H283703   5.841   1.411   7.455
27821WAT      O83704   0.776   8.107   3.228
27821WAT     H183705   0.692   8.137   3.273
27821WAT     H283706   0.843   8.182   3.229
27822WAT      O83707   7.487   1.185   2.477
27822WAT     H183708   7.482   1.142   2.387
27822WAT     H283709   7.564   1.145   2.528
27823WAT      O83710   3.173   6.656   6.131
27823WAT     H183711   3.123   6.571   6.112
27823WAT     H283712   3.129   6.704   6.207
27824WAT      O83713   9.054   8.010   4.679
27824WAT     H183714   9.121   7.940   4.705
27824WAT     H283715   9.100   8.098   4.672
27825WAT      O83716   4.851   1.383   1.872
27825WAT     H183717   4.923   1.317   1.892
27825WAT     H283718   4.783   1.342   1.812
27826WAT      O83719   9.840   2.863   1.133
27826WAT     H183720   9.780   2.907   1.200
27826WAT     H283721   9.934   2.863   1.167
27827WAT      O83722   9.853   0.284   1.475
27827WAT     H183723   9.822   0.196   1.512
27827WAT     H283724   9.819   0.358   1.534
27828WAT      O83725   9.462   9.109   9.748
27828WAT     H183726   9.473   9.152   9.838
27828WAT     H283727   9.536   9.045   9.732
27829WAT      O83728   0.309   4.741   2.551
27829WAT     H183729   0.221   4.786   2.565
27829WAT     H283730   0.365   4.797   2.489
27830WAT      O83731   4.228   0.458   7.192
27830WAT     H183732   4.223   0.453   7.291
27830WAT     H283733   4.137   0.452   7.153
27831WAT      O83734   1.361   4.098   8.735
27831WAT     H183735   1.417   4.173   8.699
27831WAT     H283736   1.413   4.049   8.805
27832WAT      O83737   2.000   9.151   1.426
27832WAT     H183738   2.098   9.172   1.423
27832WAT     H283739   1.955   9.209   1.494
27833WAT      O83740   3.509   2.942   3.495
27833WAT     H183741   3.541   2.981   3.409
27833WAT     H283742   3.528   3.005   3.570
27834WAT      O83743   0.514   4.172   6.248
27834WAT     H183744   0.573   4.152   6.169
27834WAT     H283745   0.460   4.090   6.269
27835WAT      O83746   9.844   7.622   0.827
27835WAT     H183747   9.861   7.660   0.736
27835WAT     H283748   9.829   7.524   0.820
27836WAT      O83749   6.654   1.867   2.430
27836WAT     H183750   6.751   1.843   2.440
27836WAT     H283751   6.646   1.959   2.392
27837WAT      O83752   3.290   5.455   9.456
27837WAT     H183753   3.321   5.369   9.496
27837WAT     H283754   3.191   5.450   9.439
27838WAT      O83755   9.045   0.300  -0.001
27838WAT     H183756   8.951   0.275   0.022
27838WAT     H283757   9.109   0.240   0.049
27839WAT      O83758   6.079   2.382   1.074
27839WAT     H183759   6.151   2.338   1.129
27839WAT     H283760   6.065   2.330   0.990
27840WAT      O83761   6.471   7.815   6.794
27840WAT     H183762   6.402   7.877   6.833
27840WAT     H283763   6.428   7.727   6.773
27841WAT      O83764   3.819   0.574   5.291
27841WAT     H183765   3.863   0.507   5.230
27841WAT     H283766   3.731   0.539   5.321
27842WAT      O83767   4.507   6.016   8.827
27842WAT     H183768   4.563   6.094   8.800
27842WAT     H283769   4.458   5.981   8.747
27843WAT      O83770   3.660   4.852   4.736
27843WAT     H183771   3.600   4.779   4.768
27843WAT     H283772   3.704   4.896   4.815
27844WAT      O83773   2.050   6.244   4.995
27844WAT     H183774   2.149   6.257   5.002
27844WAT     H283775   2.006   6.333   4.983
27845WAT      O83776   9.330   6.743   1.212
27845WAT     H183777   9.323   6.733   1.113
27845WAT     H283778   9.253   6.798   1.246
27846WAT      O83779   2.422   7.449   5.131
27846WAT     H183780   2.372   7.410   5.208
27846WAT     H283781   2.517   7.464   5.158
27847WAT      O83782   0.046   8.365   3.543
27847WAT     H183783   0.119   8.300   3.566
27847WAT     H283784   0.010   8.344   3.452
27848WAT      O83785   1.306   9.043   2.982
27848WAT     H183786   1.390   8.989   2.977
27848WAT     H283787   1.269   9.039   3.075
27849WAT      O83788   2.310   8.888   1.392
27849WAT     H183789   2.392   8.844   1.357
27849WAT     H283790   2.260   8.823   1.450
27850WAT      O83791   7.538   8.867   4.700
27850WAT     H183792   7.529   8.767   4.706
27850WAT     H283793   7.551   8.894   4.605
27851WAT      O83794   2.478   9.210   1.682
27851WAT     H183795   2.417   9.147   1.730
27851WAT     H283796   2.562   9.163   1.656
27852WAT      O83797   2.915   9.162   7.612
27852WAT     H183798   2.828   9.184   7.655
27852WAT     H283799   2.942   9.069   7.636
27853WAT      O83800   6.014   3.353   8.400
27853WAT     H183801   5.963   3.386   8.321
27853WAT     H283802   6.079   3.283   8.370
27854WAT      O83803   9.249   5.933   8.040
27854WAT     H183804   9.199   5.994   7.978
27854WAT     H283805   9.190   5.858   8.068
27855WAT      O83806   0.027   7.082   6.496
27855WAT     H183807   0.112   7.034   6.473
27855WAT     H283808  -0.046   7.016   6.508
27856WAT      O83809   9.376   6.458   1.799
27856WAT     H183810   9.378   6.414   1.709
27856WAT     H283811   9.447   6.418   1.858
27857WAT      O83812   8.086   5.728   0.657
27857WAT     H183813   8.007   5.764   0.607
27857WAT     H283814   8.054   5.674   0.735
27858WAT      O83815   6.089   8.537   4.627
27858WAT     H183816   6.068   8.441   4.607
27858WAT     H283817   6.180   8.559   4.592
27859WAT      O83818   6.976   8.731   9.272
27859WAT     H183819   7.021   8.685   9.349
27859WAT     H283820   7.041   8.739   9.196
27860WAT      O83821   6.253   1.649   5.646
27860WAT     H183822   6.243   1.740   5.605
27860WAT     H283823   6.169   1.597   5.632
27861WAT      O83824   2.910   4.404   8.242
27861WAT     H183825   2.937   4.315   8.279
27861WAT     H283826   2.930   4.475   8.309
27862WAT      O83827   2.893   8.513   2.859
27862WAT     H183828   2.838   8.521   2.776
27862WAT     H283829   2.990   8.508   2.834
27863WAT      O83830   4.334   5.329   9.296
27863WAT     H183831   4.371   5.383   9.371
27863WAT     H283832   4.387   5.244   9.287
27864WAT      O83833   3.375   3.030   4.711
27864WAT     H183834   3.334   3.121   4.697
27864WAT     H283835   3.458   3.022   4.656
27865WAT      O83836   4.444   2.050   6.069
27865WAT     H183837   4.396   2.046   5.982
27865WAT     H283838   4.497   2.134   6.074
27866WAT      O83839   3.962   7.216   3.759
27866WAT     H183840   3.993   7.203   3.665
27866WAT     H283841   3.862   7.211   3.762
27867WAT      O83842   0.206   9.755   0.473
27867WAT     H183843   0.156   9.839   0.492
27867WAT     H283844   0.294   9.756   0.520
27868WAT      O83845   7.041   8.346   4.165
27868WAT     H183846   7.086   8.426   4.127
27868WAT     H283847   7.104   8.299   4.228
27869WAT      O83848   6.765   4.071   1.964
27869WAT     H183849   6.756   4.032   1.873
27869WAT     H283850   6.812   4.006   2.024
27870WAT      O83851   6.770   6.763   0.105
27870WAT     H183852   6.728   6.853   0.117
27870WAT     H283853   6.849   6.754   0.167
27871WAT      O83854   4.794   4.461   8.923
27871WAT     H183855   4.729   4.505   8.985
27871WAT     H283856   4.767   4.479   8.828
27872WAT      O83857   8.028   5.082   8.704
27872WAT     H183858   8.111   5.112   8.658
27872WAT     H283859   7.976   5.021   8.644
27873WAT      O83860   7.659   5.623   9.390
27873WAT     H183861   7.688   5.700   9.334
27873WAT     H283862   7.560   5.612   9.383
27874WAT      O83863   8.538   4.378   9.355
27874WAT     H183864   8.567   4.282   9.352
27874WAT     H283865   8.438   4.382   9.355
27875WAT      O83866   0.954   8.334   3.198
27875WAT     H183867   0.979   8.291   3.285
27875WAT     H283868   1.031   8.390   3.166
27876WAT      O83869   2.055   9.767   3.909
27876WAT     H183870   2.065   9.825   3.990
27876WAT     H283871   1.970   9.790   3.862
27877WAT      O83872   3.940   0.487   9.887
27877WAT     H183873   4.033   0.459   9.865
27877WAT     H283874   3.923   0.579   9.851
27878WAT      O83875   0.553   9.127   4.387
27878WAT     H183876   0.548   9.151   4.483
27878WAT     H283877   0.483   9.176   4.336
27879WAT      O83878   2.250   0.359   8.258
27879WAT     H183879   2.284   0.420   8.330
27879WAT     H283880   2.265   0.264   8.285
27880WAT      O83881   7.320   0.903   3.010
27880WAT     H183882   7.309   0.805   3.028
27880WAT     H283883   7.275   0.925   2.923
27881WAT      O83884   5.734   5.159   1.701
27881WAT     H183885   5.788   5.178   1.619
27881WAT     H283886   5.794   5.153   1.781
27882WAT      O83887   4.038   6.386   2.520
27882WAT     H183888   3.987   6.463   2.558
27882WAT     H283889   4.093   6.418   2.442
27883WAT      O83890   3.711   9.197   0.800
27883WAT     H183891   3.717   9.207   0.899
27883WAT     H283892   3.615   9.189   0.773
27884WAT      O83893   4.640   1.095   2.634
27884WAT     H183894   4.561   1.083   2.695
27884WAT     H283895   4.612   1.142   2.551
27885WAT      O83896   1.857   7.551   8.411
27885WAT     H183897   1.944   7.507   8.433
27885WAT     H283898   1.784   7.483   8.414
27886WAT      O83899   7.159   3.748   4.434
27886WAT     H183900   7.236   3.688   4.454
27886WAT     H283901   7.074   3.696   4.435
27887WAT      O83902   9.309   9.035   2.496
27887WAT     H183903   9.320   9.123   2.450
27887WAT     H283904   9.313   8.961   2.429
27888WAT      O83905   7.665   7.354   0.696
27888WAT     H183906   7.661   7.429   0.629
27888WAT     H283907   7.701   7.272   0.651
27889WAT      O83908   6.620   4.485   4.050
27889WAT     H183909   6.524   4.510   4.039
27889WAT     H283910   6.677   4.552   4.002
27890WAT      O83911   6.272   4.037   8.574
27890WAT     H183912   6.241   3.968   8.508
27890WAT     H283913   6.335   3.995   8.639
27891WAT      O83914   7.512   8.945   3.898
27891WAT     H183915   7.563   8.876   3.846
27891WAT     H283916   7.467   9.008   3.835
27892WAT      O83917   6.522   3.124   1.497
27892WAT     H183918   6.598   3.176   1.536
27892WAT     H283919   6.558   3.056   1.433
27893WAT      O83920   4.979   4.344   8.584
27893WAT     H183921   5.068   4.311   8.551
27893WAT     H283922   4.959   4.432   8.541
27894WAT      O83923   9.711   4.720   9.348
27894WAT     H183924   9.778   4.673   9.405
27894WAT     H283925   9.624   4.671   9.352
27895WAT      O83926   7.891   6.923   2.508
27895WAT     H183927   7.805   6.921   2.559
27895WAT     H283928   7.871   6.927   2.410
27896WAT      O83929   8.651   6.172   2.225
27896WAT     H183930   8.598   6.088   2.233
27896WAT     H283931   8.716   6.164   2.150
27897WAT      O83932   7.576   3.488   8.596
27897WAT     H183933   7.543   3.395   8.579
27897WAT     H283934   7.500   3.544   8.628
27898WAT      O83935   2.344   5.578   0.028
27898WAT     H183936   2.431   5.623   0.011
27898WAT     H283937   2.314   5.530  -0.055
27899WAT      O83938   9.127   5.263   8.306
27899WAT     H183939   9.102   5.358   8.320
27899WAT     H283940   9.174   5.228   8.387
27900WAT      O83941   9.318   8.382   8.362
27900WAT     H183942   9.371   8.461   8.332
27900WAT     H283943   9.241   8.413   8.418
27901WAT      O83944   7.186   5.960   0.282
27901WAT     H183945   7.220   6.054   0.285
27901WAT     H283946   7.187   5.920   0.374
27902WAT      O83947   6.510   6.051   2.756
27902WAT     H183948   6.511   6.030   2.658
27902WAT     H283949   6.495   6.149   2.769
27903WAT      O83950   0.935   5.152   5.491
27903WAT     H183951   0.892   5.073   5.534
27903WAT     H283952   0.900   5.236   5.532
27904WAT      O83953   1.085   4.078   1.080
27904WAT     H183954   0.990   4.106   1.095
27904WAT     H283955   1.105   3.997   1.135
27905WAT      O83956   5.690   5.839   8.831
27905WAT     H183957   5.621   5.881   8.889
27905WAT     H283958   5.673   5.741   8.825
27906WAT      O83959   6.571   6.543   7.713
27906WAT     H183960   6.648   6.604   7.735
27906WAT     H283961   6.503   6.594   7.661
27907WAT      O83962   3.236   1.519   6.554
27907WAT     H183963   3.313   1.570   6.516
27907WAT     H283964   3.155   1.533   6.496
27908WAT      O83965   1.570   1.106   6.116
27908WAT     H183966   1.657   1.156   6.123
27908WAT     H283967   1.589   1.011   6.092
27909WAT      O83968   2.783   1.046   0.959
27909WAT     H183969   2.718   1.080   1.027
27909WAT     H283970   2.803   1.119   0.893
27910WAT      O83971   0.889   7.377   1.186
27910WAT     H183972   0.866   7.414   1.096
27910WAT     H283973   0.904   7.452   1.251
27911WAT      O83974   7.895   6.882   3.357
27911WAT     H183975   7.944   6.878   3.270
27911WAT     H283976   7.954   6.923   3.427
27912WAT      O83977   3.916   9.141   9.052
27912WAT     H183978   3.907   9.086   9.135
27912WAT     H283979   3.826   9.167   9.019
27913WAT      O83980   3.903   7.055   9.505
27913WAT     H183981   3.902   6.971   9.451
27913WAT     H283982   3.895   7.033   9.602
27914WAT      O83983   8.725   6.721   9.594
27914WAT     H183984   8.684   6.777   9.666
27914WAT     H283985   8.780   6.779   9.534
27915WAT      O83986   7.972   9.835   6.820
27915WAT     H183987   7.933   9.889   6.746
27915WAT     H283988   8.034   9.766   6.782
27916WAT      O83989   1.870   3.427   6.738
27916WAT     H183990   1.776   3.410   6.711
27916WAT     H283991   1.883   3.399   6.833
27917WAT      O83992   5.550   3.827   2.742
27917WAT     H183993   5.598   3.784   2.665
27917WAT     H283994   5.545   3.762   2.818
27918WAT      O83995   3.559   3.686   1.440
27918WAT     H183996   3.640   3.734   1.407
27918WAT     H283997   3.587   3.613   1.503
27919WAT      O83998   9.849   8.573   5.247
27919WAT     H183999   9.828   8.476   5.238
27919WAT     H284000   9.947   8.588   5.237
27920WAT      O84001   7.506   4.011   5.230
27920WAT     H184002   7.597   3.975   5.246
27920WAT     H284003   7.495   4.097   5.279
27921WAT      O84004   3.021   6.399   9.416
27921WAT     H184005   2.949   6.331   9.427
27921WAT     H284006   3.058   6.423   9.505
27922WAT      O84007   2.117   5.701   1.913
27922WAT     H184008   2.054   5.770   1.950
27922WAT     H284009   2.198   5.695   1.971
27923WAT      O84010   0.807   9.549   3.346
27923WAT     H184011   0.789   9.517   3.253
27923WAT     H284012   0.848   9.640   3.343
27924WAT      O84013   0.205   9.200   0.901
27924WAT     H184014   0.202   9.213   0.802
27924WAT     H284015   0.297   9.175   0.929
27925WAT      O84016   0.116   6.507   0.885
27925WAT     H184017   0.172   6.465   0.956
27925WAT     H284018   0.124   6.606   0.890
27926WAT      O84019   9.777   1.616   3.397
27926WAT     H184020   9.859   1.624   3.341
27926WAT     H284021   9.700   1.660   3.350
27927WAT      O84022   0.816   5.275   2.363
27927WAT     H184023   0.802   5.191   2.310
27927WAT     H284024   0.782   5.353   2.311
27928WAT      O84025   3.024   6.252   5.594
27928WAT     H184026   3.122   6.234   5.581
27928WAT     H284027   3.012   6.316   5.671
27929WAT      O84028   4.991   5.054   0.029
27929WAT     H184029   4.901   5.015   0.047
27929WAT     H284030   4.982   5.152   0.013
27930WAT      O84031   7.407   7.811   0.725
27930WAT     H184032   7.369   7.822   0.633
27930WAT     H284033   7.424   7.714   0.743
27931WAT      O84034   4.612   5.460   6.074
27931WAT     H184035   4.624   5.542   6.017
27931WAT     H284036   4.539   5.476   6.141
27932WAT      O84037   6.236   4.639   7.085
27932WAT     H184038   6.166   4.572   7.059
27932WAT     H284039   6.236   4.650   7.185
27933WAT      O84040   6.138   1.215   2.176
27933WAT     H184041   6.038   1.219   2.178
27933WAT     H284042   6.175   1.240   2.266
27934WAT      O84043   7.572   0.987   7.970
27934WAT     H184044   7.627   0.960   7.891
27934WAT     H284045   7.631   0.999   8.050
27935WAT      O84046   7.331   1.007   0.028
27935WAT     H184047   7.407   1.071   0.013
27935WAT     H284048   7.249   1.042  -0.018
27936WAT      O84049   9.537   3.368   5.337
27936WAT     H184050   9.602   3.380   5.412
27936WAT     H284051   9.586   3.341   5.255
27937WAT      O84052   4.986   2.346   0.240
27937WAT     H184053   4.935   2.264   0.265
27937WAT     H284054   5.059   2.322   0.176
27938WAT      O84055   5.845   4.567   8.955
27938WAT     H184056   5.858   4.611   9.044
27938WAT     H284057   5.901   4.614   8.887
27939WAT      O84058   7.452   3.826   7.318
27939WAT     H184059   7.452   3.919   7.355
27939WAT     H284060   7.385   3.821   7.243
27940WAT      O84061   7.011   3.615   7.722
27940WAT     H184062   6.986   3.598   7.817
27940WAT     H284063   6.928   3.621   7.666
27941WAT      O84064   9.701   6.153   2.946
27941WAT     H184065   9.714   6.066   2.898
27941WAT     H284066   9.786   6.206   2.943
27942WAT      O84067   4.496   7.081   5.675
27942WAT     H184068   4.543   6.992   5.677
27942WAT     H284069   4.438   7.085   5.594
27943WAT      O84070   8.896   6.016   1.670
27943WAT     H184071   8.931   6.108   1.652
27943WAT     H284072   8.878   5.969   1.584
27944WAT      O84073   1.752   2.125   3.055
27944WAT     H184074   1.740   2.041   3.109
27944WAT     H284075   1.672   2.183   3.067
27945WAT      O84076   1.888   1.759   8.013
27945WAT     H184077   1.883   1.846   7.964
27945WAT     H284078   1.820   1.696   7.975
27946WAT      O84079   6.322   4.842   1.064
27946WAT     H184080   6.243   4.882   1.018
27946WAT     H284081   6.293   4.761   1.115
27947WAT      O84082   9.052   2.770   1.086
27947WAT     H184083   8.988   2.814   1.022
27947WAT     H284084   9.011   2.768   1.177
27948WAT      O84085   2.695   9.569   5.444
27948WAT     H184086   2.712   9.512   5.364
27948WAT     H284087   2.615   9.627   5.428
27949WAT      O84088   8.419   2.161   7.905
27949WAT     H184089   8.440   2.247   7.860
27949WAT     H284090   8.333   2.170   7.956
27950WAT      O84091   1.770   8.659   8.837
27950WAT     H184092   1.812   8.690   8.752
27950WAT     H284093   1.671   8.651   8.825
27951WAT      O84094   8.496   2.180   0.910
27951WAT     H184095   8.519   2.103   0.850
27951WAT     H284096   8.454   2.253   0.856
27952WAT      O84097   4.798   0.337   5.331
27952WAT     H184098   4.800   0.403   5.406
27952WAT     H284099   4.867   0.362   5.263
27953WAT      O84100   7.956   5.567   9.133
27953WAT     H184101   7.970   5.663   9.159
27953WAT     H284102   7.998   5.550   9.044
27954WAT      O84103   9.303   4.875   0.746
27954WAT     H184104   9.388   4.864   0.695
27954WAT     H284105   9.267   4.967   0.732
27955WAT      O84106   0.769   9.112   2.717
27955WAT     H184107   0.824   9.182   2.669
27955WAT     H284108   0.819   9.081   2.798
27956WAT      O84109   3.885   1.968   3.794
27956WAT     H184110   3.974   1.925   3.808
27956WAT     H284111   3.866   2.032   3.868
27957WAT      O84112   2.244   7.132   6.642
27957WAT     H184113   2.171   7.146   6.574
27957WAT     H284114   2.329   7.110   6.595
27958WAT      O84115   1.971   8.798   9.254
27958WAT     H184116   2.026   8.742   9.192
27958WAT     H284117   1.877   8.763   9.254
27959WAT      O84118   1.753   6.939   3.621
27959WAT     H184119   1.716   6.861   3.672
27959WAT     H284120   1.715   7.024   3.659
27960WAT      O84121   7.977   1.797   9.242
27960WAT     H184122   8.000   1.700   9.231
27960WAT     H284123   7.879   1.810   9.226
27961WAT      O84124   4.986   1.840   5.048
27961WAT     H184125   4.913   1.902   5.018
27961WAT     H284126   4.956   1.790   5.130
27962WAT      O84127   7.647   8.509   6.537
27962WAT     H184128   7.678   8.501   6.442
27962WAT     H284129   7.684   8.434   6.591
27963WAT      O84130   2.568   8.922   6.462
27963WAT     H184131   2.648   8.966   6.503
27963WAT     H284132   2.501   8.903   6.533
27964WAT      O84133   8.672   4.091   4.749
27964WAT     H184134   8.643   3.996   4.748
27964WAT     H284135   8.721   4.109   4.835
27965WAT      O84136   1.977   2.660   1.952
27965WAT     H184137   1.901   2.707   1.905
27965WAT     H284138   1.965   2.561   1.943
27966WAT      O84139   9.458   0.301   1.298
27966WAT     H184140   9.461   0.227   1.365
27966WAT     H284141   9.369   0.301   1.252
27967WAT      O84142   6.851   2.019   6.458
27967WAT     H184143   6.816   2.030   6.551
27967WAT     H284144   6.833   1.925   6.427
27968WAT      O84145   3.051   6.608   2.955
27968WAT     H184146   2.965   6.580   2.912
27968WAT     H284147   3.064   6.707   2.944
27969WAT      O84148   2.438   7.473   0.180
27969WAT     H184149   2.362   7.430   0.228
27969WAT     H284150   2.445   7.569   0.208
27970WAT      O84151   9.580   3.766   3.325
27970WAT     H184152   9.532   3.839   3.375
27970WAT     H284153   9.652   3.728   3.383
27971WAT      O84154   3.433   5.648   3.618
27971WAT     H184155   3.426   5.595   3.534
27971WAT     H284156   3.372   5.609   3.687
27972WAT      O84157   7.372   1.977   1.614
27972WAT     H184158   7.465   2.013   1.612
27972WAT     H284159   7.367   1.899   1.676
27973WAT      O84160   1.776   3.845   8.091
27973WAT     H184161   1.849   3.848   8.159
27973WAT     H284162   1.732   3.755   8.093
27974WAT      O84163   9.100   0.824   0.148
27974WAT     H184164   9.158   0.813   0.067
27974WAT     H284165   9.005   0.804   0.123
27975WAT      O84166   8.750   0.778   3.544
27975WAT     H184167   8.848   0.773   3.564
27975WAT     H284168   8.700   0.719   3.608
27976WAT      O84169   2.237   3.275   4.973
27976WAT     H184170   2.166   3.318   5.029
27976WAT     H284171   2.323   3.275   5.022
27977WAT      O84172   9.565   8.956   7.294
27977WAT     H184173   9.646   8.955   7.234
27977WAT     H284174   9.486   8.923   7.243
27978WAT      O84175   5.740   0.173   1.617
27978WAT     H184176   5.693   0.085   1.610
27978WAT     H284177   5.722   0.213   1.707
27979WAT      O84178   5.993   4.304   2.030
27979WAT     H184179   5.916   4.296   2.094
27979WAT     H284180   6.069   4.349   2.076
27980WAT      O84181   8.459   5.425   3.026
27980WAT     H184182   8.373   5.470   3.049
27980WAT     H284183   8.487   5.366   3.102
27981WAT      O84184   3.717   5.246   4.476
27981WAT     H184185   3.640   5.310   4.478
27981WAT     H284186   3.683   5.152   4.477
27982WAT      O84187   3.261   8.985   8.039
27982WAT     H184188   3.333   8.971   8.107
27982WAT     H284189   3.225   9.078   8.047
27983WAT      O84190   3.623   7.961   2.878
27983WAT     H184191   3.666   8.030   2.937
27983WAT     H284192   3.671   7.874   2.888
27984WAT      O84193   4.796   8.572   8.713
27984WAT     H184194   4.774   8.490   8.660
27984WAT     H284195   4.793   8.652   8.653
27985WAT      O84196   6.521   9.437   3.482
27985WAT     H184197   6.478   9.477   3.401
27985WAT     H284198   6.578   9.506   3.526
27986WAT      O84199   0.525   9.395   2.973
27986WAT     H184200   0.547   9.418   2.878
27986WAT     H284201   0.537   9.297   2.987
27987WAT      O84202   6.366   1.472   9.029
27987WAT     H184203   6.438   1.516   9.082
27987WAT     H284204   6.408   1.405   8.967
27988WAT      O84205   1.865   4.537   1.150
27988WAT     H184206   1.900   4.448   1.120
27988WAT     H284207   1.916   4.567   1.231
27989WAT      O84208   7.324   5.815   8.258
27989WAT     H184209   7.324   5.875   8.337
27989WAT     H284210   7.354   5.866   8.177
27990WAT      O84211   4.819   6.141   5.493
27990WAT     H184212   4.811   6.143   5.393
27990WAT     H284213   4.910   6.109   5.519
27991WAT      O84214   4.195   9.052   0.594
27991WAT     H184215   4.234   9.072   0.504
27991WAT     H284216   4.096   9.069   0.591
27992WAT      O84217   4.132   3.926   3.612
27992WAT     H184218   4.083   3.862   3.671
27992WAT     H284219   4.159   4.007   3.666
27993WAT      O84220   7.772   1.663   8.026
27993WAT     H184221   7.688   1.718   8.029
27993WAT     H284222   7.826   1.690   7.947
27994WAT      O84223   7.607   4.349   4.885
27994WAT     H184224   7.623   4.448   4.879
27994WAT     H284225   7.640   4.305   4.801
27995WAT      O84226   9.787   2.017   4.475
27995WAT     H184227   9.718   2.075   4.519
27995WAT     H284228   9.875   2.064   4.475
27996WAT      O84229   9.740   6.067   8.419
27996WAT     H184230   9.668   5.998   8.411
27996WAT     H284231   9.771   6.072   8.514
27997WAT      O84232   2.845   4.111   4.734
27997WAT     H184233   2.773   4.168   4.694
27997WAT     H284234   2.843   4.119   4.834
27998WAT      O84235   6.157   3.525   8.149
27998WAT     H184236   6.246   3.558   8.179
27998WAT     H284237   6.168   3.443   8.093
27999WAT      O84238   6.237   2.583   0.295
27999WAT     H184239   6.258   2.485   0.291
27999WAT     H284240   6.269   2.621   0.381
28000WAT      O84241   7.208   4.096   4.584
28000WAT     H184242   7.255   4.108   4.497
28000WAT     H284243   7.264   4.133   4.658
28001WAT      O84244   6.328   2.476   7.096
28001WAT     H184245   6.318   2.571   7.123
28001WAT     H284246   6.417   2.441   7.125
28002WAT      O84247   5.607   9.308   3.875
28002WAT     H184248   5.658   9.383   3.917
28002WAT     H284249   5.538   9.344   3.813
28003WAT      O84250   4.360   7.072   1.177
28003WAT     H184251   4.367   7.164   1.218
28003WAT     H284252   4.263   7.049   1.167
28004WAT      O84253   6.258   0.692   2.690
28004WAT     H184254   6.313   0.613   2.662
28004WAT     H284255   6.229   0.679   2.785
28005WAT      O84256   0.510   3.943   1.183
28005WAT     H184257   0.601   3.910   1.158
28005WAT     H284258   0.480   4.011   1.116
28006WAT      O84259   6.827   4.333   4.086
28006WAT     H184260   6.753   4.401   4.086
28006WAT     H284261   6.796   4.250   4.042
28007WAT      O84262   4.518   8.078   0.668
28007WAT     H184263   4.575   8.115   0.741
28007WAT     H284264   4.496   7.982   0.688
28008WAT      O84265   9.377   9.457   0.964
28008WAT     H184266   9.321   9.493   1.039
28008WAT     H284267   9.341   9.368   0.936
28009WAT      O84268   7.334   2.125   4.251
28009WAT     H184269   7.371   2.197   4.311
28009WAT     H284270   7.361   2.036   4.286
28010WAT      O84271   7.534   7.723   4.565
28010WAT     H184272   7.462   7.777   4.608
28010WAT     H284273   7.526   7.627   4.593
28011WAT      O84274   5.364   2.651   6.369
28011WAT     H184275   5.274   2.692   6.385
28011WAT     H284276   5.435   2.717   6.391
28012WAT      O84277   7.933   9.795   3.894
28012WAT     H184278   7.855   9.751   3.849
28012WAT     H284279   7.992   9.836   3.825
28013WAT      O84280   1.181   1.665   3.339
28013WAT     H184281   1.250   1.727   3.376
28013WAT     H284282   1.164   1.688   3.243
28014WAT      O84283   6.822   9.581   4.167
28014WAT     H184284   6.753   9.519   4.203
28014WAT     H284285   6.824   9.665   4.221
28015WAT      O84286   6.597   7.835   7.544
28015WAT     H184287   6.632   7.826   7.451
28015WAT     H284288   6.541   7.755   7.566
28016WAT      O84289   3.916   5.780   7.477
28016WAT     H184290   3.874   5.821   7.396
28016WAT     H284291   3.969   5.700   7.449
28017WAT      O84292   6.062   9.619   9.148
28017WAT     H184293   6.011   9.579   9.224
28017WAT     H284294   6.127   9.687   9.183
28018WAT      O84295   0.412   2.782   1.915
28018WAT     H184296   0.358   2.866   1.909
28018WAT     H284297   0.355   2.709   1.953
28019WAT      O84298   4.500   1.339   0.351
28019WAT     H184299   4.449   1.341   0.438
28019WAT     H284300   4.489   1.426   0.304
28020WAT      O84301   4.060   9.749   4.888
28020WAT     H184302   4.062   9.837   4.840
28020WAT     H284303   4.136   9.745   4.953
28021WAT      O84304   9.781   9.838   5.937
28021WAT     H184305   9.798   9.935   5.954
28021WAT     H284306   9.868   9.792   5.917
28022WAT      O84307   3.426   6.607   4.521
28022WAT     H184308   3.479   6.548   4.459
28022WAT     H284309   3.481   6.687   4.544
28023WAT      O84310   4.353   8.506   6.535
28023WAT     H184311   4.329   8.581   6.596
28023WAT     H284312   4.398   8.542   6.453
28024WAT      O84313   6.217   3.457   3.361
28024WAT     H184314   6.194   3.505   3.276
28024WAT     H284315   6.152   3.483   3.432
28025WAT      O84316   1.334   6.964   3.404
28025WAT     H184317   1.352   6.869   3.430
28025WAT     H284318   1.264   7.002   3.464
28026WAT      O84319   5.825   8.271   5.163
28026WAT     H184320   5.797   8.347   5.104
28026WAT     H284321   5.752   8.253   5.229
28027WAT      O84322   3.500   3.161   6.264
28027WAT     H184323   3.417   3.151   6.317
28027WAT     H284324   3.485   3.227   6.190
28028WAT      O84325   6.207   3.500   5.205
28028WAT     H184326   6.161   3.570   5.259
28028WAT     H284327   6.300   3.530   5.184
28029WAT      O84328   1.629   6.558   3.595
28029WAT     H184329   1.567   6.565   3.673
28029WAT     H284330   1.608   6.630   3.529
28030WAT      O84331   1.710   8.994   2.491
28030WAT     H184332   1.756   9.078   2.464
28030WAT     H284333   1.749   8.916   2.442
28031WAT      O84334   0.225   8.886   6.238
28031WAT     H184335   0.276   8.811   6.196
28031WAT     H284336   0.193   8.948   6.166
28032WAT      O84337   3.296   5.308   1.945
28032WAT     H184338   3.354   5.235   1.906
28032WAT     H284339   3.342   5.396   1.934
28033WAT      O84340   8.550   0.521   5.204
28033WAT     H184341   8.487   0.571   5.263
28033WAT     H284342   8.545   0.557   5.111
28034WAT      O84343   0.428   9.733   8.769
28034WAT     H184344   0.459   9.691   8.684
28034WAT     H284345   0.414   9.831   8.755
28035WAT      O84346   8.411   5.999   5.676
28035WAT     H184347   8.354   5.924   5.643
28035WAT     H284348   8.354   6.081   5.687
28036WAT      O84349   8.407   7.558   7.942
28036WAT     H184350   8.444   7.490   8.005
28036WAT     H284351   8.316   7.586   7.973
28037WAT      O84352   1.632   5.174   4.694
28037WAT     H184353   1.675   5.233   4.762
28037WAT     H284354   1.536   5.201   4.682
28038WAT      O84355   6.564   3.883   8.124
28038WAT     H184356   6.509   3.822   8.180
28038WAT     H284357   6.626   3.935   8.183
28039WAT      O84358   1.134   6.701   2.272
28039WAT     H184359   1.088   6.615   2.294
28039WAT     H284360   1.072   6.761   2.222
28040WAT      O84361   2.278   6.507   5.849
28040WAT     H184362   2.273   6.507   5.949
28040WAT     H284363   2.189   6.479   5.811
28041WAT      O84364   2.697   2.363   5.979
28041WAT     H184365   2.613   2.315   6.005
28041WAT     H284366   2.776   2.312   6.013
28042WAT      O84367   0.257   5.639   2.863
28042WAT     H184368   0.324   5.659   2.934
28042WAT     H284369   0.166   5.633   2.904
28043WAT      O84370   5.039   0.733   2.136
28043WAT     H184371   5.048   0.758   2.040
28043WAT     H284372   5.130   0.735   2.179
28044WAT      O84373   4.077   2.530   0.664
28044WAT     H184374   4.041   2.451   0.714
28044WAT     H284375   4.138   2.498   0.592
28045WAT      O84376   1.917   7.261   2.328
28045WAT     H184377   1.948   7.347   2.287
28045WAT     H284378   1.943   7.185   2.268
28046WAT      O84379   6.398   0.151   8.484
28046WAT     H184380   6.302   0.167   8.504
28046WAT     H284381   6.414   0.155   8.385
28047WAT      O84382   0.344   5.279   2.793
28047WAT     H184383   0.387   5.213   2.854
28047WAT     H284384   0.360   5.372   2.828
28048WAT      O84385   6.693   1.290   9.097
28048WAT     H184386   6.760   1.293   9.023
28048WAT     H284387   6.737   1.254   9.180
28049WAT      O84388   7.539   0.651   5.475
28049WAT     H184389   7.488   0.737   5.474
28049WAT     H284390   7.581   0.638   5.565
28050WAT      O84391   5.901   7.532   5.159
28050WAT     H184392   5.866   7.444   5.193
28050WAT     H284393   5.824   7.595   5.145
28051WAT      O84394   9.768   5.783   5.221
28051WAT     H184395   9.754   5.688   5.251
28051WAT     H284396   9.865   5.796   5.200
28052WAT      O84397   4.521   8.403   8.690
28052WAT     H184398   4.548   8.499   8.681
28052WAT     H284399   4.529   8.358   8.601
28053WAT      O84400   3.543   5.490   4.173
28053WAT     H184401   3.564   5.587   4.159
28053WAT     H284402   3.492   5.456   4.094
28054WAT      O84403   9.362   7.701   8.406
28054WAT     H184404   9.361   7.647   8.321
28054WAT     H284405   9.282   7.761   8.408
28055WAT      O84406   2.561   1.036   4.951
28055WAT     H184407   2.520   1.079   5.032
28055WAT     H284408   2.607   1.106   4.896
28056WAT      O84409   2.583   7.380   7.445
28056WAT     H184410   2.676   7.343   7.435
28056WAT     H284411   2.563   7.394   7.542
28057WAT      O84412   3.253   0.268   3.397
28057WAT     H184413   3.317   0.211   3.448
28057WAT     H284414   3.287   0.280   3.304
28058WAT      O84415   8.028   4.830   0.261
28058WAT     H184416   7.972   4.834   0.178
28058WAT     H284417   8.123   4.811   0.236
28059WAT      O84418   4.181   1.398   5.678
28059WAT     H184419   4.142   1.466   5.741
28059WAT     H284420   4.277   1.419   5.662
28060WAT      O84421   0.021   1.776   5.862
28060WAT     H184422   0.077   1.745   5.938
28060WAT     H284423   0.057   1.738   5.776
28061WAT      O84424   2.307   4.864   3.492
28061WAT     H184425   2.350   4.788   3.540
28061WAT     H284426   2.216   4.880   3.529
28062WAT      O84427   4.180   5.667   3.764
28062WAT     H184428   4.158   5.763   3.744
28062WAT     H284429   4.238   5.631   3.692
28063WAT      O84430   1.537   9.592   6.769
28063WAT     H184431   1.602   9.667   6.787
28063WAT     H284432   1.584   9.519   6.721
28064WAT      O84433   1.950   0.466   2.957
28064WAT     H184434   1.993   0.455   3.047
28064WAT     H284435   1.942   0.377   2.913
28065WAT      O84436   2.945   5.054   6.949
28065WAT     H184437   2.874   5.091   7.010
28065WAT     H284438   2.919   4.962   6.920
28066WAT      O84439   3.009   0.328   5.903
28066WAT     H184440   2.933   0.309   5.840
28066WAT     H284441   2.972   0.348   5.994
28067WAT      O84442   9.202   0.398   1.622
28067WAT     H184443   9.144   0.455   1.680
28067WAT     H284444   9.153   0.374   1.539
28068WAT      O84445   0.542   1.529   3.973
28068WAT     H184446   0.630   1.572   3.995
28068WAT     H284447   0.478   1.545   4.047
28069WAT      O84448   3.437   0.150   1.355
28069WAT     H184449   3.476   0.206   1.283
28069WAT     H284450   3.503   0.080   1.383
28070WAT      O84451   2.104   6.528   1.987
28070WAT     H184452   2.094   6.625   1.965
28070WAT     H284453   2.149   6.481   1.911
28071WAT      O84454   0.178   6.557   5.519
28071WAT     H184455   0.209   6.639   5.568
28071WAT     H284456   0.109   6.583   5.452
28072WAT      O84457   0.191   4.999   1.558
28072WAT     H184458   0.134   4.918   1.543
28072WAT     H284459   0.143   5.064   1.616
28073WAT      O84460   3.585   4.800   6.836
28073WAT     H184461   3.486   4.811   6.835
28073WAT     H284462   3.628   4.888   6.858
28074WAT      O84463   1.679   0.836   7.413
28074WAT     H184464   1.628   0.918   7.438
28074WAT     H284465   1.637   0.756   7.456
28075WAT      O84466   6.293   6.231   3.849
28075WAT     H184467   6.372   6.269   3.897
28075WAT     H284468   6.288   6.271   3.757
28076WAT      O84469   7.404   3.179   5.384
28076WAT     H184470   7.397   3.204   5.287
28076WAT     H284471   7.500   3.179   5.411
28077WAT      O84472   8.751   8.400   8.910
28077WAT     H184473   8.657   8.429   8.889
28077WAT     H284474   8.758   8.301   8.903
28078WAT      O84475   0.315   1.593   4.586
28078WAT     H184476   0.341   1.647   4.506
28078WAT     H284477   0.395   1.547   4.623
28079WAT      O84478   7.003   8.104   1.999
28079WAT     H184479   6.941   8.109   2.078
28079WAT     H284480   6.998   8.013   1.959
28080WAT      O84481   3.049   2.207   2.012
28080WAT     H184482   2.988   2.129   2.022
28080WAT     H284483   3.142   2.175   1.993
28081WAT      O84484   8.393   3.516   1.342
28081WAT     H184485   8.320   3.553   1.399
28081WAT     H284486   8.364   3.430   1.300
28082WAT      O84487   1.550   4.639   5.395
28082WAT     H184488   1.625   4.703   5.378
28082WAT     H284489   1.474   4.659   5.333
28083WAT      O84490   5.925   1.444   4.822
28083WAT     H184491   5.832   1.430   4.790
28083WAT     H284492   5.988   1.443   4.744
28084WAT      O84493   5.890   5.195   2.611
28084WAT     H184494   5.866   5.281   2.657
28084WAT     H284495   5.921   5.215   2.518
28085WAT      O84496   7.290   4.865   4.236
28085WAT     H184497   7.269   4.782   4.287
28085WAT     H284498   7.386   4.863   4.208
28086WAT      O84499   3.324   0.895   4.583
28086WAT     H184500   3.254   0.881   4.513
28086WAT     H284501   3.310   0.983   4.628
28087WAT      O84502   6.555   9.202   7.429
28087WAT     H184503   6.605   9.168   7.349
28087WAT     H284504   6.461   9.224   7.402
28088WAT      O84505   7.008   6.168   8.005
28088WAT     H184506   6.954   6.220   7.939
28088WAT     H284507   7.102   6.201   8.004
28089WAT      O84508   0.507   3.184   7.056
28089WAT     H184509   0.435   3.237   7.101
28089WAT     H284510   0.477   3.158   6.965
28090WAT      O84511   4.234   2.393   3.419
28090WAT     H184512   4.164   2.409   3.489
28090WAT     H284513   4.309   2.457   3.432
28091WAT      O84514   2.670   3.675   5.775
28091WAT     H184515   2.582   3.645   5.741
28091WAT     H284516   2.668   3.679   5.875
28092WAT      O84517   8.141   6.589   7.056
28092WAT     H184518   8.170   6.569   6.962
28092WAT     H284519   8.042   6.576   7.063
28093WAT      O84520   5.957   3.400   4.559
28093WAT     H184521   6.005   3.481   4.524
28093WAT     H284522   5.897   3.427   4.634
28094WAT      O84523   3.636   9.742   5.314
28094WAT     H184524   3.692   9.782   5.242
28094WAT     H284525   3.619   9.809   5.386
28095WAT      O84526   5.185   4.196   0.087
28095WAT     H184527   5.181   4.116   0.027
28095WAT     H284528   5.109   4.257   0.066
28096WAT      O84529   7.252   2.373   9.553
28096WAT     H184530   7.186   2.315   9.602
28096WAT     H284531   7.275   2.452   9.609
28097WAT      O84532   0.151   2.326   0.964
28097WAT     H184533   0.144   2.362   1.057
28097WAT     H284534   0.066   2.279   0.940
28098WAT      O84535   4.237   4.912   9.145
28098WAT     H184536   4.246   5.005   9.110
28098WAT     H284537   4.144   4.879   9.128
28099WAT      O84538   0.997   2.155   8.660
28099WAT     H184539   0.963   2.068   8.697
28099WAT     H284540   1.093   2.166   8.687
28100WAT      O84541   4.719   5.343   7.096
28100WAT     H184542   4.685   5.250   7.080
28100WAT     H284543   4.643   5.406   7.106
28101WAT      O84544   7.796   6.021   1.791
28101WAT     H184545   7.841   5.933   1.806
28101WAT     H284546   7.819   6.056   1.700
28102WAT      O84547   0.091   8.772   7.553
28102WAT     H184548   0.038   8.788   7.636
28102WAT     H284549   0.158   8.845   7.542
28103WAT      O84550   3.457   8.469   5.175
28103WAT     H184551   3.390   8.542   5.189
28103WAT     H284552   3.508   8.487   5.091
28104WAT      O84553   5.995   5.846   5.028
28104WAT     H184554   6.020   5.929   5.078
28104WAT     H284555   5.904   5.859   4.987
28105WAT      O84556   7.551   7.348   7.212
28105WAT     H184557   7.600   7.357   7.299
28105WAT     H284558   7.475   7.283   7.223
28106WAT      O84559   5.070   7.122   1.606
28106WAT     H184560   4.973   7.145   1.607
28106WAT     H284561   5.096   7.089   1.516
28107WAT      O84562   7.397   4.492   2.519
28107WAT     H184563   7.488   4.510   2.480
28107WAT     H284564   7.365   4.573   2.567
28108WAT      O84565   3.762   3.708   2.518
28108WAT     H184566   3.835   3.770   2.547
28108WAT     H284567   3.795   3.649   2.445
28109WAT      O84568   8.464   9.395   2.768
28109WAT     H184569   8.542   9.415   2.708
28109WAT     H284570   8.488   9.418   2.862
28110WAT      O84571   6.913   7.192   8.267
28110WAT     H184572   6.867   7.268   8.221
28110WAT     H284573   6.993   7.227   8.317
28111WAT      O84574   0.170   6.839   0.396
28111WAT     H184575   0.160   6.938   0.407
28111WAT     H284576   0.156   6.794   0.484
28112WAT      O84577   5.919   4.962   0.663
28112WAT     H184578   5.895   4.866   0.674
28112WAT     H284579   5.857   5.004   0.596
28113WAT      O84580   1.647   5.984   9.766
28113WAT     H184581   1.569   6.041   9.792
28113WAT     H284582   1.631   5.890   9.796
28114WAT      O84583   4.410   5.357   8.539
28114WAT     H184584   4.459   5.378   8.624
28114WAT     H284585   4.426   5.261   8.514
28115WAT      O84586   4.872   9.727   5.340
28115WAT     H184587   4.852   9.801   5.405
28115WAT     H284588   4.970   9.725   5.322
28116WAT      O84589   8.638   2.650   4.159
28116WAT     H184590   8.609   2.674   4.252
28116WAT     H284591   8.649   2.551   4.153
28117WAT      O84592   9.628   1.125   2.866
28117WAT     H184593   9.725   1.119   2.888
28117WAT     H284594   9.577   1.055   2.916
28118WAT      O84595   9.511   2.841   8.954
28118WAT     H184596   9.464   2.875   9.034
28118WAT     H284597   9.462   2.762   8.917
28119WAT      O84598   1.316   6.476   5.711
28119WAT     H184599   1.415   6.464   5.718
28119WAT     H284600   1.297   6.566   5.673
28120WAT      O84601   2.112   1.394   0.349
28120WAT     H184602   2.138   1.474   0.401
28120WAT     H284603   2.101   1.316   0.410
28121WAT      O84604   3.434   1.989   1.072
28121WAT     H184605   3.494   1.912   1.050
28121WAT     H284606   3.372   2.005   0.994
28122WAT      O84607   7.635   5.129   3.231
28122WAT     H184608   7.593   5.191   3.297
28122WAT     H284609   7.566   5.065   3.197
28123WAT      O84610   8.982   2.399   2.694
28123WAT     H184611   9.041   2.422   2.771
28123WAT     H284612   8.955   2.302   2.701
28124WAT      O84613   0.989   4.705   3.858
28124WAT     H184614   0.932   4.644   3.803
28124WAT     H284615   1.085   4.681   3.846
28125WAT      O84616   7.314   2.048   1.947
28125WAT     H184617   7.246   2.021   2.016
28125WAT     H284618   7.266   2.087   1.868
28126WAT      O84619   3.613   8.262   2.126
28126WAT     H184620   3.687   8.239   2.190
28126WAT     H284621   3.594   8.183   2.068
28127WAT      O84622   1.514   1.660   6.752
28127WAT     H184623   1.433   1.696   6.799
28127WAT     H284624   1.499   1.662   6.654
28128WAT      O84625   6.065   7.151   4.529
28128WAT     H184626   6.104   7.218   4.466
28128WAT     H284627   6.091   7.174   4.623
28129WAT      O84628   8.263   1.032   1.220
28129WAT     H184629   8.268   1.097   1.296
28129WAT     H284630   8.339   1.049   1.157
28130WAT      O84631   2.194   4.675   2.708
28130WAT     H184632   2.285   4.704   2.740
28130WAT     H284633   2.188   4.689   2.609
28131WAT      O84634   2.818   5.082   1.944
28131WAT     H184635   2.873   5.163   1.924
28131WAT     H284636   2.771   5.095   2.032
28132WAT      O84637   4.981   7.996   6.189
28132WAT     H184638   5.014   8.018   6.097
28132WAT     H284639   4.881   8.007   6.191
28133WAT      O84640   4.821   7.243   8.893
28133WAT     H184641   4.731   7.201   8.883
28133WAT     H284642   4.817   7.311   8.966
28134WAT      O84643   6.733   3.254   5.277
28134WAT     H184644   6.803   3.198   5.321
28134WAT     H284645   6.649   3.200   5.266
28135WAT      O84646   4.784   1.664   0.822
28135WAT     H184647   4.800   1.567   0.800
28135WAT     H284648   4.756   1.672   0.917
28136WAT      O84649   5.871   7.638   8.154
28136WAT     H184650   5.888   7.626   8.252
28136WAT     H284651   5.793   7.699   8.140
28137WAT      O84652   2.260   9.519   7.232
28137WAT     H184653   2.316   9.598   7.211
28137WAT     H284654   2.300   9.437   7.192
28138WAT      O84655   9.092   2.553   5.909
28138WAT     H184656   9.045   2.483   5.855
28138WAT     H284657   9.048   2.642   5.894
28139WAT      O84658   5.681   7.331   4.652
28139WAT     H184659   5.716   7.415   4.693
28139WAT     H284660   5.750   7.292   4.592
28140WAT      O84661   2.823   6.503   2.869
28140WAT     H184662   2.785   6.539   2.783
28140WAT     H284663   2.751   6.496   2.937
28141WAT      O84664   5.600   3.806   1.693
28141WAT     H184665   5.631   3.893   1.657
28141WAT     H284666   5.562   3.819   1.785
28142WAT      O84667   4.368   0.453   4.758
28142WAT     H184668   4.444   0.473   4.819
28142WAT     H284669   4.294   0.410   4.810
28143WAT      O84670   6.032   8.561   9.360
28143WAT     H184671   6.076   8.651   9.361
28143WAT     H284672   5.955   8.561   9.422
28144WAT      O84673   3.385   9.003   5.379
28144WAT     H184674   3.432   8.917   5.400
28144WAT     H284675   3.375   9.057   5.463
28145WAT      O84676   9.207   5.778   4.903
28145WAT     H184677   9.214   5.763   5.002
28145WAT     H284678   9.257   5.706   4.855
28146WAT      O84679   8.580   0.754   8.187
28146WAT     H184680   8.482   0.774   8.185
28146WAT     H284681   8.596   0.658   8.162
28147WAT      O84682   9.575   8.434   2.260
28147WAT     H184683   9.654   8.487   2.289
28147WAT     H284684   9.491   8.480   2.287
28148WAT      O84685   1.387   8.704   0.238
28148WAT     H184686   1.463   8.665   0.186
28148WAT     H284687   1.300   8.671   0.200
28149WAT      O84688   1.336   6.031   5.687
28149WAT     H184689   1.330   6.002   5.783
28149WAT     H284690   1.263   6.096   5.668
28150WAT      O84691   0.689   4.668   5.340
28150WAT     H184692   0.709   4.721   5.258
28150WAT     H284693   0.635   4.723   5.403
28151WAT      O84694   5.970   5.871   0.250
28151WAT     H184695   5.903   5.797   0.258
28151WAT     H284696   5.924   5.959   0.256
28152WAT      O84697   6.658   5.891   7.613
28152WAT     H184698   6.610   5.819   7.564
28152WAT     H284699   6.687   5.858   7.703
28153WAT      O84700   8.711   2.740   2.227
28153WAT     H184701   8.664   2.772   2.309
28153WAT     H284702   8.648   2.689   2.169
28154WAT      O84703   6.075   9.677   1.614
28154WAT     H184704   6.014   9.598   1.605
28154WAT     H284705   6.166   9.646   1.640
28155WAT      O84706   3.002   9.349   8.849
28155WAT     H184707   2.957   9.435   8.874
28155WAT     H284708   2.934   9.276   8.843
28156WAT      O84709   5.475   6.769   5.779
28156WAT     H184710   5.531   6.698   5.822
28156WAT     H284711   5.447   6.836   5.848
28157WAT      O84712   7.874   3.489   2.646
28157WAT     H184713   7.928   3.416   2.688
28157WAT     H284714   7.923   3.576   2.655
28158WAT      O84715   0.447   6.551   1.323
28158WAT     H184716   0.533   6.598   1.341
28158WAT     H284717   0.428   6.487   1.397
28159WAT      O84718   9.314   1.069   8.544
28159WAT     H184719   9.224   1.086   8.586
28159WAT     H284720   9.381   1.132   8.584
28160WAT      O84721   9.855   0.894   4.693
28160WAT     H184722   9.936   0.942   4.661
28160WAT     H284723   9.846   0.905   4.792
28161WAT      O84724   6.322   4.663   2.110
28161WAT     H184725   6.414   4.626   2.123
28161WAT     H284726   6.328   4.759   2.085
28162WAT      O84727   4.797   9.767   9.226
28162WAT     H184728   4.843   9.854   9.240
28162WAT     H284729   4.698   9.779   9.239
28163WAT      O84730   5.132   3.917   5.077
28163WAT     H184731   5.152   4.013   5.056
28163WAT     H284732   5.129   3.905   5.176
28164WAT      O84733   0.110   3.874   5.360
28164WAT     H184734   0.119   3.774   5.359
28164WAT     H284735   0.151   3.910   5.443
28165WAT      O84736   1.305   4.677   2.313
28165WAT     H184737   1.218   4.704   2.356
28165WAT     H284738   1.286   4.615   2.237
28166WAT      O84739   6.248   5.304   2.126
28166WAT     H184740   6.295   5.352   2.052
28166WAT     H284741   6.304   5.308   2.210
28167WAT      O84742   1.848   4.127   6.952
28167WAT     H184743   1.890   4.156   6.866
28167WAT     H284744   1.892   4.174   7.028
28168WAT      O84745   8.523   9.788   1.696
28168WAT     H184746   8.518   9.810   1.793
28168WAT     H284747   8.619   9.786   1.667
28169WAT      O84748   7.912   3.532   6.852
28169WAT     H184749   7.903   3.531   6.753
28169WAT     H284750   7.843   3.471   6.892
28170WAT      O84751   8.675   1.884   3.581
28170WAT     H184752   8.579   1.876   3.607
28170WAT     H284753   8.732   1.880   3.663
28171WAT      O84754   2.202   9.347   4.515
28171WAT     H184755   2.291   9.310   4.489
28171WAT     H284756   2.185   9.432   4.465
28172WAT      O84757   8.966   2.694   1.749
28172WAT     H184758   9.037   2.705   1.819
28172WAT     H284759   9.008   2.667   1.663
28173WAT      O84760   0.078   9.055   1.813
28173WAT     H184761   0.177   9.046   1.826
28173WAT     H284762   0.037   8.964   1.809
28174WAT      O84763   0.216   8.947   5.943
28174WAT     H184764   0.133   8.968   5.995
28174WAT     H284765   0.209   8.854   5.906
28175WAT      O84766   6.091   9.569   4.508
28175WAT     H184767   6.115   9.472   4.508
28175WAT     H284768   6.120   9.610   4.422
28176WAT      O84769   3.534   4.029   5.384
28176WAT     H184770   3.587   3.944   5.383
28176WAT     H284771   3.457   4.020   5.447
28177WAT      O84772   0.907   0.646   3.474
28177WAT     H184773   0.960   0.650   3.559
28177WAT     H284774   0.821   0.694   3.486
28178WAT      O84775   1.236   9.823   6.337
28178WAT     H184776   1.165   9.776   6.389
28178WAT     H284777   1.199   9.853   6.249
28179WAT      O84778   4.503   3.251   1.305
28179WAT     H184779   4.452   3.171   1.338
28179WAT     H284780   4.460   3.334   1.341
28180WAT      O84781   0.377   5.064   9.671
28180WAT     H184782   0.304   4.997   9.688
28180WAT     H284783   0.464   5.027   9.703
28181WAT      O84784   6.996   0.340   8.508
28181WAT     H184785   6.941   0.421   8.489
28181WAT     H284786   7.092   0.358   8.484
28182WAT      O84787   7.975   7.487   6.363
28182WAT     H184788   7.954   7.471   6.459
28182WAT     H284789   7.918   7.561   6.329
28183WAT      O84790   9.605   2.572   0.332
28183WAT     H184791   9.579   2.521   0.414
28183WAT     H284792   9.656   2.511   0.271
28184WAT      O84793   8.817   0.501   5.149
28184WAT     H184794   8.871   0.505   5.233
28184WAT     H284795   8.724   0.472   5.171
28185WAT      O84796   2.071   8.952   8.574
28185WAT     H184797   2.054   9.025   8.640
28185WAT     H284798   2.170   8.941   8.562
28186WAT      O84799   0.195   9.731   3.278
28186WAT     H184800   0.139   9.756   3.199
28186WAT     H284801   0.184   9.800   3.349
28187WAT      O84802   4.583   2.361   2.761
28187WAT     H184803   4.648   2.404   2.824
28187WAT     H284804   4.493   2.403   2.773
28188WAT      O84805   2.573   6.775   1.723
28188WAT     H184806   2.549   6.861   1.678
28188WAT     H284807   2.491   6.719   1.735
28189WAT      O84808   9.486   5.981   8.727
28189WAT     H184809   9.498   6.077   8.750
28189WAT     H284810   9.399   5.948   8.764
28190WAT      O84811   8.440   3.232   4.258
28190WAT     H184812   8.343   3.208   4.258
28190WAT     H284813   8.469   3.255   4.165
28191WAT      O84814   9.459   0.078   8.555
28191WAT     H184815   9.388   0.053   8.489
28191WAT     H284816   9.479  -0.001   8.614
28192WAT      O84817   3.364   1.665   1.388
28192WAT     H184818   3.304   1.639   1.463
28192WAT     H284819   3.327   1.746   1.342
28193WAT      O84820   8.489   3.503   5.280
28193WAT     H184821   8.431   3.542   5.209
28193WAT     H284822   8.434   3.450   5.344
28194WAT      O84823   3.277   4.318   1.358
28194WAT     H184824   3.209   4.306   1.286
28194WAT     H284825   3.286   4.415   1.379
28195WAT      O84826   7.430   0.912   1.355
28195WAT     H184827   7.405   0.918   1.259
28195WAT     H284828   7.353   0.876   1.408
28196WAT      O84829   0.859   5.527   4.944
28196WAT     H184830   0.862   5.625   4.926
28196WAT     H284831   0.770   5.503   4.983
28197WAT      O84832   6.843   7.088   4.651
28197WAT     H184833   6.918   7.110   4.589
28197WAT     H284834   6.804   6.999   4.625
28198WAT      O84835   0.477   5.329   9.853
28198WAT     H184836   0.390   5.355   9.811
28198WAT     H284837   0.460   5.263   9.926
28199WAT      O84838   1.732   0.735   2.264
28199WAT     H184839   1.639   0.762   2.238
28199WAT     H284840   1.793   0.744   2.186
28200WAT      O84841   0.675   8.634   3.836
28200WAT     H184842   0.763   8.648   3.790
28200WAT     H284843   0.620   8.717   3.829
28201WAT      O84844   3.685   1.335   3.585
28201WAT     H184845   3.591   1.356   3.561
28201WAT     H284846   3.702   1.361   3.680
28202WAT      O84847   3.604   9.458   2.012
28202WAT     H184848   3.589   9.366   1.974
28202WAT     H284849   3.643   9.517   1.941
28203WAT      O84850   5.379   4.724   0.129
28203WAT     H184851   5.460   4.778   0.149
28203WAT     H284852   5.401   4.655   0.060
28204WAT      O84853   3.264   7.237   8.797
28204WAT     H184854   3.197   7.166   8.817
28204WAT     H284855   3.348   7.220   8.849
28205WAT      O84856   4.511   0.797   8.897
28205WAT     H184857   4.503   0.743   8.981
28205WAT     H284858   4.595   0.772   8.849
28206WAT      O84859   6.871   7.598   8.359
28206WAT     H184860   6.901   7.569   8.449
28206WAT     H284861   6.922   7.680   8.332
28207WAT      O84862   9.210   1.738   5.494
28207WAT     H184863   9.278   1.668   5.471
28207WAT     H284864   9.143   1.744   5.420
28208WAT      O84865   6.209   7.705   8.264
28208WAT     H184866   6.146   7.780   8.244
28208WAT     H284867   6.301   7.729   8.231
28209WAT      O84868   7.136   7.766   9.365
28209WAT     H184869   7.222   7.718   9.382
28209WAT     H284870   7.147   7.862   9.390
28210WAT      O84871   1.299   2.311   3.457
28210WAT     H184872   1.290   2.367   3.375
28210WAT     H284873   1.241   2.230   3.450
28211WAT      O84874   3.565   6.156   5.324
28211WAT     H184875   3.641   6.116   5.375
28211WAT     H284876   3.565   6.121   5.230
28212WAT      O84877   5.849   1.527   0.480
28212WAT     H184878   5.799   1.464   0.420
28212WAT     H284879   5.942   1.539   0.446
28213WAT      O84880   3.794   2.775   7.996
28213WAT     H184881   3.712   2.832   7.986
28213WAT     H284882   3.875   2.831   7.981
28214WAT      O84883   7.306   4.077   8.745
28214WAT     H184884   7.346   4.165   8.718
28214WAT     H284885   7.374   4.004   8.731
28215WAT      O84886   6.382   6.797   5.569
28215WAT     H184887   6.342   6.877   5.525
28215WAT     H284888   6.309   6.734   5.597
28216WAT      O84889   1.621   0.590   5.515
28216WAT     H184890   1.555   0.636   5.455
28216WAT     H284891   1.706   0.573   5.464
28217WAT      O84892   0.446   4.442   6.565
28217WAT     H184893   0.387   4.385   6.623
28217WAT     H284894   0.476   4.522   6.616
28218WAT      O84895   8.330   6.138   0.242
28218WAT     H184896   8.329   6.042   0.269
28218WAT     H284897   8.343   6.196   0.323
28219WAT      O84898   8.175   5.205   1.735
28219WAT     H184899   8.096   5.262   1.759
28219WAT     H284900   8.155   5.155   1.651
28220WAT      O84901   1.693   5.231   3.293
28220WAT     H184902   1.758   5.300   3.261
28220WAT     H284903   1.744   5.153   3.331
28221WAT      O84904   2.827   9.118   3.184
28221WAT     H184905   2.734   9.139   3.212
28221WAT     H284906   2.873   9.202   3.156
28222WAT      O84907   4.923   6.754   8.404
28222WAT     H184908   5.000   6.803   8.362
28222WAT     H284909   4.871   6.817   8.462
28223WAT      O84910   6.618   1.746   9.335
28223WAT     H184911   6.689   1.685   9.299
28223WAT     H284912   6.631   1.838   9.298
28224WAT      O84913   0.711   7.385   1.974
28224WAT     H184914   0.669   7.446   1.907
28224WAT     H284915   0.703   7.290   1.942
28225WAT      O84916   6.808   2.748   4.729
28225WAT     H184917   6.825   2.827   4.670
28225WAT     H284918   6.754   2.776   4.808
28226WAT      O84919   3.172   4.396   7.947
28226WAT     H184920   3.172   4.480   8.001
28226WAT     H284921   3.096   4.338   7.976
28227WAT      O84922   5.183   0.616   8.436
28227WAT     H184923   5.283   0.621   8.439
28227WAT     H284924   5.145   0.708   8.420
28228WAT      O84925   3.064   7.395   8.626
28228WAT     H184926   3.147   7.363   8.671
28228WAT     H284927   2.984   7.368   8.680
28229WAT      O84928   0.781   8.579   4.063
28229WAT     H184929   0.874   8.614   4.057
28229WAT     H284930   0.736   8.587   3.974
28230WAT      O84931   0.020   3.764   3.820
28230WAT     H184932   0.020   3.664   3.815
28230WAT     H284933   0.094   3.794   3.880
28231WAT      O84934   1.051   0.125   1.043
28231WAT     H184935   0.994   0.053   1.002
28231WAT     H284936   1.105   0.086   1.118
28232WAT      O84937   0.287   0.449   5.763
28232WAT     H184938   0.240   0.361   5.769
28232WAT     H284939   0.324   0.461   5.671
28233WAT      O84940   0.973   2.683   2.561
28233WAT     H184941   1.003   2.776   2.537
28233WAT     H284942   0.918   2.646   2.486
28234WAT      O84943   5.938   1.029   8.054
28234WAT     H184944   5.936   0.930   8.044
28234WAT     H284945   6.032   1.061   8.047
28235WAT      O84946   1.736   7.166   6.124
28235WAT     H184947   1.772   7.173   6.217
28235WAT     H284948   1.760   7.076   6.087
28236WAT      O84949   3.456   4.052   8.437
28236WAT     H184950   3.416   3.965   8.465
28236WAT     H284951   3.397   4.127   8.466
28237WAT      O84952   6.426   7.053   7.684
28237WAT     H184953   6.506   7.112   7.669
28237WAT     H284954   6.434   7.009   7.773
28238WAT      O84955   1.492   2.086   5.550
28238WAT     H184956   1.536   2.076   5.460
28238WAT     H284957   1.481   2.183   5.571
28239WAT      O84958   4.053   4.173   6.931
28239WAT     H184959   4.042   4.142   7.025
28239WAT     H284960   4.070   4.094   6.872
28240WAT      O84961   1.165   2.335   5.475
28240WAT     H184962   1.210   2.321   5.386
28240WAT     H284963   1.147   2.433   5.488
28241WAT      O84964   6.219   6.863   0.746
28241WAT     H184965   6.230   6.772   0.787
28241WAT     H284966   6.275   6.871   0.664
28242WAT      O84967   3.225   6.426   1.743
28242WAT     H184968   3.190   6.504   1.690
28242WAT     H284969   3.150   6.381   1.791
28243WAT      O84970   3.412   8.732   3.192
28243WAT     H184971   3.500   8.779   3.184
28243WAT     H284972   3.372   8.751   3.282
28244WAT      O84973   3.222   0.494   5.878
28244WAT     H184974   3.311   0.450   5.875
28244WAT     H284975   3.153   0.427   5.905
28245WAT      O84976   1.502   4.543   6.686
28245WAT     H184977   1.491   4.447   6.709
28245WAT     H284978   1.412   4.588   6.688
28246WAT      O84979   1.993   5.107   4.252
28246WAT     H184980   2.061   5.049   4.208
28246WAT     H284981   2.034   5.196   4.274
28247WAT      O84982   5.276   8.303   3.877
28247WAT     H184983   5.215   8.357   3.819
28247WAT     H284984   5.369   8.340   3.872
28248WAT      O84985   7.014   5.880   0.081
28248WAT     H184986   6.984   5.953   0.020
28248WAT     H284987   7.083   5.915   0.144
28249WAT      O84988   0.135   2.544   6.870
28249WAT     H184989   0.070   2.620   6.881
28249WAT     H284990   0.229   2.580   6.870
28250WAT      O84991   2.219   8.212   1.538
28250WAT     H184992   2.168   8.138   1.493
28250WAT     H284993   2.243   8.184   1.631
28251WAT      O84994   1.023   5.103   8.439
28251WAT     H184995   1.089   5.090   8.365
28251WAT     H284996   0.995   5.014   8.475
28252WAT      O84997   0.862   5.390   3.401
28252WAT     H184998   0.788   5.428   3.456
28252WAT     H284999   0.950   5.428   3.431
28253WAT      O85000   0.140   8.788   2.148
28253WAT     H185001   0.164   8.876   2.108
28253WAT     H285002   0.143   8.795   2.248
28254WAT      O85003   9.544   9.748   2.137
28254WAT     H185004   9.564   9.761   2.235
28254WAT     H285005   9.445   9.748   2.124
28255WAT      O85006   6.205   9.358   6.360
28255WAT     H185007   6.264   9.318   6.291
28255WAT     H285008   6.218   9.457   6.361
28256WAT      O85009   7.448   9.617   5.583
28256WAT     H185010   7.349   9.623   5.587
28256WAT     H285011   7.477   9.525   5.607
28257WAT      O85012   3.563   2.119   1.279
28257WAT     H185013   3.509   2.069   1.211
28257WAT     H285014   3.505   2.188   1.323
28258WAT      O85015   5.681   3.379   3.795
28258WAT     H185016   5.585   3.366   3.770
28258WAT     H285017   5.690   3.378   3.894
28259WAT      O85018   8.312   6.364   1.248
28259WAT     H185019   8.253   6.297   1.294
28259WAT     H285020   8.256   6.428   1.196
28260WAT      O85021   5.938   7.049   8.199
28260WAT     H185022   5.889   7.025   8.115
28260WAT     H285023   5.895   7.128   8.242
28261WAT      O85024   0.091   3.598   7.979
28261WAT     H185025  -0.008   3.605   7.970
28261WAT     H285026   0.125   3.677   8.031
28262WAT      O85027   8.167   4.352   3.725
28262WAT     H185028   8.237   4.297   3.770
28262WAT     H285029   8.141   4.310   3.639
28263WAT      O85030   3.608   4.986   3.813
28263WAT     H185031   3.520   4.965   3.856
28263WAT     H285032   3.682   4.955   3.874
28264WAT      O85033   9.336   7.268   0.867
28264WAT     H185034   9.377   7.359   0.878
28264WAT     H285035   9.359   7.211   0.947
28265WAT      O85036   5.522   3.501   3.571
28265WAT     H185037   5.466   3.570   3.525
28265WAT     H285038   5.617   3.532   3.576
28266WAT      O85039   9.380   4.950   9.880
28266WAT     H185040   9.375   4.881   9.808
28266WAT     H285041   9.344   4.912   9.965
28267WAT      O85042   5.237   9.383   0.189
28267WAT     H185043   5.277   9.301   0.230
28267WAT     H285044   5.179   9.356   0.112
28268WAT      O85045   8.368   9.168   8.577
28268WAT     H185046   8.440   9.205   8.637
28268WAT     H285047   8.357   9.228   8.498
28269WAT      O85048   7.798   0.861   9.575
28269WAT     H185049   7.741   0.909   9.508
28269WAT     H285050   7.787   0.762   9.563
28270WAT      O85051   8.295   2.974   7.140
28270WAT     H185052   8.380   3.013   7.174
28270WAT     H285053   8.234   2.955   7.217
28271WAT      O85054   4.173   3.318   6.268
28271WAT     H185055   4.267   3.284   6.268
28271WAT     H285056   4.132   3.304   6.178
28272WAT      O85057   0.138   5.819   4.883
28272WAT     H185058   0.151   5.844   4.787
28272WAT     H285059   0.070   5.746   4.889
28273WAT      O85060   3.878   4.193   9.746
28273WAT     H185061   3.950   4.146   9.797
28273WAT     H285062   3.905   4.201   9.650
28274WAT      O85063   1.805   0.952   2.918
28274WAT     H185064   1.719   0.957   2.868
28274WAT     H285065   1.861   0.878   2.881
28275WAT      O85066   7.692   0.703   7.782
28275WAT     H185067   7.626   0.705   7.706
28275WAT     H285068   7.692   0.612   7.823
28276WAT      O85069   4.197   2.913   3.387
28276WAT     H185070   4.169   3.005   3.362
28276WAT     H285071   4.242   2.869   3.309
28277WAT      O85072   2.545   4.253   5.290
28277WAT     H185073   2.489   4.170   5.290
28277WAT     H285074   2.638   4.230   5.316
28278WAT      O85075   2.471   8.334   4.498
28278WAT     H185076   2.517   8.423   4.497
28278WAT     H285077   2.421   8.321   4.412
28279WAT      O85078   9.872   9.838   3.070
28279WAT     H185079   9.881   9.901   3.146
28279WAT     H285080   9.793   9.778   3.085
28280WAT      O85081   0.742   4.245   4.355
28280WAT     H185082   0.772   4.315   4.289
28280WAT     H285083   0.703   4.168   4.305
28281WAT      O85084   3.160   3.602   5.282
28281WAT     H185085   3.119   3.537   5.218
28281WAT     H285086   3.169   3.560   5.372
28282WAT      O85087   2.682   1.513   7.916
28282WAT     H185088   2.729   1.430   7.887
28282WAT     H285089   2.600   1.488   7.967
28283WAT      O85090   5.312   1.030   1.063
28283WAT     H185091   5.272   1.026   1.154
28283WAT     H285092   5.356   1.119   1.049
28284WAT      O85093   9.381   4.977   5.629
28284WAT     H185094   9.479   4.995   5.624
28284WAT     H285095   9.336   5.013   5.547
28285WAT      O85096   8.277   3.951   9.653
28285WAT     H185097   8.179   3.940   9.664
28285WAT     H285098   8.316   3.991   9.736
28286WAT      O85099   3.719   9.470   9.041
28286WAT     H185100   3.675   9.381   9.033
28286WAT     H285101   3.745   9.486   9.136
28287WAT      O85102   4.922   4.881   8.093
28287WAT     H185103   4.829   4.895   8.061
28287WAT     H285104   4.943   4.947   8.165
28288WAT      O85105   5.885   8.417   6.337
28288WAT     H185106   5.900   8.407   6.435
28288WAT     H285107   5.844   8.506   6.318
28289WAT      O85108   7.769   9.449   4.314
28289WAT     H185109   7.694   9.515   4.318
28289WAT     H285110   7.835   9.477   4.244
28290WAT      O85111   2.836   7.306   6.485
28290WAT     H185112   2.885   7.351   6.411
28290WAT     H285113   2.900   7.276   6.555
28291WAT      O85114   7.632   9.072   3.279
28291WAT     H185115   7.578   9.026   3.349
28291WAT     H285116   7.580   9.076   3.194
28292WAT      O85117   5.232   5.273   9.301
28292WAT     H185118   5.279   5.214   9.366
28292WAT     H285119   5.288   5.283   9.219
28293WAT      O85120   0.198   2.609   9.240
28293WAT     H185121   0.154   2.639   9.155
28293WAT     H285122   0.224   2.689   9.294
28294WAT      O85123   5.234   2.279   4.809
28294WAT     H185124   5.209   2.187   4.840
28294WAT     H285125   5.151   2.334   4.800
28295WAT      O85126   1.776   4.810   5.024
28295WAT     H185127   1.805   4.715   5.031
28295WAT     H285128   1.678   4.814   5.001
28296WAT      O85129   3.496   2.178   4.790
28296WAT     H185130   3.435   2.174   4.870
28296WAT     H285131   3.585   2.139   4.814
28297WAT      O85132   8.254   5.794   6.687
28297WAT     H185133   8.186   5.720   6.691
28297WAT     H285134   8.322   5.773   6.616
28298WAT      O85135   8.431   8.777   3.380
28298WAT     H185136   8.516   8.765   3.327
28298WAT     H285137   8.353   8.745   3.325
28299WAT      O85138   7.736   6.715   3.887
28299WAT     H185139   7.688   6.637   3.926
28299WAT     H285140   7.693   6.800   3.918
28300WAT      O85141   6.200   4.677   9.828
28300WAT     H185142   6.182   4.668   9.730
28300WAT     H285143   6.204   4.774   9.853
28301WAT      O85144   5.939   8.070   9.152
28301WAT     H185145   5.885   8.142   9.194
28301WAT     H285146   5.919   7.983   9.195
28302WAT      O85147   3.831   5.983   9.194
28302WAT     H185148   3.801   5.983   9.289
28302WAT     H285149   3.835   5.888   9.160
28303WAT      O85150   6.478   1.714   6.524
28303WAT     H185151   6.541   1.699   6.447
28303WAT     H285152   6.438   1.805   6.517
28304WAT      O85153   3.002   6.280   4.326
28304WAT     H185154   3.033   6.299   4.419
28304WAT     H285155   2.904   6.298   4.319
28305WAT      O85156   8.272   1.105   5.930
28305WAT     H185157   8.229   1.147   6.011
28305WAT     H285158   8.361   1.148   5.914
28306WAT      O85159   5.661   7.910   6.299
28306WAT     H185160   5.631   8.002   6.325
28306WAT     H285161   5.695   7.862   6.380
28307WAT      O85162   7.239   0.631   4.882
28307WAT     H185163   7.250   0.627   4.783
28307WAT     H285164   7.225   0.539   4.918
28308WAT      O85165   0.500   0.268   3.189
28308WAT     H185166   0.586   0.222   3.167
28308WAT     H285167   0.423   0.214   3.154
28309WAT      O85168   1.624   3.129   9.718
28309WAT     H185169   1.693   3.061   9.692
28309WAT     H285170   1.546   3.083   9.761
28310WAT      O85171   8.886   0.835   6.936
28310WAT     H185172   8.845   0.750   6.969
28310WAT     H285173   8.983   0.821   6.919
28311WAT      O85174   0.168   1.228   4.690
28311WAT     H185175   0.209   1.138   4.706
28311WAT     H285176   0.188   1.257   4.596
28312WAT      O85177   7.994   4.651   9.431
28312WAT     H185178   7.935   4.719   9.474
28312WAT     H285179   8.020   4.683   9.340
28313WAT      O85180   2.532   6.778   4.673
28313WAT     H185181   2.545   6.877   4.671
28313WAT     H285182   2.485   6.749   4.589
28314WAT      O85183   4.492   0.520   7.298
28314WAT     H185184   4.567   0.575   7.262
28314WAT     H285185   4.411   0.532   7.240
28315WAT      O85186   6.078   9.022   2.651
28315WAT     H185187   6.139   9.067   2.585
28315WAT     H285188   6.111   8.929   2.667
28316WAT      O85189   7.037   8.320   9.373
28316WAT     H185190   7.037   8.359   9.281
28316WAT     H285191   7.053   8.392   9.440
28317WAT      O85192   6.437   6.901   6.179
28317WAT     H185193   6.505   6.909   6.107
28317WAT     H285194   6.416   6.804   6.195
28318WAT      O85195   9.797   5.094   4.534
28318WAT     H185196   9.711   5.144   4.532
28318WAT     H285197   9.791   5.015   4.473
28319WAT      O85198   0.335   5.965   3.686
28319WAT     H185199   0.263   5.907   3.725
28319WAT     H285200   0.419   5.952   3.738
28320WAT      O85201   5.680   4.352   8.561
28320WAT     H185202   5.688   4.273   8.622
28320WAT     H285203   5.676   4.321   8.467
28321WAT      O85204   7.673   2.056   7.006
28321WAT     H185205   7.655   2.007   6.921
28321WAT     H285206   7.762   2.102   7.000
28322WAT      O85207   1.986   2.365   7.848
28322WAT     H185208   2.031   2.326   7.928
28322WAT     H285209   2.051   2.419   7.796
28323WAT      O85210   4.248   8.260   3.649
28323WAT     H185211   4.346   8.253   3.630
28323WAT     H285212   4.230   8.343   3.702
28324WAT      O85213   3.599   4.401   3.722
28324WAT     H185214   3.505   4.366   3.731
28324WAT     H285215   3.621   4.458   3.801
28325WAT      O85216   5.657   0.529   2.522
28325WAT     H185217   5.657   0.585   2.439
28325WAT     H285218   5.588   0.564   2.586
28326WAT      O85219   1.763   4.998   0.371
28326WAT     H185220   1.666   5.004   0.348
28326WAT     H285221   1.808   5.084   0.350
28327WAT      O85222   1.550   8.614   0.051
28327WAT     H185223   1.640   8.656   0.038
28327WAT     H285224   1.501   8.614  -0.036
28328WAT      O85225   2.392   7.716   7.823
28328WAT     H185226   2.303   7.682   7.853
28328WAT     H285227   2.386   7.814   7.804
28329WAT      O85228   8.818   7.232   4.661
28329WAT     H185229   8.838   7.296   4.587
28329WAT     H285230   8.758   7.160   4.627
28330WAT      O85231   2.105   2.283   8.128
28330WAT     H185232   2.033   2.313   8.191
28330WAT     H285233   2.151   2.202   8.167
28331WAT      O85234   6.503   5.713   7.469
28331WAT     H185235   6.415   5.717   7.421
28331WAT     H285236   6.546   5.625   7.451
28332WAT      O85237   8.274   9.030   7.696
28332WAT     H185238   8.265   8.968   7.617
28332WAT     H285239   8.371   9.047   7.714
28333WAT      O85240   0.283   0.419   2.698
28333WAT     H185241   0.317   0.440   2.790
28333WAT     H285242   0.269   0.504   2.648
28334WAT      O85243   0.606   3.105   0.477
28334WAT     H185244   0.640   3.187   0.523
28334WAT     H285245   0.665   3.027   0.501
28335WAT      O85246   6.091   5.029   4.373
28335WAT     H185247   6.132   4.940   4.348
28335WAT     H285248   6.153   5.077   4.435
28336WAT      O85249   0.626   6.825   5.358
28336WAT     H185250   0.569   6.808   5.439
28336WAT     H285251   0.723   6.817   5.384
28337WAT      O85252   3.918   1.940   7.735
28337WAT     H185253   3.822   1.932   7.706
28337WAT     H285254   3.932   2.029   7.780
28338WAT      O85255   4.295   8.837   9.642
28338WAT     H185256   4.290   8.746   9.683
28338WAT     H285257   4.263   8.834   9.548
28339WAT      O85258   0.086   7.517   2.929
28339WAT     H185259  -0.012   7.498   2.922
28339WAT     H285260   0.103   7.581   3.004
28340WAT      O85261   7.432   6.102   8.903
28340WAT     H185262   7.403   6.159   8.826
28340WAT     H285263   7.388   6.134   8.987
28341WAT      O85264   4.633   5.227   4.302
28341WAT     H185265   4.557   5.181   4.256
28341WAT     H285266   4.636   5.323   4.274
28342WAT      O85267   5.609   3.002   2.247
28342WAT     H185268   5.660   2.964   2.171
28342WAT     H285269   5.667   3.005   2.328
28343WAT      O85270   8.940   1.775   7.970
28343WAT     H185271   9.034   1.740   7.977
28343WAT     H285272   8.887   1.715   7.911
28344WAT      O85273   4.122   2.917   7.812
28344WAT     H185274   4.042   2.918   7.751
28344WAT     H285275   4.105   2.976   7.890
28345WAT      O85276   1.323   5.775   5.537
28345WAT     H185277   1.229   5.760   5.505
28345WAT     H285278   1.326   5.858   5.592
28346WAT      O85279   7.495   6.926   5.533
28346WAT     H185280   7.443   6.892   5.611
28346WAT     H285281   7.567   6.987   5.565
28347WAT      O85282   1.177   7.937   3.304
28347WAT     H185283   1.122   7.949   3.221
28347WAT     H285284   1.245   8.011   3.309
28348WAT      O85285   2.819   7.656   4.911
28348WAT     H185286   2.774   7.689   4.994
28348WAT     H285287   2.759   7.672   4.832
28349WAT      O85288   5.354   0.162   7.790
28349WAT     H185289   5.357   0.076   7.739
28349WAT     H285290   5.423   0.161   7.861
28350WAT      O85291   2.532   0.322   5.738
28350WAT     H185292   2.466   0.249   5.754
28350WAT     H285293   2.523   0.393   5.808
28351WAT      O85294   2.097   4.128   6.297
28351WAT     H185295   2.136   4.071   6.369
28351WAT     H285296   1.997   4.120   6.298
28352WAT      O85297   0.447   1.881   0.850
28352WAT     H185298   0.447   1.827   0.934
28352WAT     H285299   0.379   1.954   0.858
28353WAT      O85300   8.247   1.565   9.198
28353WAT     H185301   8.155   1.553   9.237
28353WAT     H285302   8.303   1.485   9.220
28354WAT      O85303   1.910   5.143   1.585
28354WAT     H185304   1.851   5.222   1.597
28354WAT     H285305   1.858   5.068   1.544
28355WAT      O85306   2.143   4.660   8.029
28355WAT     H185307   2.154   4.562   8.047
28355WAT     H285308   2.115   4.707   8.112
28356WAT      O85309   2.761   2.021   8.859
28356WAT     H185310   2.789   2.009   8.955
28356WAT     H285311   2.665   1.994   8.850
28357WAT      O85312   5.780   7.869   6.075
28357WAT     H185313   5.733   7.891   6.160
28357WAT     H285314   5.834   7.786   6.087
28358WAT      O85315   1.515   3.666   0.557
28358WAT     H185316   1.543   3.762   0.555
28358WAT     H285317   1.591   3.608   0.527
28359WAT      O85318   1.799   4.332   0.702
28359WAT     H185319   1.767   4.423   0.678
28359WAT     H285320   1.890   4.339   0.744
28360WAT      O85321   0.092   5.404   9.459
28360WAT     H185322   0.181   5.403   9.412
28360WAT     H285323   0.035   5.330   9.423
28361WAT      O85324   3.506   7.466   9.166
28361WAT     H185325   3.419   7.465   9.216
28361WAT     H285326   3.568   7.399   9.206
28362WAT      O85327   4.171   1.841   0.089
28362WAT     H185328   4.115   1.774   0.138
28362WAT     H285329   4.161   1.828  -0.010
28363WAT      O85330   0.850   3.863   3.136
28363WAT     H185331   0.891   3.785   3.183
28363WAT     H285332   0.753   3.846   3.121
28364WAT      O85333   0.289   0.538   8.339
28364WAT     H185334   0.315   0.632   8.316
28364WAT     H285335   0.190   0.527   8.329
28365WAT      O85336   0.746   3.210   2.304
28365WAT     H185337   0.654   3.173   2.319
28365WAT     H285338   0.750   3.257   2.216
28366WAT      O85339   2.696   3.809   5.010
28366WAT     H185340   2.620   3.744   5.008
28366WAT     H285341   2.782   3.759   5.016
28367WAT      O85342   0.264   0.799   9.788
28367WAT     H185343   0.220   0.876   9.832
28367WAT     H285344   0.292   0.732   9.857
28368WAT      O85345   6.879   0.189   9.096
28368WAT     H185346   6.871   0.179   9.195
28368WAT     H285347   6.939   0.117   9.060
28369WAT      O85348   3.728   5.059   7.724
28369WAT     H185349   3.651   5.003   7.755
28369WAT     H285350   3.693   5.139   7.675
28370WAT      O85351   1.094   0.366   6.748
28370WAT     H185352   1.055   0.452   6.714
28370WAT     H285353   1.134   0.315   6.672
28371WAT      O85354   5.583   0.195   3.076
28371WAT     H185355   5.639   0.259   3.023
28371WAT     H285356   5.538   0.131   3.014
28372WAT      O85357   9.254   3.011   3.290
28372WAT     H185358   9.235   3.083   3.357
28372WAT     H285359   9.285   2.928   3.337
28373WAT      O85360   0.485   9.184   2.682
28373WAT     H185361   0.486   9.282   2.660
28373WAT     H285362   0.576   9.157   2.713
28374WAT      O85363   0.373   2.831   5.353
28374WAT     H185364   0.378   2.928   5.374
28374WAT     H285365   0.323   2.783   5.426
28375WAT      O85366   3.422   5.034   5.975
28375WAT     H185367   3.364   5.071   6.048
28375WAT     H285368   3.488   5.104   5.947
28376WAT      O85369   4.551   2.331   7.891
28376WAT     H185370   4.488   2.290   7.825
28376WAT     H285371   4.559   2.271   7.971
28377WAT      O85372   3.732   1.515   5.855
28377WAT     H185373   3.816   1.506   5.908
28377WAT     H285374   3.753   1.505   5.757
28378WAT      O85375   4.779   6.979   9.602
28378WAT     H185376   4.727   7.031   9.670
28378WAT     H285377   4.854   6.931   9.648
28379WAT      O85378   4.183   7.362   2.000
28379WAT     H185379   4.158   7.388   1.907
28379WAT     H285380   4.110   7.307   2.040
28380WAT      O85381   9.122   4.674   2.939
28380WAT     H185382   9.209   4.721   2.928
28380WAT     H285383   9.047   4.741   2.940
28381WAT      O85384   3.506   0.013   4.217
28381WAT     H185385   3.468  -0.050   4.285
28381WAT     H285386   3.451   0.097   4.215
28382WAT      O85387   5.376   4.211   9.450
28382WAT     H185388   5.373   4.209   9.350
28382WAT     H285389   5.381   4.117   9.485
28383WAT      O85390   8.671   9.258   7.989
28383WAT     H185391   8.677   9.256   7.889
28383WAT     H285392   8.763   9.245   8.028
28384WAT      O85393   3.653   1.229   3.842
28384WAT     H185394   3.631   1.216   3.939
28384WAT     H285395   3.734   1.174   3.819
28385WAT      O85396   4.800   2.597   5.300
28385WAT     H185397   4.737   2.632   5.370
28385WAT     H285398   4.792   2.498   5.293
28386WAT      O85399   5.871   6.693   8.094
28386WAT     H185400   5.791   6.711   8.036
28386WAT     H285401   5.951   6.738   8.054
28387WAT      O85402   4.732   5.033   5.942
28387WAT     H185403   4.683   4.948   5.920
28387WAT     H285404   4.743   5.087   5.859
28388WAT      O85405   3.698   4.213   2.155
28388WAT     H185406   3.673   4.241   2.063
28388WAT     H285407   3.683   4.114   2.166
28389WAT      O85408   4.485   0.161   0.394
28389WAT     H185409   4.485   0.247   0.446
28389WAT     H285410   4.544   0.171   0.314
28390WAT      O85411   7.453   2.204   7.740
28390WAT     H185412   7.424   2.198   7.645
28390WAT     H285413   7.540   2.156   7.752
28391WAT      O85414   0.859   3.940   6.032
28391WAT     H185415   0.884   3.861   6.088
28391WAT     H285416   0.940   3.971   5.981
28392WAT      O85417   2.814   1.973   7.523
28392WAT     H185418   2.743   1.942   7.586
28392WAT     H285419   2.844   2.064   7.549
28393WAT      O85420   9.669   9.525   1.276
28393WAT     H185421   9.616   9.599   1.318
28393WAT     H285422   9.765   9.550   1.274
28394WAT      O85423   2.335   3.413   0.205
28394WAT     H185424   2.290   3.439   0.291
28394WAT     H285425   2.331   3.490   0.141
28395WAT      O85426   8.634   2.471   6.895
28395WAT     H185427   8.652   2.416   6.813
28395WAT     H285428   8.711   2.533   6.910
28396WAT      O85429   1.988   9.089   2.128
28396WAT     H185430   1.957   9.020   2.062
28396WAT     H285431   2.040   9.044   2.201
28397WAT      O85432   6.937   7.091   0.210
28397WAT     H185433   7.028   7.105   0.249
28397WAT     H285434   6.943   7.028   0.132
28398WAT      O85435   2.080   7.401   8.468
28398WAT     H185436   2.155   7.407   8.535
28398WAT     H285437   2.071   7.306   8.437
28399WAT      O85438   9.525   6.022   2.195
28399WAT     H185439   9.493   6.086   2.126
28399WAT     H285440   9.516   6.063   2.286
28400WAT      O85441   1.506   3.349   8.152
28400WAT     H185442   1.502   3.260   8.198
28400WAT     H285443   1.441   3.412   8.195
28401WAT      O85444   3.827   3.333   4.879
28401WAT     H185445   3.735   3.331   4.918
28401WAT     H285446   3.860   3.427   4.876
28402WAT      O85447   1.584   7.275   9.552
28402WAT     H185448   1.547   7.316   9.635
28402WAT     H285449   1.644   7.199   9.577
28403WAT      O85450   3.426   7.138   5.411
28403WAT     H185451   3.468   7.228   5.401
28403WAT     H285452   3.400   7.102   5.321
28404WAT      O85453   5.033   3.566   4.478
28404WAT     H185454   4.974   3.642   4.507
28404WAT     H285455   5.105   3.552   4.546
28405WAT      O85456   8.258   9.060   0.719
28405WAT     H185457   8.209   9.121   0.781
28405WAT     H285458   8.204   8.977   0.705
28406WAT      O85459   5.436   0.094   2.607
28406WAT     H185460   5.512   0.158   2.593
28406WAT     H285461   5.426   0.036   2.526
28407WAT      O85462   5.789   0.950   1.616
28407WAT     H185463   5.747   0.932   1.705
28407WAT     H285464   5.737   1.021   1.568
28408WAT      O85465   0.110   2.550   3.116
28408WAT     H185466   0.115   2.455   3.086
28408WAT     H285467   0.088   2.553   3.213
28409WAT      O85468   9.195   7.974   2.689
28409WAT     H185469   9.248   8.053   2.657
28409WAT     H285470   9.101   8.003   2.707
28410WAT      O85471   6.394   6.025   5.849
28410WAT     H185472   6.417   6.049   5.943
28410WAT     H285473   6.478   6.011   5.797
28411WAT      O85474   7.093   5.767   3.506
28411WAT     H185475   7.057   5.858   3.491
28411WAT     H285476   7.018   5.703   3.523
28412WAT      O85477   9.006   7.437   7.410
28412WAT     H185478   8.993   7.421   7.508
28412WAT     H285479   9.042   7.529   7.396
28413WAT      O85480   3.564   9.560   6.482
28413WAT     H185481   3.634   9.602   6.539
28413WAT     H285482   3.474   9.580   6.520
28414WAT      O85483   0.872   0.350   5.907
28414WAT     H185484   0.916   0.261   5.919
28414WAT     H285485   0.775   0.336   5.886
28415WAT      O85486   6.301   4.167   9.001
28415WAT     H185487   6.259   4.165   8.911
28415WAT     H285488   6.236   4.132   9.069
28416WAT      O85489   0.679   1.630   7.163
28416WAT     H185490   0.586   1.593   7.172
28416WAT     H285491   0.727   1.621   7.250
28417WAT      O85492   0.708   3.454   7.551
28417WAT     H185493   0.722   3.481   7.646
28417WAT     H285494   0.728   3.531   7.491
28418WAT      O85495   7.934   1.185   7.752
28418WAT     H185496   7.924   1.233   7.666
28418WAT     H285497   7.871   1.222   7.820
28419WAT      O85498   8.125   0.702   6.110
28419WAT     H185499   8.080   0.781   6.069
28419WAT     H285500   8.073   0.670   6.188
28420WAT      O85501   9.059   9.594   4.866
28420WAT     H185502   9.060   9.559   4.772
28420WAT     H285503   9.073   9.693   4.865
28421WAT      O85504   6.388   7.266   8.101
28421WAT     H185505   6.461   7.248   8.166
28421WAT     H285506   6.424   7.315   8.021
28422WAT      O85507   1.930   9.563   3.714
28422WAT     H185508   1.958   9.659   3.715
28422WAT     H285509   2.011   9.505   3.725
28423WAT      O85510   5.274   1.705   2.966
28423WAT     H185511   5.294   1.641   2.891
28423WAT     H285512   5.199   1.670   3.021
28424WAT      O85513   8.462   4.165   6.070
28424WAT     H185514   8.438   4.253   6.112
28424WAT     H285515   8.484   4.180   5.974
28425WAT      O85516   3.108   3.133   3.339
28425WAT     H185517   3.177   3.123   3.267
28425WAT     H285518   3.018   3.139   3.297
28426WAT      O85519   7.750   5.001   6.606
28426WAT     H185520   7.786   4.941   6.535
28426WAT     H285521   7.743   4.952   6.693
28427WAT      O85522   4.501   4.158   0.735
28427WAT     H185523   4.588   4.152   0.784
28427WAT     H285524   4.458   4.068   0.732
28428WAT      O85525   7.444   9.669   7.005
28428WAT     H185526   7.359   9.721   7.014
28428WAT     H285527   7.521   9.733   6.997
28429WAT      O85528   1.642   8.478   7.110
28429WAT     H185529   1.547   8.468   7.082
28429WAT     H285530   1.663   8.413   7.182
28430WAT      O85531   2.347   8.021   0.146
28430WAT     H185532   2.271   7.974   0.190
28430WAT     H285533   2.362   8.109   0.192
28431WAT      O85534   1.564   5.742   6.287
28431WAT     H185535   1.573   5.834   6.323
28431WAT     H285536   1.646   5.689   6.309
28432WAT      O85537   1.546   1.195   4.250
28432WAT     H185538   1.474   1.202   4.319
28432WAT     H285539   1.534   1.269   4.183
28433WAT      O85540   1.236   6.059   2.080
28433WAT     H185541   1.260   6.071   1.984
28433WAT     H285542   1.315   6.026   2.131
28434WAT      O85543   1.730   8.959   2.813
28434WAT     H185544   1.686   8.968   2.724
28434WAT     H285545   1.778   8.871   2.819
28435WAT      O85546   0.238   6.588   2.662
28435WAT     H185547   0.200   6.639   2.585
28435WAT     H285548   0.288   6.509   2.627
28436WAT      O85549   3.719   2.677   4.906
28436WAT     H185550   3.685   2.770   4.902
28436WAT     H285551   3.762   2.660   4.995
28437WAT      O85552   4.183   8.185   7.004
28437WAT     H185553   4.209   8.226   7.092
28437WAT     H285554   4.126   8.104   7.021
28438WAT      O85555   0.562   5.049   2.748
28438WAT     H185556   0.576   4.954   2.722
28438WAT     H285557   0.603   5.109   2.680
28439WAT      O85558   7.253   2.471   3.094
28439WAT     H185559   7.320   2.494   3.025
28439WAT     H285560   7.200   2.392   3.065
28440WAT      O85561   6.571   4.802   0.075
28440WAT     H185562   6.508   4.833   0.147
28440WAT     H285563   6.527   4.731   0.021
28441WAT      O85564   3.878   0.876   2.138
28441WAT     H185565   3.794   0.905   2.092
28441WAT     H285566   3.908   0.788   2.100
28442WAT      O85567   0.776   9.750   1.644
28442WAT     H185568   0.829   9.794   1.571
28442WAT     H285569   0.697   9.806   1.667
28443WAT      O85570   4.926   3.142   6.577
28443WAT     H185571   4.858   3.123   6.648
28443WAT     H285572   5.010   3.176   6.621
28444WAT      O85573   3.434   8.905   4.290
28444WAT     H185574   3.346   8.883   4.333
28444WAT     H285575   3.493   8.824   4.293
28445WAT      O85576   6.340   1.961   3.718
28445WAT     H185577   6.306   2.055   3.717
28445WAT     H285578   6.262   1.897   3.721
28446WAT      O85579   4.053   0.190   8.779
28446WAT     H185580   3.992   0.194   8.700
28446WAT     H285581   4.013   0.243   8.854
28447WAT      O85582   1.856   7.810   8.904
28447WAT     H185583   1.783   7.773   8.845
28447WAT     H285584   1.864   7.908   8.890
28448WAT      O85585   4.834   5.581   3.605
28448WAT     H185586   4.771   5.561   3.680
28448WAT     H285587   4.807   5.529   3.524
28449WAT      O85588   8.311   2.993   7.967
28449WAT     H185589   8.280   2.906   7.928
28449WAT     H285590   8.364   3.043   7.899
28450WAT      O85591   4.110   2.190   7.616
28450WAT     H185592   4.071   2.164   7.704
28450WAT     H285593   4.090   2.287   7.598
28451WAT      O85594   4.738   2.019   4.657
28451WAT     H185595   4.790   2.100   4.630
28451WAT     H285596   4.788   1.936   4.631
28452WAT      O85597   8.410   9.669   4.683
28452WAT     H185598   8.487   9.606   4.678
28452WAT     H285599   8.413   9.720   4.769
28453WAT      O85600   0.801   0.031   3.561
28453WAT     H185601   0.806   0.128   3.537
28453WAT     H285602   0.821   0.019   3.658
28454WAT      O85603   8.618   4.325   2.692
28454WAT     H185604   8.659   4.322   2.600
28454WAT     H285605   8.603   4.420   2.718
28455WAT      O85606   9.522   4.520   8.290
28455WAT     H185607   9.475   4.498   8.205
28455WAT     H285608   9.492   4.609   8.323
28456WAT      O85609   4.434   9.838   0.188
28456WAT     H185610   4.438   9.885   0.276
28456WAT     H285611   4.379   9.890   0.124
28457WAT      O85612   3.577   8.075   0.142
28457WAT     H185613   3.519   8.023   0.204
28457WAT     H285614   3.627   8.144   0.194
28458WAT      O85615   7.149   5.847   8.972
28458WAT     H185616   7.081   5.865   8.901
28458WAT     H285617   7.194   5.933   8.996
28459WAT      O85618   9.019   4.247   4.286
28459WAT     H185619   9.029   4.160   4.335
28459WAT     H285620   8.981   4.315   4.348
28460WAT      O85621   2.343   5.766   8.968
28460WAT     H185622   2.381   5.777   9.060
28460WAT     H285623   2.417   5.764   8.902
28461WAT      O85624   2.703   8.158   0.127
28461WAT     H185625   2.801   8.141   0.127
28461WAT     H285626   2.657   8.087   0.181
28462WAT      O85627   1.266   3.915   1.688
28462WAT     H185628   1.219   3.962   1.763
28462WAT     H285629   1.347   3.967   1.661
28463WAT      O85630   8.719   3.294   6.581
28463WAT     H185631   8.688   3.382   6.618
28463WAT     H285632   8.785   3.310   6.508
28464WAT      O85633   6.050   1.500   2.790
28464WAT     H185634   6.013   1.415   2.828
28464WAT     H285635   6.073   1.562   2.865
28465WAT      O85636   8.809   9.036   9.760
28465WAT     H185637   8.852   9.018   9.671
28465WAT     H285638   8.786   9.134   9.766
28466WAT      O85639   3.740   5.096   0.483
28466WAT     H185640   3.838   5.089   0.499
28466WAT     H285641   3.693   5.026   0.536
28467WAT      O85642   2.005   6.695   7.824
28467WAT     H185643   1.996   6.687   7.725
28467WAT     H285644   2.084   6.752   7.846
28468WAT      O85645   9.756   2.244   2.293
28468WAT     H185646   9.758   2.199   2.383
28468WAT     H285647   9.793   2.182   2.224
28469WAT      O85648   0.605   4.191   3.294
28469WAT     H185649   0.580   4.132   3.371
28469WAT     H285650   0.698   4.168   3.264
28470WAT      O85651   5.347   7.316   6.041
28470WAT     H185652   5.397   7.252   6.100
28470WAT     H285653   5.339   7.405   6.088
28471WAT      O85654   3.788   2.264   7.437
28471WAT     H185655   3.722   2.290   7.367
28471WAT     H285656   3.806   2.166   7.432
28472WAT      O85657   0.269   9.675   0.235
28472WAT     H185658   0.349   9.619   0.253
28472WAT     H285659   0.229   9.705   0.322
28473WAT      O85660   0.758   6.173   8.934
28473WAT     H185661   0.763   6.182   8.834
28473WAT     H285662   0.665   6.196   8.964
28474WAT      O85663   8.053   1.769   3.108
28474WAT     H185664   8.030   1.721   3.192
28474WAT     H285665   8.117   1.713   3.055
28475WAT      O85666   3.111   8.291   7.956
28475WAT     H185667   3.151   8.312   8.045
28475WAT     H285668   3.111   8.373   7.899
28476WAT      O85669   4.706   4.341   3.573
28476WAT     H185670   4.643   4.268   3.600
28476WAT     H285671   4.674   4.428   3.611
28477WAT      O85672   0.813   0.223   4.459
28477WAT     H185673   0.772   0.290   4.521
28477WAT     H285674   0.744   0.157   4.431
28478WAT      O85675   4.370   6.460   5.248
28478WAT     H185676   4.349   6.413   5.162
28478WAT     H285677   4.284   6.489   5.291
28479WAT      O85678   7.408   2.046   2.589
28479WAT     H185679   7.424   2.014   2.495
28479WAT     H285680   7.317   2.086   2.595
28480WAT      O85681   7.524   2.137   5.236
28480WAT     H185682   7.560   2.077   5.165
28480WAT     H285683   7.425   2.144   5.227
28481WAT      O85684   8.755   3.559   0.931
28481WAT     H185685   8.692   3.534   1.004
28481WAT     H285686   8.808   3.639   0.959
28482WAT      O85687   1.955   3.704   6.407
28482WAT     H185688   1.999   3.779   6.357
28482WAT     H285689   2.022   3.657   6.464
28483WAT      O85690   4.045   8.685   9.752
28483WAT     H185691   4.143   8.674   9.772
28483WAT     H285692   4.002   8.595   9.751
28484WAT      O85693   6.807   4.122   8.218
28484WAT     H185694   6.815   4.045   8.155
28484WAT     H285695   6.870   4.195   8.190
28485WAT      O85696   0.065   4.037   1.987
28485WAT     H185697   0.079   4.091   1.904
28485WAT     H285698  -0.025   3.995   1.985
28486WAT      O85699   8.694   4.535   6.089
28486WAT     H185700   8.695   4.540   5.989
28486WAT     H285701   8.771   4.587   6.125
28487WAT      O85702   6.531   2.593   1.175
28487WAT     H185703   6.493   2.661   1.113
28487WAT     H285704   6.503   2.614   1.269
28488WAT      O85705   2.521   4.125   9.497
28488WAT     H185706   2.546   4.178   9.416
28488WAT     H285707   2.561   4.168   9.578
28489WAT      O85708   2.930   7.416   9.291
28489WAT     H185709   2.870   7.480   9.339
28489WAT     H285710   2.929   7.437   9.193
28490WAT      O85711   2.276   4.143   7.830
28490WAT     H185712   2.288   4.240   7.850
28490WAT     H285713   2.249   4.095   7.913
28491WAT      O85714   8.419   7.516   9.412
28491WAT     H185715   8.408   7.423   9.446
28491WAT     H285716   8.439   7.577   9.489
28492WAT      O85717   0.887   4.351   8.400
28492WAT     H185718   0.824   4.355   8.322
28492WAT     H285719   0.842   4.390   8.480
28493WAT      O85720   8.364   9.806   8.595
28493WAT     H185721   8.347   9.864   8.675
28493WAT     H285722   8.450   9.756   8.609
28494WAT      O85723   0.605   2.637   5.081
28494WAT     H185724   0.591   2.736   5.081
28494WAT     H285725   0.569   2.599   5.167
28495WAT      O85726   8.950   9.611   6.904
28495WAT     H185727   9.020   9.624   6.974
28495WAT     H285728   8.868   9.573   6.945
28496WAT      O85729   4.495   1.609   7.160
28496WAT     H185730   4.483   1.598   7.062
28496WAT     H285731   4.444   1.690   7.191
28497WAT      O85732   1.659   2.100   7.339
28497WAT     H185733   1.751   2.127   7.370
28497WAT     H285734   1.590   2.144   7.397
28498WAT      O85735   0.061   0.129   6.890
28498WAT     H185736   0.149   0.091   6.862
28498WAT     H285737   0.075   0.198   6.961
28499WAT      O85738   1.941   1.691   9.485
28499WAT     H185739   1.886   1.611   9.508
28499WAT     H285740   1.950   1.698   9.386
28500WAT      O85741   0.451   1.501   7.267
28500WAT     H185742   0.452   1.507   7.366
28500WAT     H285743   0.359   1.519   7.232
28501WAT      O85744   3.723   5.042   2.817
28501WAT     H185745   3.753   5.128   2.776
28501WAT     H285746   3.770   5.029   2.905
28502WAT      O85747   7.349   0.866   5.428
28502WAT     H185748   7.371   0.865   5.331
28502WAT     H285749   7.261   0.821   5.443
28503WAT      O85750   8.474   8.491   8.876
28503WAT     H185751   8.375   8.507   8.869
28503WAT     H285752   8.522   8.579   8.876
28504WAT      O85753   1.806   7.657   0.837
28504WAT     H185754   1.822   7.746   0.794
28504WAT     H285755   1.851   7.654   0.926
28505WAT      O85756   6.107   3.834   8.167
28505WAT     H185757   6.067   3.743   8.167
28505WAT     H285758   6.065   3.889   8.095
28506WAT      O85759   2.989   6.042   5.184
28506WAT     H185760   2.998   5.956   5.132
28506WAT     H285761   3.076   6.090   5.183
28507WAT      O85762   2.364   5.125   5.877
28507WAT     H185763   2.386   5.106   5.973
28507WAT     H285764   2.325   5.043   5.835
28508WAT      O85765   5.593   5.090   6.927
28508WAT     H185766   5.527   5.045   6.867
28508WAT     H285767   5.679   5.039   6.927
28509WAT      O85768   6.090   1.813   0.222
28509WAT     H185769   6.136   1.787   0.138
28509WAT     H285770   6.102   1.742   0.291
28510WAT      O85771   0.475   2.767   7.007
28510WAT     H185772   0.452   2.674   7.035
28510WAT     H285773   0.401   2.805   6.952
28511WAT      O85774   0.854   8.791   8.801
28511WAT     H185775   0.812   8.724   8.741
28511WAT     H285776   0.852   8.757   8.895
28512WAT      O85777   5.936   1.940   9.849
28512WAT     H185778   6.025   1.897   9.867
28512WAT     H285779   5.885   1.947   9.935
28513WAT      O85780   7.630   1.477   3.696
28513WAT     H185781   7.726   1.454   3.681
28513WAT     H285782   7.624   1.561   3.751
28514WAT      O85783   7.905   2.562   7.882
28514WAT     H185784   7.823   2.537   7.830
28514WAT     H285785   7.965   2.482   7.890
28515WAT      O85786   7.366   1.741   3.541
28515WAT     H185787   7.430   1.817   3.543
28515WAT     H285788   7.289   1.764   3.482
28516WAT      O85789   3.622   2.306   0.416
28516WAT     H185790   3.574   2.279   0.500
28516WAT     H285791   3.638   2.225   0.360
28517WAT      O85792   3.627   2.116   4.029
28517WAT     H185793   3.662   2.024   4.045
28517WAT     H285794   3.639   2.170   4.112
28518WAT      O85795   6.808   8.683   1.685
28518WAT     H185796   6.864   8.762   1.661
28518WAT     H285797   6.859   8.599   1.668
28519WAT      O85798   4.002   6.775   6.658
28519WAT     H185799   3.903   6.784   6.651
28519WAT     H285800   4.029   6.769   6.754
28520WAT      O85801   0.077   7.146   7.696
28520WAT     H185802   0.034   7.234   7.716
28520WAT     H285803   0.121   7.110   7.779
28521WAT      O85804   1.777   0.087   2.575
28521WAT     H185805   1.766   0.186   2.571
28521WAT     H285806   1.858   0.064   2.629
28522WAT      O85807   6.161   1.443   6.284
28522WAT     H185808   6.184   1.365   6.226
28522WAT     H285809   6.141   1.411   6.377
28523WAT      O85810   1.180   6.797   9.457
28523WAT     H185811   1.152   6.859   9.384
28523WAT     H285812   1.182   6.703   9.422
28524WAT      O85813   6.384   1.747   9.573
28524WAT     H185814   6.455   1.816   9.585
28524WAT     H285815   6.320   1.777   9.502
28525WAT      O85816   8.374   9.416   3.325
28525WAT     H185817   8.320   9.434   3.242
28525WAT     H285818   8.439   9.490   3.340
28526WAT      O85819   0.418   1.409   2.850
28526WAT     H185820   0.471   1.437   2.930
28526WAT     H285821   0.466   1.335   2.802
28527WAT      O85822   3.611   1.784   1.091
28527WAT     H185823   3.695   1.826   1.056
28527WAT     H285824   3.625   1.757   1.187
28528WAT      O85825   0.546   7.535   9.314
28528WAT     H185826   0.625   7.567   9.261
28528WAT     H285827   0.547   7.435   9.318
28529WAT      O85828   5.052   0.780   5.369
28529WAT     H185829   5.120   0.712   5.343
28529WAT     H285830   5.030   0.837   5.290
28530WAT      O85831   6.867   9.700   3.057
28530WAT     H185832   6.787   9.650   3.025
28530WAT     H285833   6.923   9.641   3.114
28531WAT      O85834   4.309   2.621   8.575
28531WAT     H185835   4.243   2.571   8.520
28531WAT     H285836   4.380   2.559   8.608
28532WAT      O85837   3.771   1.944   7.067
28532WAT     H185838   3.727   1.887   6.998
28532WAT     H285839   3.767   1.898   7.156
28533WAT      O85840   9.395   5.934   4.387
28533WAT     H185841   9.486   5.929   4.427
28533WAT     H285842   9.330   5.885   4.445
28534WAT      O85843   7.595   4.834   2.074
28534WAT     H185844   7.627   4.926   2.053
28534WAT     H285845   7.597   4.820   2.173
28535WAT      O85846   5.403   9.037   4.721
28535WAT     H185847   5.398   9.095   4.802
28535WAT     H285848   5.390   8.941   4.749
28536WAT      O85849   7.072   5.575   5.667
28536WAT     H185850   7.054   5.567   5.569
28536WAT     H285851   7.049   5.488   5.711
28537WAT      O85852   2.422   0.357   2.869
28537WAT     H185853   2.479   0.336   2.947
28537WAT     H285854   2.346   0.292   2.864
28538WAT      O85855   9.413   3.745   9.155
28538WAT     H185856   9.487   3.786   9.208
28538WAT     H285857   9.442   3.657   9.120
28539WAT      O85858   3.810   0.299   1.025
28539WAT     H185859   3.905   0.323   1.005
28539WAT     H285860   3.798   0.200   1.013
28540WAT      O85861   7.733   0.195   7.189
28540WAT     H185862   7.801   0.127   7.160
28540WAT     H285863   7.670   0.153   7.255
28541WAT      O85864   5.763   4.336   2.155
28541WAT     H185865   5.712   4.421   2.165
28541WAT     H285866   5.770   4.290   2.244
28542WAT      O85867   9.215   2.459   1.252
28542WAT     H185868   9.254   2.408   1.328
28542WAT     H285869   9.118   2.438   1.243
28543WAT      O85870   1.355   2.435   1.735
28543WAT     H185871   1.420   2.377   1.688
28543WAT     H285872   1.347   2.523   1.687
28544WAT      O85873   2.100   4.358   3.372
28544WAT     H185874   2.063   4.335   3.282
28544WAT     H285875   2.104   4.457   3.382
28545WAT      O85876   5.383   0.323   8.218
28545WAT     H185877   5.289   0.349   8.198
28545WAT     H285878   5.445   0.396   8.189
28546WAT      O85879   6.406   3.005   3.967
28546WAT     H185880   6.332   2.939   3.979
28546WAT     H285881   6.494   2.959   3.977
28547WAT      O85882   7.952   0.483   3.996
28547WAT     H185883   7.874   0.527   4.040
28547WAT     H285884   7.959   0.514   3.901
28548WAT      O85885   9.411   6.345   3.404
28548WAT     H185886   9.485   6.283   3.378
28548WAT     H285887   9.363   6.307   3.484
28549WAT      O85888   7.124   2.838   8.719
28549WAT     H185889   7.076   2.897   8.654
28549WAT     H285890   7.083   2.848   8.810
28550WAT      O85891   1.210   4.328   3.409
28550WAT     H185892   1.267   4.361   3.484
28550WAT     H285893   1.266   4.316   3.327
28551WAT      O85894   9.720   7.102   5.802
28551WAT     H185895   9.681   7.142   5.885
28551WAT     H285896   9.746   7.176   5.739
28552WAT      O85897   4.426   7.969   3.946
28552WAT     H185898   4.410   7.907   4.023
28552WAT     H285899   4.501   8.032   3.968
28553WAT      O85900   1.958   2.906   7.683
28553WAT     H185901   2.013   2.912   7.766
28553WAT     H285902   1.872   2.955   7.697
28554WAT      O85903   1.706   5.951   4.904
28554WAT     H185904   1.744   5.859   4.900
28554WAT     H285905   1.724   5.998   4.818
28555WAT      O85906   1.496   2.094   0.174
28555WAT     H185907   1.425   2.029   0.147
28555WAT     H285908   1.565   2.101   0.102
28556WAT      O85909   3.548   5.137   3.120
28556WAT     H185910   3.623   5.187   3.078
28556WAT     H285911   3.553   5.147   3.220
28557WAT      O85912   8.915   6.371   0.303
28557WAT     H185913   8.881   6.414   0.219
28557WAT     H285914   8.990   6.309   0.281
28558WAT      O85915   7.015   1.023   6.496
28558WAT     H185916   7.043   1.092   6.429
28558WAT     H285917   7.016   0.933   6.454
28559WAT      O85918   4.871   2.442   2.925
28559WAT     H185919   4.847   2.445   3.022
28559WAT     H285920   4.957   2.392   2.914
28560WAT      O85921   9.543   3.561   8.734
28560WAT     H185922   9.527   3.483   8.675
28560WAT     H285923   9.459   3.613   8.745
28561WAT      O85924   8.459   9.820   2.183
28561WAT     H185925   8.487   9.877   2.260
28561WAT     H285926   8.483   9.866   2.097
28562WAT      O85927   7.736   6.600   2.923
28562WAT     H185928   7.764   6.525   2.863
28562WAT     H285929   7.787   6.682   2.899
28563WAT      O85930   7.338   6.231   2.280
28563WAT     H185931   7.313   6.210   2.185
28563WAT     H285932   7.423   6.284   2.280
28564WAT      O85933   1.832   9.837   0.609
28564WAT     H185934   1.872   9.819   0.519
28564WAT     H285935   1.838   9.754   0.666
28565WAT      O85936   5.011   5.599   5.680
28565WAT     H185937   5.037   5.644   5.766
28565WAT     H285938   5.065   5.637   5.605
28566WAT      O85939   1.395   7.412   9.747
28566WAT     H185940   1.394   7.318   9.780
28566WAT     H285941   1.333   7.468   9.801
28567WAT      O85942   2.519   7.210   1.735
28567WAT     H185943   2.530   7.141   1.806
28567WAT     H285944   2.587   7.282   1.747
28568WAT      O85945   6.608   9.775   2.697
28568WAT     H185946   6.641   9.701   2.757
28568WAT     H285947   6.519   9.749   2.660
28569WAT      O85948   5.217   8.902   9.083
28569WAT     H185949   5.173   8.916   9.172
28569WAT     H285950   5.213   8.986   9.030
28570WAT      O85951   1.202   3.410   8.679
28570WAT     H185952   1.155   3.432   8.764
28570WAT     H285953   1.294   3.449   8.680
28571WAT      O85954   0.430   9.459   1.778
28571WAT     H185955   0.484   9.424   1.855
28571WAT     H285956   0.474   9.432   1.692
28572WAT      O85957   7.077   7.270   6.386
28572WAT     H185958   7.083   7.325   6.302
28572WAT     H285959   7.054   7.176   6.362
28573WAT      O85960   2.195   0.850   0.971
28573WAT     H185961   2.111   0.904   0.982
28573WAT     H285962   2.215   0.839   0.874
28574WAT      O85963   8.497   8.444   4.248
28574WAT     H185964   8.419   8.415   4.303
28574WAT     H285965   8.469   8.519   4.187
28575WAT      O85966   6.458   3.750   4.544
28575WAT     H185967   6.540   3.729   4.597
28575WAT     H285968   6.390   3.678   4.559
28576WAT      O85969   3.745   1.455   8.482
28576WAT     H185970   3.789   1.369   8.507
28576WAT     H285971   3.698   1.492   8.562
28577WAT      O85972   2.263   4.941   0.879
28577WAT     H185973   2.302   4.981   0.962
28577WAT     H285974   2.216   4.855   0.902
28578WAT      O85975   2.377   9.644   1.355
28578WAT     H185976   2.302   9.611   1.297
28578WAT     H285977   2.387   9.585   1.435
28579WAT      O85978   5.160   0.781   1.389
28579WAT     H185979   5.163   0.722   1.308
28579WAT     H285980   5.093   0.745   1.455
28580WAT      O85981   1.034   1.911   5.322
28580WAT     H185982   1.129   1.883   5.333
28580WAT     H285983   0.990   1.917   5.412
28581WAT      O85984   7.718   5.456   4.226
28581WAT     H185985   7.643   5.390   4.218
28581WAT     H285986   7.681   5.547   4.245
28582WAT      O85987   8.515   0.784   7.080
28582WAT     H185988   8.422   0.773   7.116
28582WAT     H285989   8.571   0.833   7.146
28583WAT      O85990   0.682   6.421   0.681
28583WAT     H185991   0.608   6.438   0.746
28583WAT     H285992   0.644   6.392   0.594
28584WAT      O85993   7.749   9.717   4.561
28584WAT     H185994   7.653   9.687   4.556
28584WAT     H285995   7.806   9.638   4.585
28585WAT      O85996   7.422   6.161   6.424
28585WAT     H185997   7.514   6.191   6.449
28585WAT     H285998   7.426   6.116   6.334
28586WAT      O85999   4.792   7.659   3.373
28586WAT     H186000   4.743   7.573   3.381
28586WAT     H286001   4.733   7.734   3.404
28587WAT      O86002   9.869   2.754   2.974
28587WAT     H186003   9.934   2.814   2.928
28587WAT     H286004   9.919   2.692   3.036
28588WAT      O86005   0.308   6.255   3.960
28588WAT     H186006   0.346   6.344   3.983
28588WAT     H286007   0.360   6.215   3.884
28589WAT      O86008   0.405   1.986   3.775
28589WAT     H186009   0.363   1.902   3.811
28589WAT     H286010   0.438   2.041   3.851
28590WAT      O86011   3.151   9.648   4.794
28590WAT     H186012   3.232   9.705   4.783
28590WAT     H286013   3.178   9.558   4.828
28591WAT      O86014   5.936   0.546   2.469
28591WAT     H186015   5.937   0.620   2.403
28591WAT     H286016   5.841   0.515   2.483
28592WAT      O86017   7.132   4.881   5.305
28592WAT     H186018   7.073   4.816   5.353
28592WAT     H286019   7.225   4.874   5.340
28593WAT      O86020   8.578   4.035   0.281
28593WAT     H186021   8.577   4.043   0.380
28593WAT     H286022   8.645   3.966   0.253
28594WAT      O86023   8.266   0.148   2.366
28594WAT     H186024   8.360   0.113   2.363
28594WAT     H286025   8.206   0.080   2.407
28595WAT      O86026   6.197   4.170   7.846
28595WAT     H186027   6.264   4.103   7.878
28595WAT     H286028   6.196   4.248   7.909
28596WAT      O86029   1.524   3.179   5.540
28596WAT     H186030   1.533   3.163   5.442
28596WAT     H286031   1.480   3.100   5.582
28597WAT      O86032   7.640   4.056   0.667
28597WAT     H186033   7.624   4.021   0.575
28597WAT     H286034   7.734   4.035   0.695
28598WAT      O86035   7.105   2.514   5.695
28598WAT     H186036   7.146   2.527   5.785
28598WAT     H286037   7.065   2.600   5.664
28599WAT      O86038   9.612   3.903   2.769
28599WAT     H186039   9.576   3.882   2.859
28599WAT     H286040   9.540   3.894   2.700
28600WAT      O86041   1.176   4.707   8.669
28600WAT     H186042   1.161   4.697   8.767
28600WAT     H286043   1.110   4.651   8.619
28601WAT      O86044   4.421   6.245   1.128
28601WAT     H186045   4.323   6.254   1.146
28601WAT     H286046   4.435   6.200   1.040
28602WAT      O86047   9.888   7.704   0.569
28602WAT     H186048   9.945   7.783   0.591
28602WAT     H286049   9.810   7.733   0.513
28603WAT      O86050   1.837   5.046   3.663
28603WAT     H186051   1.881   5.027   3.751
28603WAT     H286052   1.892   5.113   3.613
28604WAT      O86053   5.536   5.861   0.902
28604WAT     H186054   5.496   5.808   0.977
28604WAT     H286055   5.463   5.901   0.846
28605WAT      O86056   3.851   9.533   3.470
28605WAT     H186057   3.886   9.495   3.384
28605WAT     H286058   3.858   9.633   3.467
28606WAT      O86059   0.954   7.131   4.681
28606WAT     H186060   0.999   7.144   4.593
28606WAT     H286061   0.979   7.043   4.720
28607WAT      O86062   7.534   7.905   0.966
28607WAT     H186063   7.496   7.990   1.000
28607WAT     H286064   7.491   7.880   0.879
28608WAT      O86065   1.203   5.737   1.290
28608WAT     H186066   1.192   5.828   1.250
28608WAT     H286067   1.145   5.729   1.371
28609WAT      O86068   8.206   4.005   7.275
28609WAT     H186069   8.120   4.002   7.224
28609WAT     H286070   8.265   3.931   7.245
28610WAT      O86071   4.596   9.066   8.567
28610WAT     H186072   4.605   9.103   8.474
28610WAT     H286073   4.582   9.141   8.632
28611WAT      O86074   9.819   7.435   4.529
28611WAT     H186075   9.870   7.365   4.578
28611WAT     H286076   9.828   7.420   4.431
28612WAT      O86077   2.499   8.854   7.027
28612WAT     H186078   2.443   8.918   6.975
28612WAT     H286079   2.488   8.873   7.125
28613WAT      O86080   0.838   1.038   1.629
28613WAT     H186081   0.897   1.010   1.704
28613WAT     H286082   0.808   0.958   1.577
28614WAT      O86083   4.527   9.770   8.191
28614WAT     H186084   4.487   9.859   8.171
28614WAT     H286085   4.493   9.703   8.126
28615WAT      O86086   8.723   6.802   4.290
28615WAT     H186087   8.817   6.809   4.324
28615WAT     H286088   8.725   6.769   4.195
28616WAT      O86089   0.635   3.102   2.955
28616WAT     H186090   0.721   3.073   2.995
28616WAT     H286091   0.561   3.042   2.987
28617WAT      O86092   3.134   6.996   4.321
28617WAT     H186093   3.094   7.080   4.358
28617WAT     H286094   3.095   6.976   4.231
28618WAT      O86095   6.591   3.310   6.219
28618WAT     H186096   6.636   3.316   6.130
28618WAT     H286097   6.614   3.222   6.261
28619WAT      O86098   2.788   6.015   1.540
28619WAT     H186099   2.841   6.056   1.466
28619WAT     H286100   2.765   5.920   1.516
28620WAT      O86101   3.512   0.018   6.483
28620WAT     H186102   3.505  -0.073   6.442
28620WAT     H286103   3.551   0.081   6.416
28621WAT      O86104   9.656   9.816   0.245
28621WAT     H186105   9.752   9.842   0.240
28621WAT     H286106   9.648   9.726   0.289
28622WAT      O86107   1.940   1.737   7.334
28622WAT     H186108   1.930   1.721   7.235
28622WAT     H286109   1.940   1.649   7.381
28623WAT      O86110   9.021   2.891   2.437
28623WAT     H186111   8.941   2.892   2.497
28623WAT     H286112   9.057   2.797   2.431
28624WAT      O86113   2.367   8.637   7.986
28624WAT     H186114   2.456   8.595   8.000
28624WAT     H286115   2.356   8.659   7.889
28625WAT      O86116   8.174   6.593   0.802
28625WAT     H186117   8.215   6.681   0.778
28625WAT     H286118   8.074   6.602   0.805
28626WAT      O86119   3.330   2.619   3.062
28626WAT     H186120   3.336   2.604   2.964
28626WAT     H286121   3.244   2.582   3.097
28627WAT      O86122   7.053   3.591   1.543
28627WAT     H186123   7.078   3.544   1.627
28627WAT     H286124   7.118   3.567   1.471
28628WAT      O86125   5.938   4.735   8.753
28628WAT     H186126   5.943   4.835   8.750
28628WAT     H286127   5.942   4.699   8.660
28629WAT      O86128   3.016   0.705   2.619
28629WAT     H186129   3.046   0.798   2.639
28629WAT     H286130   2.916   0.705   2.608
28630WAT      O86131   3.548   9.462   3.379
28630WAT     H186132   3.484   9.457   3.456
28630WAT     H286133   3.641   9.449   3.413
28631WAT      O86134   8.038   9.651   5.523
28631WAT     H186135   8.072   9.648   5.617
28631WAT     H286136   8.051   9.561   5.481
28632WAT      O86137   1.992   2.878   5.152
28632WAT     H186138   1.939   2.953   5.193
28632WAT     H286139   2.066   2.916   5.097
28633WAT      O86140   1.571   4.230   3.237
28633WAT     H186141   1.539   4.148   3.189
28633WAT     H286142   1.509   4.306   3.217
28634WAT      O86143   8.793   8.096   0.075
28634WAT     H186144   8.848   8.025   0.029
28634WAT     H286145   8.733   8.140   0.008
28635WAT      O86146   0.698   6.630   1.786
28635WAT     H186147   0.759   6.678   1.722
28635WAT     H286148   0.633   6.696   1.824
28636WAT      O86149   2.535   1.551   1.250
28636WAT     H186150   2.631   1.524   1.249
28636WAT     H286151   2.525   1.637   1.300
28637WAT      O86152   4.745   7.014   2.795
28637WAT     H186153   4.749   7.078   2.872
28637WAT     H286154   4.838   6.995   2.763
28638WAT      O86155   7.062   1.222   7.937
28638WAT     H186156   7.136   1.207   7.872
28638WAT     H286157   7.032   1.134   7.975
28639WAT      O86158   5.995   8.907   5.107
28639WAT     H186159   6.013   8.897   5.009
28639WAT     H286160   6.009   8.819   5.152
28640WAT      O86161   8.095   7.050   9.658
28640WAT     H186162   8.048   7.131   9.625
28640WAT     H286163   8.045   7.012   9.737
28641WAT      O86164   8.374   9.203   7.086
28641WAT     H186165   8.374   9.103   7.085
28641WAT     H286166   8.465   9.237   7.063
28642WAT      O86167   8.256   6.171   8.708
28642WAT     H186168   8.317   6.250   8.709
28642WAT     H286169   8.309   6.089   8.686
28643WAT      O86170   7.594   0.106   4.633
28643WAT     H186171   7.534   0.119   4.554
28643WAT     H286172   7.635   0.015   4.629
28644WAT      O86173   4.025   6.165   1.713
28644WAT     H186174   4.108   6.201   1.669
28644WAT     H286175   4.045   6.074   1.751
28645WAT      O86176   9.109   0.295   3.089
28645WAT     H186177   9.142   0.232   3.159
28645WAT     H286178   9.164   0.378   3.091
28646WAT      O86179   0.898   4.486   3.681
28646WAT     H186180   0.974   4.422   3.689
28646WAT     H286181   0.880   4.504   3.584
28647WAT      O86182   0.995   5.457   7.462
28647WAT     H186183   1.048   5.415   7.535
28647WAT     H286184   0.898   5.440   7.477
28648WAT      O86185   3.122   8.163   5.724
28648WAT     H186186   3.141   8.067   5.742
28648WAT     H286187   3.105   8.210   5.810
28649WAT      O86188   5.778   6.940   4.319
28649WAT     H186189   5.834   6.889   4.253
28649WAT     H286190   5.682   6.933   4.294
28650WAT      O86191   1.450   5.756   3.024
28650WAT     H186192   1.484   5.808   2.945
28650WAT     H286193   1.527   5.709   3.068
28651WAT      O86194   0.859   4.309   4.884
28651WAT     H186195   0.820   4.259   4.807
28651WAT     H286196   0.958   4.311   4.876
28652WAT      O86197   7.548   3.833   9.626
28652WAT     H186198   7.474   3.883   9.583
28652WAT     H286199   7.538   3.837   9.725
28653WAT      O86200   2.690   3.569   0.129
28653WAT     H186201   2.714   3.650   0.183
28653WAT     H286202   2.750   3.493   0.154
28654WAT      O86203   7.133   0.974   2.425
28654WAT     H186204   7.163   0.889   2.468
28654WAT     H286205   7.095   0.953   2.335
28655WAT      O86206   8.210   6.494   6.581
28655WAT     H186207   8.299   6.533   6.558
28655WAT     H286208   8.221   6.397   6.602
28656WAT      O86209   0.483   2.236   2.386
28656WAT     H186210   0.540   2.300   2.334
28656WAT     H286211   0.536   2.154   2.406
28657WAT      O86212   2.720   3.393   7.505
28657WAT     H186213   2.681   3.420   7.593
28657WAT     H286214   2.810   3.434   7.495
28658WAT      O86215   9.501   5.669   7.090
28658WAT     H186216   9.408   5.645   7.117
28658WAT     H286217   9.567   5.619   7.146
28659WAT      O86218   0.559   9.805   4.781
28659WAT     H186219   0.481   9.779   4.838
28659WAT     H286220   0.618   9.725   4.766
28660WAT      O86221   8.930   7.070   9.126
28660WAT     H186222   9.026   7.086   9.146
28660WAT     H286223   8.905   7.118   9.042
28661WAT      O86224   6.852   8.542   2.719
28661WAT     H186225   6.757   8.572   2.727
28661WAT     H286226   6.891   8.574   2.632
28662WAT      O86227   8.868   7.054   2.983
28662WAT     H186228   8.829   6.962   2.981
28662WAT     H286229   8.957   7.052   3.029
28663WAT      O86230   6.288   9.368   1.218
28663WAT     H186231   6.317   9.304   1.147
28663WAT     H286232   6.248   9.318   1.295
28664WAT      O86233   3.522   5.831   2.075
28664WAT     H186234   3.519   5.769   1.997
28664WAT     H286235   3.613   5.828   2.116
28665WAT      O86236   2.422   4.116   6.501
28665WAT     H186237   2.448   4.091   6.595
28665WAT     H286238   2.466   4.202   6.476
28666WAT      O86239   2.179   3.557   6.476
28666WAT     H186240   2.167   3.506   6.561
28666WAT     H286241   2.266   3.606   6.479
28667WAT      O86242   5.181   0.776   0.589
28667WAT     H186243   5.219   0.806   0.676
28667WAT     H286244   5.208   0.839   0.517
28668WAT      O86245   6.102   9.840   0.458
28668WAT     H186246   6.083   9.743   0.470
28668WAT     H286247   6.187   9.863   0.505
28669WAT      O86248   4.184   5.718   1.522
28669WAT     H186249   4.277   5.751   1.507
28669WAT     H286250   4.142   5.770   1.596
28670WAT      O86251   8.648   4.253   2.157
28670WAT     H186252   8.741   4.282   2.180
28670WAT     H286253   8.623   4.288   2.067
28671WAT      O86254   2.681   5.965   6.583
28671WAT     H186255   2.667   6.063   6.597
28671WAT     H286256   2.619   5.933   6.511
28672WAT      O86257   1.942   8.829   3.566
28672WAT     H186258   2.018   8.849   3.504
28672WAT     H286259   1.855   8.853   3.522
28673WAT      O86260   6.760   6.046   4.233
28673WAT     H186261   6.681   6.101   4.206
28673WAT     H286262   6.782   6.063   4.329
28674WAT      O86263   7.731   7.078   5.244
28674WAT     H186264   7.777   6.990   5.231
28674WAT     H286265   7.637   7.062   5.274
28675WAT      O86266   8.484   6.304   8.510
28675WAT     H186267   8.393   6.288   8.473
28675WAT     H286268   8.533   6.217   8.516
28676WAT      O86269   4.009   7.630   7.569
28676WAT     H186270   3.913   7.647   7.544
28676WAT     H286271   4.035   7.538   7.540
28677WAT      O86272   5.054   6.022   0.511
28677WAT     H186273   4.963   6.004   0.473
28677WAT     H286274   5.093   5.937   0.548
28678WAT      O86275   3.280   4.301   3.381
28678WAT     H186276   3.247   4.210   3.405
28678WAT     H286277   3.372   4.315   3.417
28679WAT      O86278   9.328   5.255   1.266
28679WAT     H186279   9.271   5.330   1.301
28679WAT     H286280   9.395   5.229   1.336
28680WAT      O86281   7.489   1.705   4.723
28680WAT     H186282   7.443   1.697   4.812
28680WAT     H286283   7.465   1.625   4.667
28681WAT      O86284   6.713   8.420   5.304
28681WAT     H186285   6.710   8.514   5.338
28681WAT     H286286   6.743   8.421   5.209
28682WAT      O86287   1.612   8.600   2.510
28682WAT     H186288   1.629   8.573   2.605
28682WAT     H286289   1.669   8.679   2.487
28683WAT      O86290   1.002   1.094   9.219
28683WAT     H186291   0.916   1.052   9.191
28683WAT     H286292   1.028   1.061   9.309
28684WAT      O86293   9.537   5.799   0.133
28684WAT     H186294   9.604   5.827   0.064
28684WAT     H286295   9.463   5.749   0.089
28685WAT      O86296   6.753   0.376   3.048
28685WAT     H186297   6.765   0.448   3.117
28685WAT     H286298   6.830   0.312   3.053
28686WAT      O86299   5.306   4.125   3.521
28686WAT     H186300   5.254   4.056   3.471
28686WAT     H286301   5.272   4.216   3.499
28687WAT      O86302   2.814   7.173   4.101
28687WAT     H186303   2.910   7.166   4.073
28687WAT     H286304   2.763   7.095   4.063
28688WAT      O86305   4.705   8.527   6.503
28688WAT     H186306   4.631   8.465   6.477
28688WAT     H286307   4.725   8.517   6.601
28689WAT      O86308   5.934   5.363   6.244
28689WAT     H186309   6.011   5.341   6.303
28689WAT     H286310   5.932   5.462   6.226
28690WAT      O86311   6.344   1.792   0.463
28690WAT     H186312   6.299   1.826   0.380
28690WAT     H286313   6.353   1.693   0.457
28691WAT      O86314   6.855   7.513   8.769
28691WAT     H186315   6.767   7.521   8.815
28691WAT     H286316   6.912   7.445   8.816
28692WAT      O86317   1.479   3.328   5.022
28692WAT     H186318   1.537   3.359   5.097
28692WAT     H286319   1.536   3.307   4.942
28693WAT      O86320   2.107   1.877   6.318
28693WAT     H186321   2.122   1.884   6.417
28693WAT     H286322   2.043   1.803   6.299
28694WAT      O86323   4.118   3.609   4.986
28694WAT     H186324   4.030   3.608   4.938
28694WAT     H286325   4.113   3.549   5.066
28695WAT      O86326   2.325   8.906   8.045
28695WAT     H186327   2.386   8.965   7.992
28695WAT     H286328   2.334   8.812   8.013
28696WAT      O86329   9.438   5.061   8.139
28696WAT     H186330   9.462   5.126   8.066
28696WAT     H286331   9.423   5.111   8.224
28697WAT      O86332   6.863   1.764   1.024
28697WAT     H186333   6.800   1.737   0.951
28697WAT     H286334   6.943   1.808   0.984
28698WAT      O86335   6.788   1.548   9.203
28698WAT     H186336   6.872   1.589   9.166
28698WAT     H286337   6.768   1.463   9.154
28699WAT      O86338   4.701   1.668   7.624
28699WAT     H186339   4.789   1.710   7.600
28699WAT     H286340   4.706   1.570   7.609
28700WAT      O86341   3.968   7.544   8.785
28700WAT     H186342   3.888   7.601   8.803
28700WAT     H286343   3.951   7.486   8.705
28701WAT      O86344   2.735   4.540   0.567
28701WAT     H186345   2.735   4.568   0.663
28701WAT     H286346   2.667   4.593   0.517
28702WAT      O86347   8.022   2.749   1.236
28702WAT     H186348   7.939   2.803   1.225
28702WAT     H286349   8.101   2.805   1.212
28703WAT      O86350   2.465   3.636   5.041
28703WAT     H186351   2.509   3.554   5.078
28703WAT     H286352   2.374   3.612   5.005
28704WAT      O86353   5.726   9.533   4.001
28704WAT     H186354   5.713   9.520   4.100
28704WAT     H286355   5.713   9.629   3.978
28705WAT      O86356   7.812   8.767   5.476
28705WAT     H186357   7.906   8.763   5.441
28705WAT     H286358   7.801   8.703   5.551
28706WAT      O86359   0.438   4.970   1.697
28706WAT     H186360   0.344   4.960   1.664
28706WAT     H286361   0.473   5.060   1.670
28707WAT      O86362   0.192   1.819   2.643
28707WAT     H186363   0.190   1.859   2.551
28707WAT     H286364   0.260   1.746   2.645
28708WAT      O86365   4.175   2.135   0.523
28708WAT     H186366   4.085   2.175   0.512
28708WAT     H286367   4.189   2.063   0.454
28709WAT      O86368   1.928   1.197   6.398
28709WAT     H186369   2.020   1.192   6.436
28709WAT     H286370   1.921   1.280   6.341
28710WAT      O86371   1.617   4.076   5.867
28710WAT     H186372   1.564   4.084   5.782
28710WAT     H286373   1.616   3.981   5.898
28711WAT      O86374   4.750   9.342   9.800
28711WAT     H186375   4.791   9.379   9.717
28711WAT     H286376   4.787   9.252   9.819
28712WAT      O86377   0.981   6.451   2.288
28712WAT     H186378   1.012   6.400   2.368
28712WAT     H286379   0.892   6.415   2.258
28713WAT      O86380   7.492   1.854   4.301
28713WAT     H186381   7.569   1.885   4.358
28713WAT     H286382   7.492   1.754   4.296
28714WAT      O86383   5.399   7.136   9.836
28714WAT     H186384   5.485   7.177   9.867
28714WAT     H286385   5.323   7.196   9.860
28715WAT      O86386   6.900   2.203   9.478
28715WAT     H186387   6.946   2.238   9.559
28715WAT     H286388   6.922   2.106   9.466
28716WAT      O86389   0.540   4.645   6.743
28716WAT     H186390   0.626   4.684   6.711
28716WAT     H286391   0.556   4.592   6.826
28717WAT      O86392   7.812   5.032   9.056
28717WAT     H186393   7.899   5.077   9.037
28717WAT     H286394   7.785   4.977   8.977
28718WAT      O86395   4.982   0.475   2.206
28718WAT     H186396   4.993   0.574   2.204
28718WAT     H286397   5.062   0.433   2.250
28719WAT      O86398   6.686   1.867   7.342
28719WAT     H186399   6.664   1.954   7.297
28719WAT     H286400   6.714   1.885   7.436
28720WAT      O86401   8.267   2.139   3.885
28720WAT     H186402   8.332   2.082   3.935
28720WAT     H286403   8.250   2.098   3.795
28721WAT      O86404   1.741   2.783   7.972
28721WAT     H186405   1.740   2.683   7.964
28721WAT     H286406   1.647   2.818   7.973
28722WAT      O86407   8.047   4.643   2.557
28722WAT     H186408   8.001   4.590   2.627
28722WAT     H286409   7.981   4.668   2.485
28723WAT      O86410   4.573   5.186   0.069
28723WAT     H186411   4.550   5.243  -0.010
28723WAT     H286412   4.560   5.090   0.045
28724WAT      O86413   3.161   8.497   9.337
28724WAT     H186414   3.142   8.428   9.268
28724WAT     H286415   3.201   8.454   9.418
28725WAT      O86416   3.521   4.177   4.457
28725WAT     H186417   3.613   4.198   4.490
28725WAT     H286418   3.504   4.079   4.466
28726WAT      O86419   7.262   9.506   6.424
28726WAT     H186420   7.345   9.459   6.395
28726WAT     H286421   7.182   9.457   6.389
28727WAT      O86422   2.078   3.637   3.506
28727WAT     H186423   2.067   3.727   3.463
28727WAT     H286424   2.170   3.603   3.487
28728WAT      O86425   4.102   1.815   0.821
28728WAT     H186426   4.163   1.892   0.800
28728WAT     H286427   4.009   1.837   0.791
28729WAT      O86428   1.223   2.708   4.715
28729WAT     H186429   1.309   2.699   4.666
28729WAT     H286430   1.202   2.805   4.728
28730WAT      O86431   8.620   5.825   7.296
28730WAT     H186432   8.587   5.770   7.219
28730WAT     H286433   8.704   5.784   7.333
28731WAT      O86434   9.890   4.922   6.228
28731WAT     H186435   9.800   4.940   6.189
28731WAT     H286436   9.906   4.823   6.229
28732WAT      O86437   9.796   5.623   2.131
28732WAT     H186438   9.745   5.543   2.161
28732WAT     H286439   9.855   5.655   2.205
28733WAT      O86440   3.471   8.779   6.466
28733WAT     H186441   3.565   8.768   6.500
28733WAT     H286442   3.440   8.872   6.485
28734WAT      O86443   3.998   9.628   9.560
28734WAT     H186444   3.955   9.545   9.525
28734WAT     H286445   4.061   9.664   9.491
28735WAT      O86446   4.227   4.265   9.416
28735WAT     H186447   4.293   4.322   9.465
28735WAT     H286448   4.275   4.209   9.348
28736WAT      O86449   7.736   6.854   4.870
28736WAT     H186450   7.704   6.887   4.780
28736WAT     H286451   7.662   6.805   4.915
28737WAT      O86452   1.103   0.112   3.823
28737WAT     H186453   1.119   0.202   3.783
28737WAT     H286454   1.190   0.076   3.858
28738WAT      O86455   4.934   5.219   0.367
28738WAT     H186456   4.887   5.131   0.366
28738WAT     H286457   4.874   5.289   0.406
28739WAT      O86458   6.179   4.909   0.431
28739WAT     H186459   6.251   4.968   0.393
28739WAT     H286460   6.214   4.863   0.513
28740WAT      O86461   5.204   5.024   5.393
28740WAT     H186462   5.129   5.008   5.457
28740WAT     H286463   5.167   5.061   5.307
28741WAT      O86464   4.912   7.770   6.344
28741WAT     H186465   4.857   7.807   6.419
28741WAT     H286466   4.969   7.842   6.305
28742WAT      O86467   8.036   7.945   2.484
28742WAT     H186468   7.967   7.875   2.505
28742WAT     H286469   8.018   7.981   2.392
28743WAT      O86470   3.115   7.062   2.104
28743WAT     H186471   3.163   6.997   2.163
28743WAT     H286472   3.025   7.081   2.142
28744WAT      O86473   7.952   2.414   6.338
28744WAT     H186474   7.904   2.327   6.347
28744WAT     H286475   7.902   2.473   6.274
28745WAT      O86476   1.795   5.253   8.174
28745WAT     H186477   1.765   5.168   8.217
28745WAT     H286478   1.718   5.316   8.168
28746WAT      O86479   1.499   7.225   6.016
28746WAT     H186480   1.594   7.208   6.041
28746WAT     H286481   1.440   7.165   6.070
28747WAT      O86482   6.403   2.015   4.316
28747WAT     H186483   6.406   1.925   4.273
28747WAT     H286484   6.414   2.005   4.415
28748WAT      O86485   9.226   0.535   4.434
28748WAT     H186486   9.255   0.454   4.383
28748WAT     H286487   9.255   0.528   4.529
28749WAT      O86488   8.089   8.755   6.973
28749WAT     H186489   8.056   8.666   6.943
28749WAT     H286490   8.075   8.765   7.071
28750WAT      O86491   7.919   2.177   7.087
28750WAT     H186492   7.946   2.266   7.051
28750WAT     H286493   7.999   2.117   7.092
28751WAT      O86494   9.445   8.151   7.765
28751WAT     H186495   9.455   8.096   7.848
28751WAT     H286496   9.351   8.146   7.732
28752WAT      O86497   4.745   7.425   1.187
28752WAT     H186498   4.723   7.333   1.218
28752WAT     H286499   4.810   7.421   1.111
28753WAT      O86500   9.113   2.130   2.442
28753WAT     H186501   9.188   2.127   2.508
28753WAT     H286502   9.150   2.133   2.349
28754WAT      O86503   0.813   6.189   9.337
28754WAT     H186504   0.907   6.166   9.364
28754WAT     H286505   0.807   6.189   9.238
28755WAT      O86506   8.427   3.417   2.208
28755WAT     H186507   8.403   3.514   2.203
28755WAT     H286508   8.512   3.406   2.259
28756WAT      O86509   7.247   3.532   7.246
28756WAT     H186510   7.249   3.607   7.180
28756WAT     H286511   7.216   3.567   7.335
28757WAT      O86512   2.201   8.590   5.526
28757WAT     H186513   2.103   8.583   5.512
28757WAT     H286514   2.237   8.669   5.476
28758WAT      O86515   7.784   7.731   6.689
28758WAT     H186516   7.865   7.752   6.635
28758WAT     H286517   7.760   7.810   6.746
28759WAT      O86518   7.890   5.400   2.229
28759WAT     H186519   7.856   5.478   2.282
28759WAT     H286520   7.937   5.336   2.289
28760WAT      O86521   6.220   8.030   0.441
28760WAT     H186522   6.241   8.050   0.537
28760WAT     H286523   6.295   7.978   0.400
28761WAT      O86524   8.833   5.456   6.644
28761WAT     H186525   8.768   5.515   6.692
28761WAT     H286526   8.889   5.407   6.711
28762WAT      O86527   1.993   1.660   8.960
28762WAT     H186528   1.999   1.645   8.861
28762WAT     H286529   2.057   1.732   8.987
28763WAT      O86530   1.271   6.620   9.889
28763WAT     H186531   1.179   6.587   9.911
28763WAT     H286532   1.265   6.698   9.827
28764WAT      O86533   0.251   7.369   2.587
28764WAT     H186534   0.283   7.449   2.637
28764WAT     H286535   0.180   7.323   2.640
28765WAT      O86536   3.370   8.055   3.394
28765WAT     H186537   3.332   8.147   3.383
28765WAT     H286538   3.469   8.057   3.377
28766WAT      O86539   6.941   0.819   8.943
28766WAT     H186540   6.958   0.743   8.879
28766WAT     H286541   6.862   0.796   9.000
28767WAT      O86542   3.705   0.136   3.610
28767WAT     H186543   3.608   0.113   3.617
28767WAT     H286544   3.717   0.235   3.621
28768WAT      O86545   8.099   0.930   9.014
28768WAT     H186546   8.092   0.897   8.920
28768WAT     H286547   8.125   1.026   9.014
28769WAT      O86548   2.110   1.052   5.834
28769WAT     H186549   2.143   0.958   5.832
28769WAT     H286550   2.036   1.063   5.767
28770WAT      O86551   2.063   3.484   5.073
28770WAT     H186552   1.971   3.477   5.034
28770WAT     H286553   2.126   3.521   5.005
28771WAT      O86554   9.412   6.492   2.561
28771WAT     H186555   9.355   6.569   2.533
28771WAT     H286556   9.441   6.504   2.656
28772WAT      O86557   7.561   4.090   5.734
28772WAT     H186558   7.625   4.159   5.766
28772WAT     H286559   7.611   4.011   5.699
28773WAT      O86560   1.096   5.356   3.895
28773WAT     H186561   1.120   5.426   3.963
28773WAT     H286562   1.119   5.390   3.803
28774WAT      O86563   9.078   0.312   7.511
28774WAT     H186564   9.036   0.402   7.498
28774WAT     H286565   9.175   0.324   7.531
28775WAT      O86566   9.191   5.204   5.924
28775WAT     H186567   9.135   5.225   5.844
28775WAT     H286568   9.139   5.223   6.007
28776WAT      O86569   8.495   9.126   4.398
28776WAT     H186570   8.539   9.084   4.477
28776WAT     H286571   8.531   9.085   4.314
28777WAT      O86572   0.823   2.256   1.390
28777WAT     H186573   0.885   2.218   1.321
28777WAT     H286574   0.876   2.291   1.467
28778WAT      O86575   6.260   1.813   1.801
28778WAT     H186576   6.200   1.873   1.853
28778WAT     H286577   6.213   1.783   1.718
28779WAT      O86578   2.629   3.437   5.175
28779WAT     H186579   2.653   3.501   5.248
28779WAT     H286580   2.707   3.428   5.113
28780WAT      O86581   9.165   6.698   3.853
28780WAT     H186582   9.095   6.736   3.794
28780WAT     H286583   9.224   6.636   3.801
28781WAT      O86584   2.641   1.603   0.761
28781WAT     H186585   2.727   1.601   0.709
28781WAT     H286586   2.660   1.629   0.855
28782WAT      O86587   3.299   2.824   9.543
28782WAT     H186588   3.392   2.842   9.512
28782WAT     H286589   3.241   2.904   9.525
28783WAT      O86590   8.452   9.827   3.923
28783WAT     H186591   8.390   9.873   3.987
28783WAT     H286592   8.424   9.732   3.912
28784WAT      O86593   8.985   1.038   0.779
28784WAT     H186594   8.943   1.124   0.806
28784WAT     H286595   9.017   1.044   0.685
28785WAT      O86596   0.352   0.089   2.909
28785WAT     H186597   0.273   0.137   2.948
28785WAT     H286598   0.358   0.110   2.811
28786WAT      O86599   3.500   9.382   7.887
28786WAT     H186600   3.449   9.299   7.863
28786WAT     H286601   3.503   9.443   7.808
28787WAT      O86602   3.822   7.196   4.620
28787WAT     H186603   3.823   7.198   4.720
28787WAT     H286604   3.896   7.254   4.585
28788WAT      O86605   6.631   3.583   6.298
28788WAT     H186606   6.657   3.495   6.258
28788WAT     H286607   6.672   3.657   6.246
28789WAT      O86608   8.098   5.161   7.360
28789WAT     H186609   8.086   5.199   7.268
28789WAT     H286610   8.118   5.235   7.424
28790WAT      O86611   7.483   3.355   1.453
28790WAT     H186612   7.479   3.261   1.420
28790WAT     H286613   7.495   3.355   1.553
28791WAT      O86614   4.283   3.022   5.461
28791WAT     H186615   4.243   3.056   5.545
28791WAT     H286616   4.283   2.922   5.462
28792WAT      O86617   6.471   5.830   5.196
28792WAT     H186618   6.463   5.742   5.241
28792WAT     H286619   6.399   5.892   5.228
28793WAT      O86620   1.622   5.183   8.883
28793WAT     H186621   1.535   5.218   8.849
28793WAT     H286622   1.680   5.260   8.912
28794WAT      O86623   2.359   3.015   1.527
28794WAT     H186624   2.347   2.918   1.504
28794WAT     H286625   2.454   3.042   1.509
28795WAT      O86626   6.229   7.453   7.928
28795WAT     H186627   6.312   7.489   7.971
28795WAT     H286628   6.174   7.528   7.892
28796WAT      O86629   1.460   4.759   0.359
28796WAT     H186630   1.502   4.790   0.444
28796WAT     H286631   1.373   4.806   0.345
28797WAT      O86632   9.427   0.568   7.011
28797WAT     H186633   9.423   0.593   7.108
28797WAT     H286634   9.512   0.601   6.971
28798WAT      O86635   2.562   5.681   7.287
28798WAT     H186636   2.566   5.779   7.265
28798WAT     H286637   2.650   5.638   7.264
28799WAT      O86638   2.338   1.396   7.672
28799WAT     H186639   2.333   1.309   7.722
28799WAT     H286640   2.258   1.451   7.695
28800WAT      O86641   4.262   1.997   0.757
28800WAT     H186642   4.358   1.968   0.761
28800WAT     H286643   4.251   2.062   0.682
28801WAT      O86644   7.500   7.781   1.377
28801WAT     H186645   7.530   7.874   1.397
28801WAT     H286646   7.529   7.756   1.284
28802WAT      O86647   3.431   9.456   9.368
28802WAT     H186648   3.393   9.453   9.276
28802WAT     H286649   3.356   9.457   9.435
28803WAT      O86650   8.968   3.097   5.972
28803WAT     H186651   8.981   3.178   6.029
28803WAT     H286652   8.870   3.077   5.965
28804WAT      O86653   2.081   7.285   1.254
28804WAT     H186654   2.125   7.233   1.328
28804WAT     H286655   1.996   7.241   1.229
28805WAT      O86656   4.360   5.352   2.719
28805WAT     H186657   4.412   5.434   2.741
28805WAT     H286658   4.421   5.273   2.716
28806WAT      O86659   6.533   3.616   6.551
28806WAT     H186660   6.439   3.585   6.538
28806WAT     H286661   6.583   3.608   6.465
28807WAT      O86662   7.612   8.201   5.414
28807WAT     H186663   7.710   8.205   5.392
28807WAT     H286664   7.573   8.293   5.406
28808WAT      O86665   5.274   1.019   9.595
28808WAT     H186666   5.311   1.110   9.614
28808WAT     H286667   5.317   0.952   9.655
28809WAT      O86668   7.883   1.734   5.985
28809WAT     H186669   7.981   1.740   6.005
28809WAT     H286670   7.844   1.826   5.982
28810WAT      O86671   4.806   3.547   7.325
28810WAT     H186672   4.866   3.625   7.338
28810WAT     H286673   4.714   3.578   7.302
28811WAT      O86674   7.609   0.526   8.548
28811WAT     H186675   7.655   0.597   8.495
28811WAT     H286676   7.558   0.466   8.486
28812WAT      O86677   5.934   1.767   7.064
28812WAT     H186678   5.876   1.761   7.145
28812WAT     H286679   6.012   1.828   7.083
28813WAT      O86680   8.587   4.431   7.995
28813WAT     H186681   8.548   4.384   7.916
28813WAT     H286682   8.596   4.528   7.975
28814WAT      O86683   4.103   0.968   6.300
28814WAT     H186684   4.187   0.973   6.245
28814WAT     H286685   4.105   0.885   6.355
28815WAT      O86686   0.303   9.321   4.090
28815WAT     H186687   0.326   9.244   4.031
28815WAT     H286688   0.243   9.384   4.041
28816WAT      O86689   8.166   2.145   4.353
28816WAT     H186690   8.174   2.053   4.316
28816WAT     H286691   8.237   2.204   4.313
28817WAT      O86692   0.068   3.465   0.187
28817WAT     H186693   0.153   3.458   0.135
28817WAT     H286694   0.077   3.416   0.274
28818WAT      O86695   4.190   3.073   5.723
28818WAT     H186696   4.103   3.104   5.686
28818WAT     H286697   4.248   3.152   5.745
28819WAT      O86698   6.073   9.506   4.139
28819WAT     H186699   6.073   9.605   4.122
28819WAT     H286700   5.985   9.480   4.180
28820WAT      O86701   1.229   4.938   7.046
28820WAT     H186702   1.233   4.963   6.949
28820WAT     H286703   1.321   4.935   7.083
28821WAT      O86704   6.470   5.066   5.906
28821WAT     H186705   6.408   5.141   5.885
28821WAT     H286706   6.500   5.023   5.821
28822WAT      O86707   2.234   8.850   5.418
28822WAT     H186708   2.308   8.857   5.351
28822WAT     H286709   2.258   8.906   5.498
28823WAT      O86710   9.683   7.172   6.063
28823WAT     H186711   9.778   7.149   6.043
28823WAT     H286712   9.668   7.170   6.162
28824WAT      O86713   9.435   7.868   5.889
28824WAT     H186714   9.431   7.963   5.858
28824WAT     H286715   9.479   7.864   5.979
28825WAT      O86716   1.639   5.852   3.975
28825WAT     H186717   1.711   5.859   3.906
28825WAT     H286718   1.627   5.756   4.000
28826WAT      O86719   7.152   0.934   0.263
28826WAT     H186720   7.140   0.839   0.237
28826WAT     H286721   7.223   0.976   0.207
28827WAT      O86722   6.111   7.328   6.496
28827WAT     H186723   6.107   7.321   6.595
28827WAT     H286724   6.029   7.374   6.462
28828WAT      O86725   3.297   3.973   7.099
28828WAT     H186726   3.335   3.940   7.013
28828WAT     H286727   3.216   4.029   7.081
28829WAT      O86728   0.309   2.732   2.964
28829WAT     H186729   0.308   2.705   2.868
28829WAT     H286730   0.254   2.669   3.018
28830WAT      O86731   3.210   0.765   1.624
28830WAT     H186732   3.262   0.750   1.708
28830WAT     H286733   3.148   0.688   1.610
28831WAT      O86734   6.137   6.530   8.206
28831WAT     H186735   6.053   6.514   8.257
28831WAT     H286736   6.138   6.624   8.173
28832WAT      O86737   5.897   0.234   7.850
28832WAT     H186738   5.902   0.150   7.904
28832WAT     H286739   5.916   0.213   7.754
28833WAT      O86740   8.143   4.369   6.906
28833WAT     H186741   8.111   4.463   6.915
28833WAT     H286742   8.228   4.357   6.957
28834WAT      O86743   0.633   4.303   6.460
28834WAT     H186744   0.573   4.354   6.522
28834WAT     H286745   0.579   4.270   6.382
28835WAT      O86746   6.757   6.418   7.498
28835WAT     H186747   6.686   6.414   7.568
28835WAT     H286748   6.832   6.357   7.524
28836WAT      O86749   5.559   7.073   9.275
28836WAT     H186750   5.581   7.135   9.351
28836WAT     H286751   5.621   7.090   9.199
28837WAT      O86752   7.199   2.750   1.476
28837WAT     H186753   7.131   2.700   1.530
28837WAT     H286754   7.152   2.810   1.410
28838WAT      O86755   0.545   9.104   0.477
28838WAT     H186756   0.573   9.075   0.385
28838WAT     H286757   0.561   9.202   0.487
28839WAT      O86758   7.942   3.003   7.213
28839WAT     H186759   7.849   2.988   7.246
28839WAT     H286760   7.945   3.088   7.160
28840WAT      O86761   0.871   0.185   9.393
28840WAT     H186762   0.825   0.193   9.305
28840WAT     H286763   0.946   0.251   9.397
28841WAT      O86764   0.148   8.937   9.184
28841WAT     H186765   0.144   8.923   9.283
28841WAT     H286766   0.242   8.923   9.152
28842WAT      O86767   6.268   4.583   1.087
28842WAT     H186768   6.220   4.552   1.169
28842WAT     H286769   6.361   4.547   1.088
28843WAT      O86770   1.855   8.938   1.703
28843WAT     H186771   1.887   8.882   1.626
28843WAT     H286772   1.769   8.982   1.678
28844WAT      O86773   3.758   9.337   7.925
28844WAT     H186774   3.661   9.360   7.918
28844WAT     H286775   3.813   9.417   7.900
28845WAT      O86776   4.744   2.633   8.476
28845WAT     H186777   4.694   2.717   8.458
28845WAT     H286778   4.681   2.555   8.473
28846WAT      O86779   8.227   3.720   1.741
28846WAT     H186780   8.286   3.698   1.818
28846WAT     H286781   8.282   3.746   1.662
28847WAT      O86782   0.178   2.914   2.375
28847WAT     H186783   0.192   2.968   2.292
28847WAT     H286784   0.089   2.869   2.370
28848WAT      O86785   0.001   8.515   2.301
28848WAT     H186786   0.026   8.602   2.344
28848WAT     H286787  -0.011   8.528   2.203
28849WAT      O86788   3.619   5.035   6.235
28849WAT     H186789   3.673   4.970   6.289
28849WAT     H286790   3.571   4.985   6.162
28850WAT      O86791   4.250   3.417   0.106
28850WAT     H186792   4.307   3.384   0.031
28850WAT     H286793   4.228   3.341   0.167
28851WAT      O86794   3.610   4.605   8.735
28851WAT     H186795   3.587   4.519   8.780
28851WAT     H286796   3.685   4.591   8.671
28852WAT      O86797   6.254   1.502   3.770
28852WAT     H186798   6.300   1.589   3.784
28852WAT     H286799   6.315   1.427   3.793
28853WAT      O86800   3.767   6.806   4.097
28853WAT     H186801   3.756   6.891   4.046
28853WAT     H286802   3.678   6.774   4.128
28854WAT      O86803   0.943   3.029   2.879
28854WAT     H186804   0.887   3.032   2.796
28854WAT     H286805   1.020   3.093   2.868
28855WAT      O86806   9.606   2.660   3.166
28855WAT     H186807   9.597   2.739   3.105
28855WAT     H286808   9.622   2.578   3.112
28856WAT      O86809   3.809   2.763   9.261
28856WAT     H186810   3.820   2.733   9.356
28856WAT     H286811   3.890   2.813   9.233
28857WAT      O86812   2.239   7.051   9.049
28857WAT     H186813   2.316   6.989   9.037
28857WAT     H286814   2.272   7.145   9.056
28858WAT      O86815   9.708   0.524   1.562
28858WAT     H186816   9.619   0.516   1.518
28858WAT     H286817   9.697   0.521   1.661
28859WAT      O86818   2.946   7.021   9.112
28859WAT     H186819   2.963   7.037   9.210
28859WAT     H286820   2.914   6.927   9.099
28860WAT      O86821   6.395   8.086   2.382
28860WAT     H186822   6.369   8.046   2.470
28860WAT     H286823   6.469   8.033   2.342
28861WAT      O86824   7.513   3.102   8.178
28861WAT     H186825   7.608   3.099   8.148
28861WAT     H286826   7.504   3.050   8.263
28862WAT      O86827   6.123   1.708   5.206
28862WAT     H186828   6.221   1.690   5.218
28862WAT     H286829   6.088   1.757   5.285
28863WAT      O86830   6.224   1.598   6.570
28863WAT     H186831   6.184   1.595   6.478
28863WAT     H286832   6.322   1.613   6.563
28864WAT      O86833   2.559   4.010   0.890
28864WAT     H186834   2.462   4.023   0.914
28864WAT     H286835   2.614   4.017   0.973
28865WAT      O86836   7.175   7.245   1.297
28865WAT     H186837   7.132   7.334   1.281
28865WAT     H286838   7.238   7.225   1.222
28866WAT      O86839   0.342   3.343   0.728
28866WAT     H186840   0.376   3.317   0.637
28866WAT     H286841   0.420   3.360   0.788
28867WAT      O86842   1.516   4.491   9.202
28867WAT     H186843   1.529   4.521   9.297
28867WAT     H286844   1.504   4.391   9.200
28868WAT      O86845   9.125   2.635   8.599
28868WAT     H186846   9.133   2.575   8.679
28868WAT     H286847   9.189   2.605   8.528
28869WAT      O86848   2.182   0.048   7.144
28869WAT     H186849   2.245   0.052   7.222
28869WAT     H286850   2.105  -0.010   7.167
28870WAT      O86851   2.546   1.894   9.621
28870WAT     H186852   2.532   1.932   9.713
28870WAT     H286853   2.606   1.814   9.627
28871WAT      O86854   8.056   2.366   3.402
28871WAT     H186855   8.119   2.401   3.332
28871WAT     H286856   8.057   2.266   3.400
28872WAT      O86857   5.772   5.555   1.851
28872WAT     H186858   5.816   5.602   1.774
28872WAT     H286859   5.678   5.587   1.859
28873WAT      O86860   1.791   2.191   0.991
28873WAT     H186861   1.745   2.229   1.071
28873WAT     H286862   1.725   2.141   0.935
28874WAT      O86863   9.461   6.201   4.023
28874WAT     H186864   9.478   6.190   3.925
28874WAT     H286865   9.400   6.128   4.054
28875WAT      O86866   1.867   2.894   0.050
28875WAT     H186867   1.903   2.810   0.090
28875WAT     H286868   1.914   2.913  -0.037
28876WAT      O86869   4.637   1.728   8.704
28876WAT     H186870   4.581   1.807   8.682
28876WAT     H286871   4.581   1.645   8.701
28877WAT      O86872   0.553   1.128   8.808
28877WAT     H186873   0.585   1.196   8.874
28877WAT     H286874   0.522   1.046   8.858
28878WAT      O86875   5.648   4.999   1.146
28878WAT     H186876   5.601   4.913   1.127
28878WAT     H286877   5.745   4.980   1.164
28879WAT      O86878   3.505   2.418   9.096
28879WAT     H186879   3.468   2.510   9.081
28879WAT     H286880   3.604   2.424   9.108
28880WAT      O86881   7.856   9.297   6.404
28880WAT     H186882   7.789   9.263   6.470
28880WAT     H286883   7.923   9.226   6.384
28881WAT      O86884   4.852   6.149   9.877
28881WAT     H186885   4.836   6.090   9.798
28881WAT     H286886   4.947   6.179   9.878
28882WAT      O86887   7.160   5.658   0.995
28882WAT     H186888   7.188   5.583   1.055
28882WAT     H286889   7.228   5.672   0.924
28883WAT      O86890   9.620   8.340   5.591
28883WAT     H186891   9.623   8.437   5.566
28883WAT     H286892   9.585   8.330   5.684
28884WAT      O86893   7.373   9.793   3.788
28884WAT     H186894   7.398   9.702   3.756
28884WAT     H286895   7.456   9.845   3.807
28885WAT      O86896   4.003   2.332   4.644
28885WAT     H186897   3.952   2.414   4.617
28885WAT     H286898   4.086   2.324   4.589
28886WAT      O86899   4.013   7.237   5.778
28886WAT     H186900   3.963   7.166   5.729
28886WAT     H286901   4.025   7.210   5.874
28887WAT      O86902   2.284   4.084   0.783
28887WAT     H186903   2.251   4.176   0.762
28887WAT     H286904   2.292   4.031   0.698
28888WAT      O86905   4.376   5.753   2.281
28888WAT     H186906   4.422   5.670   2.251
28888WAT     H286907   4.426   5.792   2.359
28889WAT      O86908   4.576   2.706   6.489
28889WAT     H186909   4.652   2.678   6.547
28889WAT     H286910   4.497   2.648   6.507
28890WAT      O86911   6.396   0.131   5.742
28890WAT     H186912   6.472   0.074   5.773
28890WAT     H286913   6.325   0.074   5.701
28891WAT      O86914   7.848   5.907   8.717
28891WAT     H186915   7.945   5.932   8.713
28891WAT     H286916   7.794   5.986   8.745
28892WAT      O86917   5.454   0.262   8.655
28892WAT     H186918   5.500   0.212   8.728
28892WAT     H286919   5.499   0.350   8.642
28893WAT      O86920   6.826   5.737   5.391
28893WAT     H186921   6.886   5.657   5.392
28893WAT     H286922   6.735   5.711   5.423
28894WAT      O86923   1.884   8.606   3.414
28894WAT     H186924   1.920   8.656   3.493
28894WAT     H286925   1.788   8.631   3.400
28895WAT      O86926   6.202   8.511   8.114
28895WAT     H186927   6.111   8.552   8.129
28895WAT     H286928   6.271   8.583   8.116
28896WAT      O86929   4.631   3.254   7.994
28896WAT     H186930   4.584   3.168   8.012
28896WAT     H286931   4.619   3.316   8.071
28897WAT      O86932   2.588   6.914   2.868
28897WAT     H186933   2.492   6.896   2.846
28897WAT     H286934   2.627   6.976   2.800
28898WAT      O86935   2.247   1.854   4.981
28898WAT     H186936   2.201   1.826   5.066
28898WAT     H286937   2.239   1.781   4.913
28899WAT      O86938   3.198   6.950   1.523
28899WAT     H186939   3.183   6.852   1.510
28899WAT     H286940   3.290   6.965   1.560
28900WAT      O86941   1.758   9.676   9.620
28900WAT     H186942   1.701   9.751   9.587
28900WAT     H286943   1.715   9.632   9.698
28901WAT      O86944   8.712   5.228   3.923
28901WAT     H186945   8.650   5.200   3.997
28901WAT     H286946   8.720   5.327   3.923
28902WAT      O86947   6.905   6.466   2.718
28902WAT     H186948   6.951   6.551   2.695
28902WAT     H286949   6.807   6.482   2.728
28903WAT      O86950   3.075   8.477   2.359
28903WAT     H186951   3.171   8.490   2.337
28903WAT     H286952   3.025   8.562   2.338
28904WAT      O86953   1.157   8.185   8.691
28904WAT     H186954   1.137   8.188   8.788
28904WAT     H286955   1.254   8.165   8.678
28905WAT      O86956   3.978   3.685   8.232
28905WAT     H186957   3.910   3.626   8.188
28905WAT     H286958   4.005   3.758   8.169
28906WAT      O86959   8.914   3.869   6.269
28906WAT     H186960   8.822   3.866   6.309
28906WAT     H286961   8.938   3.965   6.251
28907WAT      O86962   4.342   2.098   4.317
28907WAT     H186963   4.375   2.187   4.286
28907WAT     H286964   4.420   2.042   4.345
28908WAT      O86965   9.154   1.496   5.714
28908WAT     H186966   9.151   1.513   5.615
28908WAT     H286967   9.153   1.398   5.731
28909WAT      O86968   8.452   1.147   9.386
28909WAT     H186969   8.481   1.088   9.310
28909WAT     H286970   8.393   1.095   9.448
28910WAT      O86971   1.063   5.116   1.100
28910WAT     H186972   1.098   5.068   1.020
28910WAT     H286973   1.074   5.215   1.088
28911WAT      O86974   8.574   3.943   5.244
28911WAT     H186975   8.581   3.905   5.337
28911WAT     H286976   8.655   3.999   5.225
28912WAT      O86977   8.274   8.374   4.359
28912WAT     H186978   8.198   8.312   4.342
28912WAT     H286979   8.239   8.462   4.392
28913WAT      O86980   0.072   0.952   6.128
28913WAT     H186981   0.160   0.908   6.115
28913WAT     H286982   0.080   1.022   6.200
28914WAT      O86983   1.463   3.520   8.738
28914WAT     H186984   1.474   3.593   8.804
28914WAT     H286985   1.551   3.476   8.721
28915WAT      O86986   6.471   7.887   0.947
28915WAT     H186987   6.518   7.974   0.963
28915WAT     H286988   6.538   7.818   0.918
28916WAT      O86989   0.053   2.633   3.913
28916WAT     H186990   0.144   2.620   3.875
28916WAT     H286991   0.018   2.723   3.887
28917WAT      O86992   0.567   3.157   5.332
28917WAT     H186993   0.581   3.116   5.422
28917WAT     H286994   0.470   3.149   5.307
28918WAT      O86995   4.299   4.778   3.993
28918WAT     H186996   4.250   4.726   3.922
28918WAT     H286997   4.339   4.714   4.059
28919WAT      O86998   8.720   3.081   4.659
28919WAT     H186999   8.723   3.008   4.591
28919WAT     H287000   8.734   3.170   4.615
28920WAT      O87001   3.197   9.731   0.259
28920WAT     H187002   3.141   9.732   0.177
28920WAT     H287003   3.147   9.686   0.333
28921WAT      O87004   8.221   2.632   3.755
28921WAT     H187005   8.203   2.547   3.805
28921WAT     H287006   8.235   2.706   3.821
28922WAT      O87007   5.158   1.981   2.930
28922WAT     H187008   5.165   1.888   2.964
28922WAT     H287009   5.242   2.004   2.879
28923WAT      O87010   2.333   9.025   1.853
28923WAT     H187011   2.354   8.939   1.806
28923WAT     H287012   2.235   9.044   1.845
28924WAT      O87013   9.434   6.573   4.849
28924WAT     H187014   9.413   6.661   4.807
28924WAT     H287015   9.370   6.555   4.923
28925WAT      O87016   1.664   1.599   8.014
28925WAT     H187017   1.635   1.662   8.086
28925WAT     H287018   1.588   1.540   7.989
28926WAT      O87019   3.889   0.288   5.427
28926WAT     H187020   3.915   0.192   5.439
28926WAT     H287021   3.971   0.344   5.417
28927WAT      O87022   0.788   4.908   0.352
28927WAT     H187023   0.726   4.843   0.307
28927WAT     H287024   0.864   4.858   0.394
28928WAT      O87025   5.743   0.043   9.281
28928WAT     H187026   5.801   0.063   9.202
28928WAT     H287027   5.708   0.129   9.319
28929WAT      O87028   4.376   1.233   8.682
28929WAT     H187029   4.382   1.134   8.692
28929WAT     H287030   4.300   1.257   8.622
28930WAT      O87031   6.182   4.062   5.517
28930WAT     H187032   6.278   4.068   5.492
28930WAT     H287033   6.175   4.026   5.611
28931WAT      O87034   5.999   6.005   7.502
28931WAT     H187035   6.089   6.005   7.459
28931WAT     H287036   5.943   5.933   7.462
28932WAT      O87037   7.018   8.811   0.803
28932WAT     H187038   6.955   8.733   0.799
28932WAT     H287039   6.975   8.887   0.851
28933WAT      O87040   4.015   8.622   3.213
28933WAT     H187041   3.945   8.562   3.173
28933WAT     H287042   4.061   8.573   3.288
28934WAT      O87043   8.106   6.034   9.526
28934WAT     H187044   8.161   6.064   9.448
28934WAT     H287045   8.135   5.942   9.552
28935WAT      O87046   0.222   8.022   5.528
28935WAT     H187047   0.197   7.926   5.521
28935WAT     H287048   0.146   8.079   5.495
28936WAT      O87049   6.723   0.965   9.862
28936WAT     H187050   6.791   1.017   9.913
28936WAT     H287051   6.739   0.978   9.764
28937WAT      O87052   9.341   8.002   2.956
28937WAT     H187053   9.255   8.031   2.997
28937WAT     H287054   9.336   8.012   2.857
28938WAT      O87055   9.538   6.361   5.777
28938WAT     H187056   9.587   6.433   5.729
28938WAT     H287057   9.555   6.368   5.876
28939WAT      O87058   0.261   1.419   0.065
28939WAT     H187059   0.241   1.500   0.010
28939WAT     H287060   0.276   1.341   0.004
28940WAT      O87061   8.587   4.696   1.929
28940WAT     H187062   8.589   4.596   1.920
28940WAT     H287063   8.569   4.720   2.025
28941WAT      O87064   1.047   5.240   1.533
28941WAT     H187065   1.089   5.235   1.623
28941WAT     H287066   1.072   5.158   1.481
28942WAT      O87067   3.323   2.125   8.983
28942WAT     H187068   3.383   2.137   9.062
28942WAT     H287069   3.357   2.180   8.907
28943WAT      O87070   2.136   9.548   4.905
28943WAT     H187071   2.043   9.546   4.867
28943WAT     H287072   2.183   9.630   4.873
28944WAT      O87073   9.234   8.257   2.420
28944WAT     H187074   9.316   8.212   2.383
28944WAT     H287075   9.155   8.234   2.364
28945WAT      O87076   4.106   3.799   7.263
28945WAT     H187077   4.019   3.750   7.265
28945WAT     H287078   4.179   3.736   7.238
28946WAT      O87079   4.019   2.022   3.274
28946WAT     H187080   4.030   2.069   3.187
28946WAT     H287081   3.926   1.988   3.283
28947WAT      O87082   5.683   3.196   7.998
28947WAT     H187083   5.684   3.226   8.093
28947WAT     H287084   5.590   3.169   7.972
28948WAT      O87085   2.007   9.359   0.789
28948WAT     H187086   2.000   9.360   0.889
28948WAT     H287087   2.101   9.336   0.763
28949WAT      O87088   0.056   9.661   7.356
28949WAT     H187089   0.082   9.665   7.259
28949WAT     H287090  -0.002   9.581   7.371
28950WAT      O87091   9.309   1.698   3.629
28950WAT     H187092   9.337   1.640   3.553
28950WAT     H287093   9.211   1.716   3.623
28951WAT      O87094   9.507   4.417   7.987
28951WAT     H187095   9.587   4.380   7.940
28951WAT     H287096   9.457   4.341   8.029
28952WAT      O87097   6.480   3.790   1.807
28952WAT     H187098   6.433   3.703   1.793
28952WAT     H287099   6.454   3.854   1.735
28953WAT      O87100   4.424   6.794   6.472
28953WAT     H187101   4.468   6.884   6.467
28953WAT     H287102   4.325   6.805   6.479
28954WAT      O87103   0.267   3.515   9.870
28954WAT     H187104   0.238   3.544   9.778
28954WAT     H287105   0.342   3.450   9.862
28955WAT      O87106   5.900   3.989   6.216
28955WAT     H187107   5.890   3.917   6.285
28955WAT     H287108   5.831   4.060   6.231
28956WAT      O87109   2.259   9.696   2.752
28956WAT     H187110   2.212   9.608   2.746
28956WAT     H287111   2.323   9.694   2.829
28957WAT      O87112   9.571   9.113   4.109
28957WAT     H187113   9.586   9.032   4.165
28957WAT     H287114   9.475   9.139   4.113
28958WAT      O87115   2.407   2.699   9.841
28958WAT     H187116   2.335   2.769   9.847
28958WAT     H287117   2.408   2.661   9.748
28959WAT      O87118   2.171   2.360   8.861
28959WAT     H187119   2.229   2.438   8.838
28959WAT     H287120   2.105   2.386   8.930
28960WAT      O87121   6.999   5.258   4.414
28960WAT     H187122   6.970   5.282   4.507
28960WAT     H287123   7.063   5.327   4.380
28961WAT      O87124   2.936   8.699   0.270
28961WAT     H187125   2.957   8.620   0.213
28961WAT     H287126   3.000   8.702   0.347
28962WAT      O87127   5.158   9.217   6.791
28962WAT     H187128   5.220   9.195   6.716
28962WAT     H287129   5.079   9.268   6.756
28963WAT      O87130   1.878   9.758   8.361
28963WAT     H187131   1.795   9.702   8.361
28963WAT     H287132   1.871   9.828   8.291
28964WAT      O87133   8.804   2.548   3.397
28964WAT     H187134   8.892   2.594   3.382
28964WAT     H287135   8.771   2.569   3.489
28965WAT      O87136   6.697   8.184   8.300
28965WAT     H187137   6.657   8.093   8.294
28965WAT     H287138   6.669   8.238   8.220
28966WAT      O87139   0.424   3.939   0.553
28966WAT     H187140   0.443   3.893   0.640
28966WAT     H287141   0.382   3.875   0.490
28967WAT      O87142   8.194   8.102   9.606
28967WAT     H187143   8.169   8.005   9.607
28967WAT     H287144   8.206   8.132   9.511
28968WAT      O87145   7.563   1.857   8.040
28968WAT     H187146   7.495   1.889   7.975
28968WAT     H287147   7.517   1.832   8.126
28969WAT      O87148   7.303   1.127   5.805
28969WAT     H187149   7.217   1.163   5.769
28969WAT     H287150   7.369   1.201   5.816
28970WAT      O87151   2.809   2.893   4.052
28970WAT     H187152   2.907   2.888   4.071
28970WAT     H287153   2.794   2.884   3.953
28971WAT      O87154   2.956   0.474   9.753
28971WAT     H187155   2.953   0.456   9.655
28971WAT     H287156   2.873   0.438   9.796
28972WAT      O87157   8.328   2.365   5.835
28972WAT     H187158   8.418   2.383   5.875
28972WAT     H287159   8.339   2.328   5.743
28973WAT      O87160   5.519   2.718   0.351
28973WAT     H187161   5.546   2.641   0.293
28973WAT     H287162   5.465   2.685   0.428
28974WAT      O87163   2.221   3.882   4.838
28974WAT     H187164   2.140   3.933   4.809
28974WAT     H287165   2.279   3.865   4.758
28975WAT      O87166   1.724   4.406   9.658
28975WAT     H187167   1.805   4.421   9.714
28975WAT     H287168   1.642   4.428   9.710
28976WAT      O87169   6.436   1.981   7.010
28976WAT     H187170   6.504   1.909   7.023
28976WAT     H287171   6.457   2.058   7.070
28977WAT      O87172   1.314   5.756   7.306
28977WAT     H187173   1.316   5.803   7.394
28977WAT     H287174   1.280   5.662   7.319
28978WAT      O87175   3.856   9.437   8.400
28978WAT     H187176   3.762   9.470   8.389
28978WAT     H287177   3.910   9.508   8.446
28979WAT      O87178   7.028   3.264   1.640
28979WAT     H187179   7.060   3.189   1.582
28979WAT     H287180   6.934   3.287   1.617
28980WAT      O87181   5.574   8.488   2.987
28980WAT     H187182   5.517   8.478   3.069
28980WAT     H287183   5.603   8.583   2.978
28981WAT      O87184   1.865   9.556   4.833
28981WAT     H187185   1.780   9.598   4.865
28981WAT     H287186   1.852   9.457   4.824
28982WAT      O87187   0.451   6.725   6.720
28982WAT     H187188   0.535   6.677   6.693
28982WAT     H287189   0.472   6.821   6.740
28983WAT      O87190   7.445   5.077   0.185
28983WAT     H187191   7.354   5.040   0.205
28983WAT     H287192   7.499   5.080   0.270
28984WAT      O87193   3.960   4.818   6.537
28984WAT     H187194   4.043   4.870   6.520
28984WAT     H287195   3.978   4.720   6.526
28985WAT      O87196   7.019   9.113   5.474
28985WAT     H187197   7.079   9.090   5.398
28985WAT     H287198   6.948   9.176   5.443
28986WAT      O87199   4.547   7.841   4.364
28986WAT     H187200   4.489   7.867   4.288
28986WAT     H287201   4.532   7.904   4.441
28987WAT      O87202   2.240   3.351   1.092
28987WAT     H187203   2.240   3.252   1.110
28987WAT     H287204   2.183   3.397   1.159
28988WAT      O87205   0.201   3.780   0.017
28988WAT     H187206   0.228   3.686   0.039
28988WAT     H287207   0.107   3.781  -0.016
28989WAT      O87208   0.020   0.104   0.535
28989WAT     H187209  -0.061   0.088   0.591
28989WAT     H287210   0.042   0.201   0.534
28990WAT      O87211   9.840   7.250   7.290
28990WAT     H187212   9.797   7.248   7.200
28990WAT     H287213   9.859   7.157   7.321
28991WAT      O87214   4.700   2.672   0.519
28991WAT     H187215   4.765   2.599   0.501
28991WAT     H287216   4.607   2.635   0.519
28992WAT      O87217   4.103   8.925   5.478
28992WAT     H187218   4.081   8.843   5.530
28992WAT     H287219   4.021   8.980   5.465
28993WAT      O87220   4.547   8.801   0.700
28993WAT     H187221   4.462   8.782   0.651
28993WAT     H287222   4.621   8.745   0.662
28994WAT      O87223   3.657   3.426   2.427
28994WAT     H187224   3.603   3.493   2.377
28994WAT     H287225   3.754   3.441   2.409
28995WAT      O87226   3.150   0.150   1.012
28995WAT     H187227   3.167   0.115   1.104
28995WAT     H287228   3.234   0.193   0.977
28996WAT      O87229   4.712   5.336   8.123
28996WAT     H187230   4.663   5.262   8.169
28996WAT     H287231   4.773   5.381   8.188
28997WAT      O87232   0.070   9.267   6.274
28997WAT     H187233   0.166   9.296   6.266
28997WAT     H287234   0.053   9.234   6.367
28998WAT      O87235   4.659   4.282   4.424
28998WAT     H187236   4.755   4.295   4.451
28998WAT     H287237   4.652   4.198   4.370
28999WAT      O87238   2.073   6.917   7.094
28999WAT     H187239   2.152   6.893   7.037
28999WAT     H287240   2.059   7.016   7.092
29000WAT      O87241   5.015   0.980   9.535
29000WAT     H187242   5.099   0.987   9.589
29000WAT     H287243   5.001   1.065   9.484
29001WAT      O87244   7.043   0.544   1.786
29001WAT     H187245   7.094   0.630   1.793
29001WAT     H287246   7.104   0.467   1.804
29002WAT      O87247   7.003   9.566   4.906
29002WAT     H187248   7.057   9.516   4.840
29002WAT     H287249   7.048   9.653   4.928
29003WAT      O87250   0.896   6.933   9.794
29003WAT     H187251   0.904   7.033   9.795
29003WAT     H287252   0.803   6.906   9.819
29004WAT      O87253   8.495   5.968   3.721
29004WAT     H187254   8.407   6.016   3.717
29004WAT     H287255   8.550   5.993   3.642
29005WAT      O87256   0.656   1.561   9.046
29005WAT     H187257   0.595   1.576   9.124
29005WAT     H287258   0.633   1.625   8.973
29006WAT      O87259   6.632   0.519   7.234
29006WAT     H187260   6.580   0.445   7.191
29006WAT     H287261   6.661   0.490   7.325
29007WAT      O87262   1.225   9.457   4.276
29007WAT     H187263   1.275   9.534   4.315
29007WAT     H287264   1.145   9.490   4.226
29008WAT      O87265   5.036   6.439   3.052
29008WAT     H187266   5.097   6.482   2.986
29008WAT     H287267   5.087   6.370   3.104
29009WAT      O87268   2.172   2.835   9.889
29009WAT     H187269   2.210   2.884   9.967
29009WAT     H287270   2.111   2.896   9.838
29010WAT      O87271   2.994   0.821   6.188
29010WAT     H187272   2.992   0.879   6.106
29010WAT     H287273   3.083   0.775   6.194
29011WAT      O87274   9.638   8.792   2.276
29011WAT     H187275   9.641   8.780   2.177
29011WAT     H287276   9.713   8.740   2.318
29012WAT      O87277   4.239   1.589   1.804
29012WAT     H187278   4.291   1.645   1.868
29012WAT     H287279   4.277   1.497   1.801
29013WAT      O87280   4.944   6.000   3.264
29013WAT     H187281   4.994   5.920   3.297
29013WAT     H287282   4.860   6.012   3.318
29014WAT      O87283   9.803   1.953   8.917
29014WAT     H187284   9.781   2.050   8.908
29014WAT     H287285   9.743   1.900   8.856
29015WAT      O87286   4.753   2.005   1.086
29015WAT     H187287   4.822   2.045   1.146
29015WAT     H287288   4.702   1.934   1.136
29016WAT      O87289   7.632   1.062   6.624
29016WAT     H187290   7.604   0.989   6.686
29016WAT     H287291   7.554   1.120   6.601
29017WAT      O87292   4.811   1.023   0.499
29017WAT     H187293   4.728   1.013   0.554
29017WAT     H287294   4.810   0.957   0.425
29018WAT      O87295   3.777   9.016   8.533
29018WAT     H187296   3.716   9.095   8.535
29018WAT     H287297   3.872   9.046   8.541
29019WAT      O87298   8.024   6.011   2.493
29019WAT     H187299   7.952   6.071   2.529
29019WAT     H287300   8.024   6.015   2.394
29020WAT      O87301   9.682   9.396   5.127
29020WAT     H187302   9.661   9.396   5.029
29020WAT     H287303   9.597   9.409   5.179
29021WAT      O87304   4.419   1.612   1.427
29021WAT     H187305   4.342   1.659   1.385
29021WAT     H287306   4.397   1.514   1.437
29022WAT      O87307   1.231   0.885   4.531
29022WAT     H187308   1.306   0.867   4.595
29022WAT     H287309   1.220   0.984   4.519
29023WAT      O87310   4.409   6.400   2.579
29023WAT     H187311   4.419   6.471   2.649
29023WAT     H287312   4.345   6.431   2.509
29024WAT      O87313   9.273   1.224   8.283
29024WAT     H187314   9.220   1.231   8.367
29024WAT     H287315   9.366   1.258   8.299
29025WAT      O87316   5.124   2.042   4.139
29025WAT     H187317   5.091   2.137   4.138
29025WAT     H287318   5.098   1.998   4.053
29026WAT      O87319   5.296   1.999   1.977
29026WAT     H187320   5.332   2.050   1.898
29026WAT     H287321   5.220   2.049   2.016
29027WAT      O87322   7.861   7.885   5.591
29027WAT     H187323   7.815   7.817   5.534
29027WAT     H287324   7.897   7.958   5.533
29028WAT      O87325   5.471   7.939   1.717
29028WAT     H187326   5.502   7.874   1.785
29028WAT     H287327   5.496   7.907   1.626
29029WAT      O87328   6.319   8.234   1.224
29029WAT     H187329   6.305   8.330   1.200
29029WAT     H287330   6.241   8.180   1.193
29030WAT      O87331   0.962   0.435   4.783
29030WAT     H187332   0.987   0.505   4.716
29030WAT     H287333   0.880   0.387   4.753
29031WAT      O87334   2.259   3.485   2.165
29031WAT     H187335   2.206   3.544   2.225
29031WAT     H287336   2.315   3.422   2.220
29032WAT      O87337   6.413   1.568   7.171
29032WAT     H187338   6.479   1.639   7.146
29032WAT     H287339   6.460   1.480   7.181
29033WAT      O87340   0.071   5.169   5.341
29033WAT     H187341   0.095   5.092   5.400
29033WAT     H287342   0.020   5.136   5.261
29034WAT      O87343   3.093   8.247   6.804
29034WAT     H187344   3.163   8.191   6.849
29034WAT     H287345   3.092   8.227   6.706
29035WAT      O87346   7.925   6.918   8.837
29035WAT     H187347   7.933   6.871   8.750
29035WAT     H287348   7.841   6.972   8.838
29036WAT      O87349   4.106   3.031   9.771
29036WAT     H187350   4.120   2.995   9.679
29036WAT     H287351   4.012   3.067   9.778
29037WAT      O87352   3.333   4.071   2.030
29037WAT     H187353   3.271   3.995   2.049
29037WAT     H287354   3.421   4.054   2.073
29038WAT      O87355   4.668   1.608   1.293
29038WAT     H187356   4.681   1.521   1.245
29038WAT     H287357   4.582   1.605   1.344
29039WAT      O87358   9.020   8.355   5.690
29039WAT     H187359   9.000   8.449   5.719
29039WAT     H287360   8.942   8.296   5.710
29040WAT      O87361   4.399   8.930   2.749
29040WAT     H187362   4.478   8.883   2.787
29040WAT     H287363   4.322   8.923   2.813
29041WAT      O87364   5.643   1.448   4.995
29041WAT     H187365   5.588   1.523   5.031
29041WAT     H287366   5.737   1.456   5.029
29042WAT      O87367   2.204   0.021   4.140
29042WAT     H187368   2.165   0.098   4.089
29042WAT     H287369   2.203   0.042   4.238
29043WAT      O87370   5.066   6.883   2.469
29043WAT     H187371   4.973   6.857   2.441
29043WAT     H287372   5.072   6.983   2.474
29044WAT      O87373   5.419   1.367   2.215
29044WAT     H187374   5.428   1.456   2.170
29044WAT     H287375   5.419   1.379   2.314
29045WAT      O87376   9.408   3.795   4.914
29045WAT     H187377   9.416   3.819   5.010
29045WAT     H287378   9.475   3.724   4.892
29046WAT      O87379   3.989   1.361   3.468
29046WAT     H187380   3.919   1.355   3.539
29046WAT     H287381   3.947   1.391   3.382
29047WAT      O87382   7.172   0.931   0.546
29047WAT     H187383   7.172   0.831   0.541
29047WAT     H287384   7.167   0.968   0.453
29048WAT      O87385   7.294   8.717   1.548
29048WAT     H187386   7.332   8.682   1.462
29048WAT     H287387   7.262   8.641   1.604
29049WAT      O87388   1.014   7.877   5.942
29049WAT     H187389   1.005   7.787   5.899
29049WAT     H287390   1.063   7.868   6.029
29050WAT      O87391   7.465   9.323   5.279
29050WAT     H187392   7.435   9.412   5.245
29050WAT     H287393   7.496   9.267   5.202
29051WAT      O87394   8.073   7.442   0.983
29051WAT     H187395   8.063   7.412   0.889
29051WAT     H287396   8.146   7.510   0.989
29052WAT      O87397   7.426   3.377   7.392
29052WAT     H187398   7.370   3.430   7.328
29052WAT     H287399   7.473   3.304   7.342
29053WAT      O87400   3.040   1.582   4.589
29053WAT     H187401   2.955   1.606   4.541
29053WAT     H287402   3.038   1.485   4.614
29054WAT      O87403   1.626   0.539   5.009
29054WAT     H187404   1.699   0.591   5.053
29054WAT     H287405   1.540   0.556   5.057
29055WAT      O87406   1.671   7.781   2.637
29055WAT     H187407   1.701   7.689   2.665
29055WAT     H287408   1.612   7.820   2.708
29056WAT      O87409   9.619   2.319   1.209
29056WAT     H187410   9.530   2.274   1.198
29056WAT     H287411   9.691   2.259   1.173
29057WAT      O87412   2.020   3.466   2.731
29057WAT     H187413   1.923   3.490   2.732
29057WAT     H287414   2.034   3.386   2.673
29058WAT      O87415   1.311   6.007   8.070
29058WAT     H187416   1.300   6.011   8.169
29058WAT     H287417   1.269   5.923   8.036
29059WAT      O87418   2.459   5.475   9.418
29059WAT     H187419   2.474   5.534   9.339
29059WAT     H287420   2.361   5.457   9.429
29060WAT      O87421   6.603   4.941   2.435
29060WAT     H187422   6.610   4.988   2.347
29060WAT     H287423   6.557   5.001   2.501
29061WAT      O87424   6.968   9.305   7.863
29061WAT     H187425   6.976   9.226   7.803
29061WAT     H287426   7.013   9.384   7.821
29062WAT      O87427   9.747   3.146   6.674
29062WAT     H187428   9.676   3.112   6.613
29062WAT     H287429   9.766   3.242   6.653
29063WAT      O87430   7.277   3.239   5.833
29063WAT     H187431   7.351   3.237   5.899
29063WAT     H287432   7.236   3.330   5.831
29064WAT      O87433   0.102   8.085   1.195
29064WAT     H187434   0.118   8.183   1.190
29064WAT     H287435   0.189   8.038   1.210
29065WAT      O87436   5.841   0.519   5.509
29065WAT     H187437   5.880   0.481   5.592
29065WAT     H287438   5.796   0.447   5.457
29066WAT      O87439   3.593   2.411   6.638
29066WAT     H187440   3.572   2.490   6.580
29066WAT     H287441   3.508   2.375   6.677
29067WAT      O87442   5.348   9.849   9.320
29067WAT     H187443   5.425   9.790   9.344
29067WAT     H287444   5.292   9.803   9.250
29068WAT      O87445   6.985   7.344   7.562
29068WAT     H187446   6.897   7.355   7.608
29068WAT     H287447   6.988   7.403   7.481
29069WAT      O87448   1.067   2.335   9.873
29069WAT     H187449   1.095   2.269   9.943
29069WAT     H287450   1.071   2.291   9.783
29070WAT      O87451   5.490   7.512   4.557
29070WAT     H187452   5.533   7.549   4.475
29070WAT     H287453   5.535   7.427   4.583
29071WAT      O87454   0.361   1.381   0.935
29071WAT     H187455   0.381   1.403   0.839
29071WAT     H287456   0.298   1.303   0.938
29072WAT      O87457   7.447   8.329   6.635
29072WAT     H187458   7.490   8.249   6.677
29072WAT     H287459   7.483   8.412   6.676
29073WAT      O87460   5.395   4.768   3.242
29073WAT     H187461   5.379   4.760   3.340
29073WAT     H287462   5.464   4.839   3.226
29074WAT      O87463   4.402   2.296   5.535
29074WAT     H187464   4.327   2.231   5.520
29074WAT     H287465   4.433   2.289   5.629
29075WAT      O87466   9.190   9.140   2.715
29075WAT     H187467   9.235   9.116   2.629
29075WAT     H287468   9.104   9.090   2.723
29076WAT      O87469   2.510   6.157   6.971
29076WAT     H187470   2.440   6.194   6.910
29076WAT     H287471   2.539   6.067   6.938
29077WAT      O87472   3.052   0.050   0.067
29077WAT     H187473   3.118   0.124   0.052
29077WAT     H287474   2.966   0.087   0.101
29078WAT      O87475   8.541   7.034   7.218
29078WAT     H187476   8.600   7.111   7.195
29078WAT     H287477   8.586   6.948   7.191
29079WAT      O87478   8.678   9.659   3.569
29079WAT     H187479   8.652   9.623   3.659
29079WAT     H287480   8.739   9.594   3.524
29080WAT      O87481   5.779   7.557   0.369
29080WAT     H187482   5.790   7.655   0.389
29080WAT     H287483   5.811   7.504   0.448
29081WAT      O87484   6.802   1.786   6.364
29081WAT     H187485   6.704   1.807   6.363
29081WAT     H287486   6.826   1.738   6.279
29082WAT      O87487   2.886   5.128   3.569
29082WAT     H187488   2.809   5.064   3.573
29082WAT     H287489   2.931   5.132   3.658
29083WAT      O87490   8.496   4.883   6.712
29083WAT     H187491   8.403   4.868   6.747
29083WAT     H287492   8.563   4.863   6.783
29084WAT      O87493   1.561   0.511   7.159
29084WAT     H187494   1.494   0.562   7.212
29084WAT     H287495   1.519   0.429   7.122
29085WAT      O87496   8.043   8.127   3.744
29085WAT     H187497   8.033   8.029   3.724
29085WAT     H287498   8.098   8.139   3.826
29086WAT      O87499   8.502   6.632   5.205
29086WAT     H187500   8.566   6.703   5.233
29086WAT     H287501   8.500   6.627   5.105
29087WAT      O87502   8.687   0.719   3.858
29087WAT     H187503   8.588   0.716   3.843
29087WAT     H287504   8.714   0.813   3.881
29088WAT      O87505   1.067   3.034   8.855
29088WAT     H187506   1.045   2.945   8.815
29088WAT     H287507   0.985   3.072   8.898
29089WAT      O87508   5.122   9.608   2.302
29089WAT     H187509   5.204   9.552   2.312
29089WAT     H287510   5.096   9.612   2.205
29090WAT      O87511   0.077   8.812   6.992
29090WAT     H187512   0.084   8.840   6.896
29090WAT     H287513   0.169   8.812   7.033
29091WAT      O87514   2.324   6.981   3.234
29091WAT     H187515   2.300   6.904   3.175
29091WAT     H287516   2.268   6.979   3.317
29092WAT      O87517   3.055   2.724   0.738
29092WAT     H187518   3.050   2.645   0.677
29092WAT     H287519   3.063   2.808   0.685
29093WAT      O87520   4.564   3.601   0.574
29093WAT     H187521   4.596   3.585   0.668
29093WAT     H287522   4.465   3.615   0.575
29094WAT      O87523   5.495   9.259   6.077
29094WAT     H187524   5.438   9.320   6.022
29094WAT     H287525   5.591   9.277   6.057
29095WAT      O87526   7.804   2.748   6.311
29095WAT     H187527   7.836   2.808   6.384
29095WAT     H287528   7.857   2.766   6.228
29096WAT      O87529   9.134   5.300   9.147
29096WAT     H187530   9.052   5.340   9.108
29096WAT     H287531   9.214   5.351   9.117
29097WAT      O87532   3.583   5.480   5.866
29097WAT     H187533   3.537   5.496   5.779
29097WAT     H287534   3.530   5.521   5.940
29098WAT      O87535   4.298   3.266   8.120
29098WAT     H187536   4.245   3.192   8.160
29098WAT     H287537   4.305   3.342   8.184
29099WAT      O87538   0.842   7.889   0.680
29099WAT     H187539   0.794   7.856   0.761
29099WAT     H287540   0.848   7.989   0.683
29100WAT      O87541   8.323   2.296   0.050
29100WAT     H187542   8.295   2.233   0.122
29100WAT     H287543   8.369   2.375   0.091
29101WAT      O87544   4.765   5.398   2.304
29101WAT     H187545   4.861   5.413   2.329
29101WAT     H287546   4.732   5.474   2.248
29102WAT      O87547   0.376   3.611   2.046
29102WAT     H187548   0.373   3.709   2.026
29102WAT     H287549   0.377   3.598   2.145
29103WAT      O87550   7.484   1.155   2.836
29103WAT     H187551   7.416   1.224   2.861
29103WAT     H287552   7.550   1.146   2.911
29104WAT      O87553   2.008   6.287   2.318
29104WAT     H187554   2.024   6.379   2.281
29104WAT     H287555   2.096   6.244   2.340
29105WAT      O87556   2.600   2.123   5.841
29105WAT     H187557   2.542   2.139   5.920
29105WAT     H287558   2.614   2.208   5.791
29106WAT      O87559   6.423   5.322   3.555
29106WAT     H187560   6.462   5.368   3.476
29106WAT     H287561   6.333   5.286   3.531
29107WAT      O87562   4.869   4.969   4.094
29107WAT     H187563   4.918   4.903   4.150
29107WAT     H287564   4.919   5.056   4.092
29108WAT      O87565   0.892   1.885   5.542
29108WAT     H187566   0.802   1.844   5.526
29108WAT     H287567   0.905   1.903   5.639
29109WAT      O87568   3.189   5.893   6.053
29109WAT     H187569   3.172   5.905   6.151
29109WAT     H287570   3.171   5.979   6.006
29110WAT      O87571   2.877   2.837   0.326
29110WAT     H187572   2.882   2.936   0.314
29110WAT     H287573   2.798   2.814   0.382
29111WAT      O87574   1.794   7.997   4.990
29111WAT     H187575   1.888   7.995   4.957
29111WAT     H287576   1.786   7.944   5.074
29112WAT      O87577   9.708   3.599   2.460
29112WAT     H187578   9.786   3.537   2.467
29112WAT     H287579   9.672   3.617   2.552
29113WAT      O87580   5.399   7.850   9.003
29113WAT     H187581   5.468   7.846   8.931
29113WAT     H287582   5.332   7.921   8.980
29114WAT      O87583   5.873   3.478   4.243
29114WAT     H187584   5.816   3.438   4.315
29114WAT     H287585   5.936   3.545   4.283
29115WAT      O87586   7.963   8.882   9.526
29115WAT     H187587   7.972   8.848   9.433
29115WAT     H287588   7.927   8.810   9.585
29116WAT      O87589   8.306   4.770   5.214
29116WAT     H187590   8.286   4.748   5.118
29116WAT     H287591   8.354   4.694   5.257
29117WAT      O87592   6.758   1.918   8.219
29117WAT     H187593   6.659   1.908   8.211
29117WAT     H287594   6.801   1.828   8.219
29118WAT      O87595   0.439   8.470   3.227
29118WAT     H187596   0.470   8.386   3.183
29118WAT     H287597   0.340   8.480   3.215
29119WAT      O87598   1.204   3.883   3.133
29119WAT     H187599   1.161   3.863   3.221
29119WAT     H287600   1.166   3.968   3.096
29120WAT      O87601   4.957   5.624   9.249
29120WAT     H187602   4.925   5.715   9.276
29120WAT     H287603   4.957   5.563   9.329
29121WAT      O87604   2.364   8.303   0.227
29121WAT     H187605   2.436   8.357   0.184
29121WAT     H287606   2.363   8.319   0.325
29122WAT      O87607   5.935   6.395   2.952
29122WAT     H187608   5.932   6.297   2.970
29122WAT     H287609   5.960   6.443   3.036
29123WAT      O87610   7.547   1.576   1.319
29123WAT     H187611   7.599   1.642   1.373
29123WAT     H287612   7.566   1.484   1.353
29124WAT      O87613   2.924   5.998   0.296
29124WAT     H187614   3.011   5.951   0.314
29124WAT     H287615   2.918   6.020   0.199
29125WAT      O87616   6.322   1.421   2.697
29125WAT     H187617   6.367   1.364   2.766
29125WAT     H287618   6.223   1.407   2.702
29126WAT      O87619   2.127   4.230   4.890
29126WAT     H187620   2.083   4.255   4.977
29126WAT     H287621   2.085   4.146   4.855
29127WAT      O87622   3.826   0.182   9.217
29127WAT     H187623   3.885   0.103   9.197
29127WAT     H287624   3.871   0.240   9.285
29128WAT      O87625   1.896   7.612   9.394
29128WAT     H187626   1.909   7.515   9.370
29128WAT     H287627   1.799   7.632   9.401
29129WAT      O87628   2.380   8.459   2.708
29129WAT     H187629   2.455   8.525   2.701
29129WAT     H287630   2.345   8.459   2.801
29130WAT      O87631   1.201   7.535   7.946
29130WAT     H187632   1.222   7.437   7.936
29130WAT     H287633   1.251   7.572   8.024
29131WAT      O87634   1.826   3.626   3.255
29131WAT     H187635   1.804   3.541   3.304
29131WAT     H287636   1.914   3.616   3.210
29132WAT      O87637   6.672   6.262   4.584
29132WAT     H187638   6.601   6.227   4.522
29132WAT     H287639   6.728   6.186   4.616
29133WAT      O87640   5.317   2.715   6.816
29133WAT     H187641   5.231   2.757   6.787
29133WAT     H287642   5.302   2.662   6.899
29134WAT      O87643   8.666   1.757   7.008
29134WAT     H187644   8.620   1.826   6.953
29134WAT     H287645   8.748   1.725   6.960
29135WAT      O87646   8.750   5.243   9.886
29135WAT     H187647   8.739   5.171   9.954
29135WAT     H287648   8.660   5.273   9.854
29136WAT      O87649   4.781   9.507   2.877
29136WAT     H187650   4.738   9.419   2.895
29136WAT     H287651   4.843   9.498   2.799
29137WAT      O87652   7.829   5.212   5.990
29137WAT     H187653   7.839   5.219   6.089
29137WAT     H287654   7.734   5.193   5.966
29138WAT      O87655   5.814   5.449   3.387
29138WAT     H187656   5.745   5.469   3.318
29138WAT     H287657   5.818   5.351   3.403
29139WAT      O87658   9.767   6.730   1.609
29139WAT     H187659   9.790   6.811   1.555
29139WAT     H287660   9.672   6.705   1.594
29140WAT      O87661   2.097   6.469   4.603
29140WAT     H187662   2.168   6.518   4.654
29140WAT     H287663   2.012   6.521   4.605
29141WAT      O87664   5.199   9.144   8.447
29141WAT     H187665   5.225   9.114   8.355
29141WAT     H287666   5.163   9.237   8.442
29142WAT      O87667   1.122   1.592   4.754
29142WAT     H187668   1.119   1.519   4.686
29142WAT     H287669   1.199   1.653   4.734
29143WAT      O87670   7.420   3.313   7.649
29143WAT     H187671   7.426   3.336   7.552
29143WAT     H287672   7.433   3.396   7.704
29144WAT      O87673   1.284   9.045   5.313
29144WAT     H187674   1.274   8.946   5.324
29144WAT     H287675   1.207   9.092   5.357
29145WAT      O87676   7.141   4.889   0.533
29145WAT     H187677   7.041   4.885   0.537
29145WAT     H287678   7.179   4.863   0.622
29146WAT      O87679   0.842   7.235   5.954
29146WAT     H187680   0.848   7.328   5.990
29146WAT     H287681   0.934   7.199   5.939
29147WAT      O87682   2.853   9.372   1.777
29147WAT     H187683   2.865   9.283   1.733
29147WAT     H287684   2.804   9.360   1.863
29148WAT      O87685   4.243   6.084   8.384
29148WAT     H187686   4.208   6.067   8.476
29148WAT     H287687   4.227   6.179   8.359
29149WAT      O87688   5.030   7.068   7.345
29149WAT     H187689   4.957   7.104   7.403
29149WAT     H287690   5.012   6.972   7.325
29150WAT      O87691   5.173   7.403   3.168
29150WAT     H187692   5.244   7.368   3.107
29150WAT     H287693   5.118   7.328   3.203
29151WAT      O87694   0.470   6.655   4.939
29151WAT     H187695   0.389   6.607   4.906
29151WAT     H287696   0.443   6.737   4.990
29152WAT      O87697   6.421   6.419   9.602
29152WAT     H187698   6.492   6.480   9.566
29152WAT     H287699   6.458   6.364   9.676
29153WAT      O87700   4.303   0.105   8.648
29153WAT     H187701   4.307   0.171   8.573
29153WAT     H287702   4.213   0.109   8.691
29154WAT      O87703   3.279   2.604   7.974
29154WAT     H187704   3.227   2.658   8.040
29154WAT     H287705   3.375   2.602   8.001
29155WAT      O87706   5.199   5.399   5.292
29155WAT     H187707   5.232   5.493   5.300
29155WAT     H287708   5.100   5.398   5.303
29156WAT      O87709   7.392   5.146   1.672
29156WAT     H187710   7.392   5.183   1.579
29156WAT     H287711   7.373   5.048   1.669
29157WAT      O87712   0.675   1.227   3.374
29157WAT     H187713   0.597   1.289   3.374
29157WAT     H287714   0.759   1.280   3.383
29158WAT      O87715   7.483   8.482   3.800
29158WAT     H187716   7.533   8.532   3.871
29158WAT     H287717   7.524   8.392   3.786
29159WAT      O87718   9.867   5.744   1.179
29159WAT     H187719   9.900   5.829   1.219
29159WAT     H287720   9.900   5.735   1.086
29160WAT      O87721   8.484   8.111   1.545
29160WAT     H187722   8.578   8.112   1.582
29160WAT     H287723   8.488   8.115   1.445
29161WAT      O87724   6.424   6.132   1.224
29161WAT     H187725   6.351   6.152   1.159
29161WAT     H287726   6.508   6.177   1.195
29162WAT      O87727   5.234   8.267   9.354
29162WAT     H187728   5.267   8.291   9.445
29162WAT     H287729   5.174   8.339   9.320
29163WAT      O87730   1.596   8.362   0.203
29163WAT     H187731   1.596   8.450   0.155
29163WAT     H287732   1.625   8.290   0.141
29164WAT      O87733   5.565   7.599   4.013
29164WAT     H187734   5.545   7.694   4.038
29164WAT     H287735   5.644   7.597   3.953
29165WAT      O87736   5.647   8.083   1.192
29165WAT     H187737   5.569   8.146   1.190
29165WAT     H287738   5.615   7.990   1.174
29166WAT      O87739   3.862   3.500   7.474
29166WAT     H187740   3.824   3.409   7.461
29166WAT     H287741   3.868   3.546   7.385
29167WAT      O87742   9.062   4.016   1.824
29167WAT     H187743   8.991   3.968   1.772
29167WAT     H287744   9.127   4.058   1.761
29168WAT      O87745   2.922   7.451   2.617
29168WAT     H187746   3.013   7.480   2.648
29168WAT     H287747   2.911   7.353   2.635
29169WAT      O87748   3.465   8.219   9.396
29169WAT     H187749   3.532   8.282   9.357
29169WAT     H287750   3.502   8.126   9.393
29170WAT      O87751   5.401   7.658   6.905
29170WAT     H187752   5.443   7.614   6.826
29170WAT     H287753   5.332   7.723   6.874
29171WAT      O87754   4.846   7.782   7.498
29171WAT     H187755   4.901   7.703   7.470
29171WAT     H287756   4.896   7.866   7.478
29172WAT      O87757   3.367   0.528   5.537
29172WAT     H187758   3.411   0.573   5.614
29172WAT     H287759   3.301   0.460   5.571
29173WAT      O87760   0.360   6.381   5.646
29173WAT     H187761   0.300   6.449   5.604
29173WAT     H287762   0.359   6.392   5.745
29174WAT      O87763   2.885   8.692   3.478
29174WAT     H187764   2.830   8.624   3.428
29174WAT     H287765   2.854   8.697   3.573
29175WAT      O87766   4.979   0.023   4.944
29175WAT     H187767   4.995   0.095   4.876
29175WAT     H287768   5.049  -0.048   4.934
29176WAT      O87769   7.797   5.333   2.800
29176WAT     H187770   7.838   5.312   2.888
29176WAT     H287771   7.789   5.249   2.746
29177WAT      O87772   9.237   6.483   5.333
29177WAT     H187773   9.226   6.528   5.422
29177WAT     H287774   9.334   6.479   5.309
29178WAT      O87775   2.643   0.528   0.777
29178WAT     H187776   2.612   0.538   0.682
29178WAT     H287777   2.628   0.613   0.827
29179WAT      O87778   1.422   4.218   2.924
29179WAT     H187779   1.396   4.240   2.830
29179WAT     H287780   1.405   4.121   2.942
29180WAT      O87781   6.225   6.797   8.130
29180WAT     H187782   6.248   6.873   8.190
29180WAT     H287783   6.309   6.756   8.094
29181WAT      O87784   0.992   2.736   3.806
29181WAT     H187785   1.062   2.672   3.774
29181WAT     H287786   0.946   2.698   3.886
29182WAT      O87787   2.472   6.427   8.375
29182WAT     H187788   2.423   6.440   8.461
29182WAT     H287789   2.569   6.449   8.388
29183WAT      O87790   4.817   1.215   7.761
29183WAT     H187791   4.786   1.138   7.816
29183WAT     H287792   4.867   1.280   7.819
29184WAT      O87793   5.778   4.277   7.950
29184WAT     H187794   5.687   4.318   7.949
29184WAT     H287795   5.842   4.337   7.901
29185WAT      O87796   7.662   0.379   4.886
29185WAT     H187797   7.723   0.358   4.810
29185WAT     H287798   7.577   0.327   4.876
29186WAT      O87799   2.817   4.949   6.080
29186WAT     H187800   2.783   4.944   5.986
29186WAT     H287801   2.879   4.873   6.097
29187WAT      O87802   5.190   6.166   6.376
29187WAT     H187803   5.198   6.252   6.325
29187WAT     H287804   5.178   6.091   6.311
29188WAT      O87805   4.220   2.837   1.530
29188WAT     H187806   4.194   2.744   1.503
29188WAT     H287807   4.311   2.834   1.571
29189WAT      O87808   4.445   5.786   7.042
29189WAT     H187809   4.398   5.847   6.979
29189WAT     H287810   4.429   5.815   7.136
29190WAT      O87811   1.556   9.259   8.661
29190WAT     H187812   1.563   9.220   8.569
29190WAT     H287813   1.632   9.321   8.678
29191WAT      O87814   1.288   1.287   2.019
29191WAT     H187815   1.193   1.268   1.995
29191WAT     H287816   1.349   1.236   1.959
29192WAT      O87817   0.777   4.809   5.937
29192WAT     H187818   0.749   4.816   6.032
29192WAT     H287819   0.876   4.794   5.932
29193WAT      O87820   1.799   6.531   1.394
29193WAT     H187821   1.830   6.450   1.344
29193WAT     H287822   1.820   6.613   1.341
29194WAT      O87823   9.134   5.633   5.727
29194WAT     H187824   9.075   5.573   5.780
29194WAT     H287825   9.087   5.661   5.643
29195WAT      O87826   9.776   7.308   4.885
29195WAT     H187827   9.680   7.323   4.864
29195WAT     H287828   9.811   7.231   4.831
29196WAT      O87829   2.535   6.710   4.137
29196WAT     H187830   2.605   6.644   4.164
29196WAT     H287831   2.565   6.759   4.056
29197WAT      O87832   5.494   3.244   6.934
29197WAT     H187833   5.578   3.297   6.919
29197WAT     H287834   5.447   3.231   6.847
29198WAT      O87835   9.778   6.517   7.896
29198WAT     H187836   9.718   6.515   7.975
29198WAT     H287837   9.736   6.467   7.821
29199WAT      O87838   2.649   7.181   6.132
29199WAT     H187839   2.568   7.162   6.077
29199WAT     H287840   2.621   7.209   6.224
29200WAT      O87841   5.014   1.963   5.956
29200WAT     H187842   4.984   1.888   6.015
29200WAT     H287843   4.937   1.998   5.903
29201WAT      O87844   3.772   8.250   8.196
29201WAT     H187845   3.695   8.190   8.220
29201WAT     H287846   3.856   8.196   8.193
29202WAT      O87847   4.220   1.883   3.737
29202WAT     H187848   4.175   1.812   3.792
29202WAT     H287849   4.198   1.868   3.640
29203WAT      O87850   3.993   9.562   1.678
29203WAT     H187851   4.035   9.620   1.748
29203WAT     H287852   4.004   9.605   1.589
29204WAT      O87853   3.652   2.089   0.034
29204WAT     H187854   3.749   2.095   0.013
29204WAT     H287855   3.639   2.063   0.129
29205WAT      O87856   0.164   4.841   5.880
29205WAT     H187857   0.124   4.749   5.882
29205WAT     H287858   0.095   4.907   5.850
29206WAT      O87859   2.145   7.015   7.779
29206WAT     H187860   2.109   7.067   7.857
29206WAT     H287861   2.209   6.946   7.812
29207WAT      O87862   4.091   9.421   5.448
29207WAT     H187863   4.063   9.402   5.354
29207WAT     H287864   4.010   9.430   5.506
29208WAT      O87865   9.146   1.256   3.188
29208WAT     H187866   9.144   1.331   3.254
29208WAT     H287867   9.063   1.259   3.132
29209WAT      O87868   3.003   0.927   1.692
29209WAT     H187869   3.083   0.872   1.667
29209WAT     H287870   2.977   0.906   1.786
29210WAT      O87871   2.096   0.111   9.449
29210WAT     H187872   2.112   0.157   9.537
29210WAT     H287873   2.022   0.045   9.459
29211WAT      O87874   7.450   4.235   1.854
29211WAT     H187875   7.472   4.333   1.849
29211WAT     H287876   7.522   4.183   1.807
29212WAT      O87877   8.599   4.779   9.873
29212WAT     H187878   8.513   4.782   9.823
29212WAT     H287879   8.665   4.724   9.822
29213WAT      O87880   2.176   5.471   2.845
29213WAT     H187881   2.254   5.533   2.849
29213WAT     H287882   2.208   5.377   2.853
29214WAT      O87883   7.571   2.555   6.315
29214WAT     H187884   7.504   2.618   6.277
29214WAT     H287885   7.655   2.604   6.338
29215WAT      O87886   6.098   2.367   3.238
29215WAT     H187887   6.132   2.418   3.159
29215WAT     H287888   6.005   2.334   3.219
29216WAT      O87889   9.828   6.275   1.128
29216WAT     H187890   9.826   6.217   1.047
29216WAT     H287891   9.750   6.253   1.187
29217WAT      O87892   1.740   3.735   3.593
29217WAT     H187893   1.832   3.741   3.555
29217WAT     H287894   1.674   3.719   3.519
29218WAT      O87895   3.314   4.309   6.272
29218WAT     H187896   3.333   4.216   6.241
29218WAT     H287897   3.283   4.365   6.195
29219WAT      O87898   1.136   2.994   6.680
29219WAT     H187899   1.219   2.990   6.625
29219WAT     H287900   1.119   3.089   6.707
29220WAT      O87901   1.800   3.780   1.377
29220WAT     H187902   1.840   3.708   1.320
29220WAT     H287903   1.803   3.867   1.328
29221WAT      O87904   2.799   5.699   6.747
29221WAT     H187905   2.772   5.794   6.737
29221WAT     H287906   2.840   5.667   6.662
29222WAT      O87907   7.139   3.638   4.881
29222WAT     H187908   7.112   3.719   4.934
29222WAT     H287909   7.084   3.634   4.798
29223WAT      O87910   0.156   6.042   7.282
29223WAT     H187911   0.211   6.028   7.200
29223WAT     H287912   0.098   6.123   7.270
29224WAT      O87913   3.225   7.224   6.259
29224WAT     H187914   3.198   7.173   6.340
29224WAT     H287915   3.194   7.176   6.177
29225WAT      O87916   2.931   2.404   7.821
29225WAT     H187917   2.889   2.481   7.773
29225WAT     H287918   2.864   2.330   7.829
29226WAT      O87919   8.560   3.749   0.627
29226WAT     H187920   8.526   3.696   0.704
29226WAT     H287921   8.657   3.770   0.640
29227WAT      O87922   6.308   5.272   5.733
29227WAT     H187923   6.397   5.317   5.741
29227WAT     H287924   6.240   5.338   5.701
29228WAT      O87925   4.002   5.277   5.937
29228WAT     H187926   3.966   5.236   6.021
29228WAT     H287927   3.948   5.358   5.914
29229WAT      O87928   9.477   7.350   1.158
29229WAT     H187929   9.451   7.436   1.115
29229WAT     H287930   9.563   7.362   1.208
29230WAT      O87931   7.113   8.264   6.825
29230WAT     H187932   7.178   8.205   6.873
29230WAT     H287933   7.143   8.277   6.730
29231WAT      O87934   5.574   7.515   9.496
29231WAT     H187935   5.607   7.605   9.469
29231WAT     H287936   5.500   7.525   9.562
29232WAT      O87937   0.648   3.401   5.460
29232WAT     H187938   0.616   3.331   5.396
29232WAT     H287939   0.746   3.392   5.473
29233WAT      O87940   0.173   0.669   2.635
29233WAT     H187941   0.116   0.742   2.673
29233WAT     H287942   0.120   0.618   2.567
29234WAT      O87943   3.880   1.859   5.091
29234WAT     H187944   3.956   1.841   5.154
29234WAT     H287945   3.914   1.912   5.013
29235WAT      O87946   6.095   9.686   5.006
29235WAT     H187947   6.177   9.653   4.960
29235WAT     H287948   6.019   9.687   4.941
29236WAT      O87949   8.974   3.179   7.810
29236WAT     H187950   8.875   3.166   7.816
29236WAT     H287951   9.012   3.194   7.901
29237WAT      O87952   7.594   7.784   0.437
29237WAT     H187953   7.496   7.804   0.444
29237WAT     H287954   7.645   7.869   0.423
29238WAT      O87955   7.783   9.320   6.870
29238WAT     H187956   7.879   9.351   6.872
29238WAT     H287957   7.780   9.221   6.884
29239WAT      O87958   0.265   7.001   3.442
29239WAT     H187959   0.324   6.949   3.504
29239WAT     H287960   0.175   7.013   3.483
29240WAT      O87961   4.513   2.205   8.122
29240WAT     H187962   4.583   2.176   8.187
29240WAT     H287963   4.444   2.260   8.169
29241WAT      O87964   6.063   8.717   7.634
29241WAT     H187965   6.041   8.632   7.587
29241WAT     H287966   6.146   8.705   7.688
29242WAT      O87967   2.693   6.449   7.697
29242WAT     H187968   2.734   6.398   7.621
29242WAT     H287969   2.595   6.431   7.699
29243WAT      O87970   5.509   7.848   1.475
29243WAT     H187971   5.424   7.879   1.433
29243WAT     H287972   5.528   7.754   1.446
29244WAT      O87973   1.437   4.017   2.305
29244WAT     H187974   1.528   4.020   2.263
29244WAT     H287975   1.434   3.943   2.373
29245WAT      O87976   1.149   6.752   2.628
29245WAT     H187977   1.058   6.772   2.593
29245WAT     H287978   1.158   6.791   2.720
29246WAT      O87979   2.319   1.984   1.258
29246WAT     H187980   2.348   2.051   1.189
29246WAT     H287981   2.273   2.031   1.333
29247WAT      O87982   8.887   8.233   6.138
29247WAT     H187983   8.790   8.221   6.161
29247WAT     H287984   8.898   8.315   6.083
29248WAT      O87985   8.968   2.798   8.731
29248WAT     H187986   8.956   2.793   8.830
29248WAT     H287987   9.023   2.721   8.700
29249WAT      O87988   1.261   3.701   0.965
29249WAT     H187989   1.194   3.724   0.895
29249WAT     H287990   1.311   3.619   0.937
29250WAT      O87991   4.270   0.565   5.078
29250WAT     H187992   4.368   0.586   5.081
29250WAT     H287993   4.257   0.466   5.081
29251WAT      O87994   2.627   9.793   6.653
29251WAT     H187995   2.615   9.696   6.674
29251WAT     H287996   2.692   9.833   6.717
29252WAT      O87997   7.351   0.918   5.984
29252WAT     H187998   7.299   0.894   5.902
29252WAT     H287999   7.435   0.965   5.958
29253WAT      O88000   6.836   0.508   8.930
29253WAT     H188001   6.879   0.490   9.019
29253WAT     H288002   6.738   0.520   8.943
29254WAT      O88003   6.396   8.297   6.312
29254WAT     H188004   6.382   8.207   6.273
29254WAT     H288005   6.317   8.355   6.293
29255WAT      O88006   3.573   0.629   9.101
29255WAT     H188007   3.625   0.579   9.170
29255WAT     H288008   3.588   0.727   9.111
29256WAT      O88009   9.494   0.125   7.257
29256WAT     H188010   9.471   0.214   7.295
29256WAT     H288011   9.579   0.092   7.297
29257WAT      O88012   7.198   0.853   5.732
29257WAT     H188013   7.184   0.823   5.638
29257WAT     H288014   7.263   0.929   5.733
29258WAT      O88015   5.178   3.862   7.044
29258WAT     H188016   5.170   3.837   6.947
29258WAT     H288017   5.257   3.923   7.056
29259WAT      O88018   7.068   3.324   8.833
29259WAT     H188019   7.148   3.267   8.811
29259WAT     H288020   7.033   3.298   8.923
29260WAT      O88021   6.509   5.820   1.534
29260WAT     H188022   6.425   5.783   1.572
29260WAT     H288023   6.496   5.843   1.438
29261WAT      O88024   5.552   7.171   1.024
29261WAT     H188025   5.648   7.185   0.998
29261WAT     H288026   5.529   7.075   1.014
29262WAT      O88027   7.337   9.615   1.832
29262WAT     H188028   7.250   9.576   1.802
29262WAT     H288029   7.412   9.558   1.800
29263WAT      O88030   5.165   6.350   2.065
29263WAT     H188031   5.131   6.383   1.977
29263WAT     H288032   5.164   6.425   2.131
29264WAT      O88033   4.028   2.396   3.675
29264WAT     H188034   4.108   2.456   3.679
29264WAT     H288035   4.058   2.301   3.671
29265WAT      O88036   8.569   0.501   9.304
29265WAT     H188037   8.568   0.478   9.207
29265WAT     H288038   8.484   0.549   9.327
29266WAT      O88039   8.494   7.677   3.876
29266WAT     H188040   8.589   7.660   3.852
29266WAT     H288041   8.455   7.595   3.917
29267WAT      O88042   9.870   8.255   5.610
29267WAT     H188043   9.779   8.296   5.605
29267WAT     H288044   9.931   8.317   5.660
29268WAT      O88045   9.705   7.001   3.152
29268WAT     H188046   9.792   7.049   3.161
29268WAT     H288047   9.658   7.033   3.070
29269WAT      O88048   5.821   1.849   0.211
29269WAT     H188049   5.919   1.841   0.227
29269WAT     H288050   5.777   1.762   0.234
29270WAT      O88051   7.421   8.940   4.173
29270WAT     H188052   7.366   9.020   4.147
29270WAT     H288053   7.498   8.931   4.110
29271WAT      O88054   9.697   0.149   6.762
29271WAT     H188055   9.631   0.172   6.834
29271WAT     H288056   9.788   0.138   6.803
29272WAT      O88057   1.474   8.410   4.283
29272WAT     H188058   1.478   8.418   4.183
29272WAT     H288059   1.391   8.362   4.310
29273WAT      O88060   5.763   7.970   1.416
29273WAT     H188061   5.682   7.931   1.459
29273WAT     H288062   5.734   8.032   1.343
29274WAT      O88063   5.678   9.501   0.326
29274WAT     H188064   5.631   9.514   0.414
29274WAT     H288065   5.715   9.409   0.321
29275WAT      O88066   7.065   7.713   3.994
29275WAT     H188067   7.050   7.651   4.072
29275WAT     H288068   7.102   7.800   4.027
29276WAT      O88069   7.639   9.290   1.904
29276WAT     H188070   7.543   9.295   1.932
29276WAT     H288071   7.697   9.285   1.985
29277WAT      O88072   5.039   5.672   7.410
29277WAT     H188073   4.951   5.643   7.371
29277WAT     H288074   5.079   5.744   7.354
29278WAT      O88075   1.665   7.760   2.237
29278WAT     H188076   1.618   7.817   2.305
29278WAT     H288077   1.639   7.664   2.251
29279WAT      O88078   6.936   4.876   4.951
29279WAT     H188079   6.904   4.781   4.947
29279WAT     H288080   6.917   4.913   5.042
29280WAT      O88081   7.578   4.406   9.469
29280WAT     H188082   7.662   4.423   9.522
29280WAT     H288083   7.558   4.308   9.472
29281WAT      O88084   1.057   2.992   2.203
29281WAT     H188085   1.080   3.055   2.129
29281WAT     H288086   1.108   2.907   2.192
29282WAT      O88087   9.278   8.167   2.096
29282WAT     H188088   9.352   8.199   2.154
29282WAT     H288089   9.277   8.067   2.094
29283WAT      O88090   0.810   8.403   5.281
29283WAT     H188091   0.795   8.309   5.249
29283WAT     H288092   0.727   8.457   5.265
29284WAT      O88093   0.222   8.527   9.709
29284WAT     H188094   0.267   8.589   9.774
29284WAT     H288095   0.157   8.580   9.654
29285WAT      O88096   1.898   9.305   3.106
29285WAT     H188097   1.897   9.229   3.171
29285WAT     H288098   1.814   9.306   3.053
29286WAT      O88099   5.693   9.624   6.208
29286WAT     H188100   5.756   9.701   6.217
29286WAT     H288101   5.619   9.648   6.145
29287WAT      O88102   4.983   2.841   7.849
29287WAT     H188103   4.917   2.906   7.888
29287WAT     H288104   4.953   2.816   7.757
29288WAT      O88105   8.449   1.830   1.906
29288WAT     H188106   8.414   1.924   1.905
29288WAT     H288107   8.388   1.772   1.960
29289WAT      O88108   6.194   9.514   3.790
29289WAT     H188109   6.105   9.489   3.828
29289WAT     H288110   6.210   9.612   3.805
29290WAT      O88111   4.626   3.603   5.374
29290WAT     H188112   4.590   3.653   5.295
29290WAT     H288113   4.569   3.623   5.454
29291WAT      O88114   7.185   9.097   8.485
29291WAT     H188115   7.279   9.071   8.463
29291WAT     H288116   7.123   9.056   8.419
29292WAT      O88117   2.948   8.085   7.509
29292WAT     H188118   2.960   8.183   7.525
29292WAT     H288119   2.881   8.071   7.436
29293WAT      O88120   7.640   6.948   2.620
29293WAT     H188121   7.634   7.039   2.578
29293WAT     H288122   7.589   6.882   2.565
29294WAT      O88123   4.291   2.034   2.795
29294WAT     H188124   4.267   2.090   2.874
29294WAT     H288125   4.322   1.944   2.826
29295WAT      O88126   1.211   7.076   8.642
29295WAT     H188127   1.133   7.018   8.664
29295WAT     H288128   1.260   7.100   8.726
29296WAT      O88129   5.583   6.132   7.835
29296WAT     H188130   5.530   6.180   7.906
29296WAT     H288131   5.661   6.086   7.877
29297WAT      O88132   2.022   0.942   8.191
29297WAT     H188133   2.100   0.914   8.134
29297WAT     H288134   1.984   1.027   8.156
29298WAT      O88135   8.966   4.162   7.236
29298WAT     H188136   8.910   4.210   7.169
29298WAT     H288137   9.017   4.089   7.190
29299WAT      O88138   1.646   9.124   4.263
29299WAT     H188139   1.577   9.160   4.200
29299WAT     H288140   1.613   9.040   4.304
29300WAT      O88141   4.809   9.721   3.855
29300WAT     H188142   4.820   9.683   3.947
29300WAT     H288143   4.753   9.659   3.800
29301WAT      O88144   4.875   1.215   9.788
29301WAT     H188145   4.784   1.243   9.817
29301WAT     H288146   4.935   1.295   9.783
29302WAT      O88147   4.321   6.010   9.020
29302WAT     H188148   4.338   5.925   9.069
29302WAT     H288149   4.392   6.024   8.951
29303WAT      O88150   4.474   6.975   8.184
29303WAT     H188151   4.376   6.993   8.177
29303WAT     H288152   4.523   7.061   8.197
29304WAT      O88153   7.796   1.109   0.577
29304WAT     H188154   7.832   1.095   0.485
29304WAT     H288155   7.723   1.178   0.574
29305WAT      O88156   7.615   9.316   6.117
29305WAT     H188157   7.622   9.217   6.124
29305WAT     H288158   7.568   9.340   6.032
29306WAT      O88159   4.756   5.657   0.342
29306WAT     H188160   4.787   5.565   0.319
29306WAT     H288161   4.671   5.677   0.293
29307WAT      O88162   3.514   4.771   7.572
29307WAT     H188163   3.529   4.762   7.670
29307WAT     H288164   3.440   4.710   7.543
29308WAT      O88165   2.163   9.542   2.472
29308WAT     H188166   2.079   9.585   2.436
29308WAT     H288167   2.151   9.524   2.569
29309WAT      O88168   8.840   4.342   7.829
29309WAT     H188169   8.789   4.344   7.743
29309WAT     H288170   8.780   4.311   7.902
29310WAT      O88171   8.211   2.389   6.231
29310WAT     H188172   8.132   2.423   6.281
29310WAT     H288173   8.196   2.294   6.204
29311WAT      O88174   0.611   2.315   9.348
29311WAT     H188175   0.577   2.406   9.323
29311WAT     H288176   0.710   2.313   9.340
29312WAT      O88177   3.580   6.573   6.083
29312WAT     H188178   3.554   6.642   6.015
29312WAT     H288179   3.678   6.580   6.101
29313WAT      O88180   2.468   8.768   2.054
29313WAT     H188181   2.441   8.726   2.141
29313WAT     H288182   2.540   8.835   2.072
29314WAT      O88183   7.203   0.377   8.843
29314WAT     H188184   7.200   0.455   8.781
29314WAT     H288185   7.189   0.292   8.791
29315WAT      O88186   0.726   0.116   6.762
29315WAT     H188187   0.717   0.137   6.860
29315WAT     H288188   0.815   0.074   6.745
29316WAT      O88189   5.441   2.787   8.159
29316WAT     H188190   5.428   2.813   8.063
29316WAT     H288191   5.352   2.772   8.202
29317WAT      O88192   1.118   4.660   6.108
29317WAT     H188193   1.112   4.695   6.014
29317WAT     H288194   1.136   4.562   6.106
29318WAT      O88195   2.104   4.733   2.454
29318WAT     H188196   2.087   4.683   2.369
29318WAT     H288197   2.177   4.800   2.440
29319WAT      O88198   2.140   5.954   4.931
29319WAT     H188199   2.102   6.047   4.925
29319WAT     H288200   2.224   5.955   4.985
29320WAT      O88201   0.110   5.590   4.600
29320WAT     H188202   0.136   5.503   4.641
29320WAT     H288203   0.144   5.594   4.506
29321WAT      O88204   4.570   1.925   5.088
29321WAT     H188205   4.579   1.885   5.180
29321WAT     H288206   4.656   1.971   5.064
29322WAT      O88207   3.402   6.738   9.405
29322WAT     H188208   3.385   6.689   9.320
29322WAT     H288209   3.358   6.828   9.401
29323WAT      O88210   7.218   0.592   8.682
29323WAT     H188211   7.243   0.563   8.590
29323WAT     H288212   7.295   0.639   8.724
29324WAT      O88213   8.123   8.104   8.333
29324WAT     H188214   8.217   8.124   8.307
29324WAT     H288215   8.063   8.177   8.301
29325WAT      O88216   1.180   5.472   7.255
29325WAT     H188217   1.094   5.460   7.305
29325WAT     H288218   1.195   5.394   7.195
29326WAT      O88219   0.409   2.820   0.396
29326WAT     H188220   0.310   2.829   0.386
29326WAT     H288221   0.440   2.736   0.350
29327WAT      O88222   8.375   4.194   1.881
29327WAT     H188223   8.325   4.235   1.957
29327WAT     H288224   8.388   4.097   1.898
29328WAT      O88225   8.870   9.077   3.646
29328WAT     H188226   8.833   9.167   3.625
29328WAT     H288227   8.808   9.029   3.708
29329WAT      O88228   9.764   7.105   1.160
29329WAT     H188229   9.765   7.180   1.226
29329WAT     H288230   9.822   7.129   1.082
29330WAT      O88231   0.136   9.206   5.080
29330WAT     H188232   0.077   9.239   5.154
29330WAT     H288233   0.112   9.112   5.058
29331WAT      O88234   1.790   8.948   5.796
29331WAT     H188235   1.695   8.951   5.827
29331WAT     H288236   1.802   8.874   5.731
29332WAT      O88237   7.662   1.495   5.622
29332WAT     H188238   7.728   1.531   5.689
29332WAT     H288239   7.648   1.398   5.640
29333WAT      O88240   4.312   5.369   5.006
29333WAT     H188241   4.351   5.455   4.973
29333WAT     H288242   4.290   5.378   5.103
29334WAT      O88243   2.237   2.190   3.029
29334WAT     H188244   2.335   2.205   3.030
29334WAT     H288245   2.216   2.101   3.071
29335WAT      O88246   2.681   9.796   8.780
29335WAT     H188247   2.688   9.876   8.720
29335WAT     H288248   2.605   9.738   8.749
29336WAT      O88249   9.404   2.752   0.392
29336WAT     H188250   9.470   2.690   0.349
29336WAT     H288251   9.444   2.793   0.473
29337WAT      O88252   0.526   9.201   3.641
29337WAT     H188253   0.554   9.295   3.623
29337WAT     H288254   0.600   9.151   3.686
29338WAT      O88255   7.175   1.355   7.298
29338WAT     H188256   7.127   1.283   7.349
29338WAT     H288257   7.110   1.398   7.235
29339WAT      O88258   4.288   9.841   2.156
29339WAT     H188259   4.319   9.826   2.061
29339WAT     H288260   4.193   9.812   2.164
29340WAT      O88261   0.873   5.125   4.793
29340WAT     H188262   0.913   5.109   4.883
29340WAT     H288263   0.774   5.129   4.801
29341WAT      O88264   8.459   9.357   9.688
29341WAT     H188265   8.428   9.335   9.780
29341WAT     H288266   8.382   9.389   9.633
29342WAT      O88267   2.323   4.268   0.095
29342WAT     H188268   2.290   4.206   0.167
29342WAT     H288269   2.274   4.355   0.101
29343WAT      O88270   0.168   1.314   3.303
29343WAT     H188271   0.122   1.228   3.279
29343WAT     H288272   0.116   1.361   3.375
29344WAT      O88273   9.524   7.816   6.932
29344WAT     H188274   9.435   7.850   6.963
29344WAT     H288275   9.567   7.884   6.874
29345WAT      O88276   7.324   3.256   0.122
29345WAT     H188277   7.260   3.318   0.168
29345WAT     H288278   7.389   3.220   0.189
29346WAT      O88279   4.360   3.154   6.024
29346WAT     H188280   4.389   3.092   6.096
29346WAT     H288281   4.261   3.147   6.012
29347WAT      O88282   5.091   5.552   8.013
29347WAT     H188283   5.080   5.624   8.081
29347WAT     H288284   5.157   5.484   8.046
29348WAT      O88285   8.538   3.819   4.712
29348WAT     H188286   8.622   3.771   4.738
29348WAT     H288287   8.543   3.844   4.615
29349WAT      O88288   7.879   4.983   9.881
29349WAT     H188289   7.947   5.015   9.815
29349WAT     H288290   7.885   4.883   9.889
29350WAT      O88291   5.559   0.495   6.099
29350WAT     H188292   5.588   0.431   6.170
29350WAT     H288293   5.570   0.589   6.132
29351WAT      O88294   3.244   9.797   6.272
29351WAT     H188295   3.176   9.836   6.333
29351WAT     H288296   3.300   9.870   6.233
29352WAT      O88297   2.464   5.668   7.592
29352WAT     H188298   2.419   5.653   7.505
29352WAT     H288299   2.559   5.695   7.577
29353WAT      O88300   1.803   1.087   3.158
29353WAT     H188301   1.710   1.062   3.183
29353WAT     H288302   1.813   1.084   3.058
29354WAT      O88303   0.104   2.852   0.473
29354WAT     H188304   0.045   2.829   0.550
29354WAT     H288305   0.058   2.829   0.387
29355WAT      O88306   9.848   8.525   6.404
29355WAT     H188307   9.920   8.530   6.473
29355WAT     H288308   9.761   8.555   6.445
29356WAT      O88309   0.810   2.385   9.814
29356WAT     H188310   0.892   2.348   9.858
29356WAT     H288311   0.749   2.310   9.788
29357WAT      O88312   9.058   3.453   7.335
29357WAT     H188313   8.996   3.464   7.257
29357WAT     H288314   9.005   3.453   7.419
29358WAT      O88315   6.316   3.566   0.080
29358WAT     H188316   6.352   3.576  -0.013
29358WAT     H288317   6.375   3.612   0.145
29359WAT      O88318   6.314   1.048   4.730
29359WAT     H188319   6.361   1.136   4.719
29359WAT     H288320   6.309   1.002   4.642
29360WAT      O88321   8.322   4.157   2.980
29360WAT     H188322   8.240   4.160   3.037
29360WAT     H288323   8.403   4.164   3.038
29361WAT      O88324   1.419   8.122   6.591
29361WAT     H188325   1.486   8.169   6.649
29361WAT     H288326   1.383   8.042   6.639
29362WAT      O88327   6.061   5.748   9.521
29362WAT     H188328   5.982   5.808   9.517
29362WAT     H288329   6.092   5.740   9.615
29363WAT      O88330   0.139   2.189   5.059
29363WAT     H188331   0.181   2.276   5.084
29363WAT     H288332   0.096   2.148   5.140
29364WAT      O88333   7.411   3.553   9.819
29364WAT     H188334   7.445   3.639   9.782
29364WAT     H288335   7.346   3.512   9.755
29365WAT      O88336   7.734   4.950   7.858
29365WAT     H188337   7.710   4.913   7.768
29365WAT     H288338   7.722   5.050   7.856
29366WAT      O88339   9.632   5.515   2.498
29366WAT     H188340   9.584   5.582   2.555
29366WAT     H288341   9.724   5.501   2.533
29367WAT      O88342   5.861   1.982   2.432
29367WAT     H188343   5.835   2.041   2.356
29367WAT     H288344   5.959   1.988   2.447
29368WAT      O88345   6.007   1.333   3.174
29368WAT     H188346   6.059   1.266   3.229
29368WAT     H288347   5.923   1.290   3.142
29369WAT      O88348   6.967   2.753   1.646
29369WAT     H188349   6.998   2.682   1.710
29369WAT     H288350   6.874   2.733   1.617
29370WAT      O88351   3.786   1.064   8.572
29370WAT     H188352   3.762   1.018   8.487
29370WAT     H288353   3.849   1.139   8.554
29371WAT      O88354   1.978   0.198   2.877
29371WAT     H188355   1.920   0.116   2.875
29371WAT     H288356   2.059   0.183   2.820
29372WAT      O88357   5.180   3.204   2.824
29372WAT     H188358   5.280   3.206   2.825
29372WAT     H288359   5.149   3.138   2.755
29373WAT      O88360   1.646   5.237   1.333
29373WAT     H188361   1.674   5.286   1.415
29373WAT     H288362   1.680   5.286   1.252
29374WAT      O88363   4.664   1.090   6.219
29374WAT     H188364   4.633   1.127   6.132
29374WAT     H288365   4.731   1.017   6.202
29375WAT      O88366   0.653   6.905   8.636
29375WAT     H188367   0.556   6.885   8.623
29375WAT     H288368   0.680   6.982   8.580
29376WAT      O88369   7.649   0.570   0.816
29376WAT     H188370   7.741   0.608   0.802
29376WAT     H288371   7.581   0.643   0.804
29377WAT      O88372   5.517   3.244   6.424
29377WAT     H188373   5.471   3.162   6.388
29377WAT     H288374   5.612   3.245   6.393
29378WAT      O88375   0.496   8.579   7.071
29378WAT     H188376   0.580   8.607   7.025
29378WAT     H288377   0.518   8.550   7.164
29379WAT      O88378   2.263   4.529   1.020
29379WAT     H188379   2.250   4.498   1.115
29379WAT     H288380   2.192   4.596   0.997
29380WAT      O88381   2.626   9.822   7.508
29380WAT     H188382   2.687   9.871   7.445
29380WAT     H288383   2.597   9.736   7.466
29381WAT      O88384   6.016   8.691   5.742
29381WAT     H188385   6.024   8.681   5.841
29381WAT     H288386   6.025   8.787   5.717
29382WAT      O88387   7.458   8.418   7.403
29382WAT     H188388   7.516   8.356   7.456
29382WAT     H288389   7.488   8.420   7.308
29383WAT      O88390   1.585   0.218   6.382
29383WAT     H188391   1.511   0.285   6.390
29383WAT     H288392   1.596   0.191   6.287
29384WAT      O88393   1.983   9.764   0.390
29384WAT     H188394   2.077   9.731   0.398
29384WAT     H288395   1.984   9.862   0.371
29385WAT      O88396   9.203   3.377   5.258
29385WAT     H188397   9.129   3.444   5.267
29385WAT     H288398   9.227   3.341   5.348
29386WAT      O88399   3.466   7.317   6.313
29386WAT     H188400   3.369   7.324   6.292
29386WAT     H288401   3.492   7.220   6.319
29387WAT      O88402   5.016   6.371   7.425
29387WAT     H188403   4.941   6.437   7.427
29387WAT     H288404   5.061   6.375   7.336
29388WAT      O88405   9.108   8.403   7.059
29388WAT     H188406   9.089   8.322   7.003
29388WAT     H288407   9.146   8.374   7.147
29389WAT      O88408   3.231   2.601   7.494
29389WAT     H188409   3.213   2.513   7.538
29389WAT     H288410   3.160   2.666   7.521
29390WAT      O88411   0.904   3.088   8.041
29390WAT     H188412   0.916   3.005   8.096
29390WAT     H288413   0.975   3.154   8.065
29391WAT      O88414   5.371   5.309   6.888
29391WAT     H188415   5.442   5.298   6.957
29391WAT     H288416   5.344   5.219   6.852
29392WAT      O88417   9.861   4.790   5.081
29392WAT     H188418   9.956   4.819   5.095
29392WAT     H288419   9.853   4.693   5.103
29393WAT      O88420   0.147   6.244   1.546
29393WAT     H188421   0.104   6.191   1.472
29393WAT     H288422   0.100   6.332   1.555
29394WAT      O88423   3.187   2.441   4.808
29394WAT     H188424   3.145   2.392   4.731
29394WAT     H288425   3.136   2.526   4.824
29395WAT      O88426   2.452   8.590   0.075
29395WAT     H188427   2.494   8.558   0.159
29395WAT     H288428   2.481   8.684   0.057
29396WAT      O88429   6.744   1.368   2.689
29396WAT     H188430   6.759   1.299   2.760
29396WAT     H288431   6.662   1.345   2.637
29397WAT      O88432   0.021   6.528   2.813
29397WAT     H188433   0.084   6.583   2.757
29397WAT     H288434  -0.043   6.479   2.753
29398WAT      O88435   5.663   0.360   0.970
29398WAT     H188436   5.629   0.428   0.905
29398WAT     H288437   5.589   0.333   1.032
29399WAT      O88438   9.525   3.697   2.291
29399WAT     H188439   9.605   3.643   2.319
29399WAT     H288440   9.451   3.636   2.264
29400WAT      O88441   6.721   1.325   3.284
29400WAT     H188442   6.692   1.261   3.355
29400WAT     H288443   6.651   1.395   3.271
29401WAT      O88444   9.277   7.212   2.426
29401WAT     H188445   9.186   7.184   2.458
29401WAT     H288446   9.329   7.250   2.502
29402WAT      O88447   7.256   1.913   9.871
29402WAT     H188448   7.274   1.841   9.937
29402WAT     H288449   7.295   1.999   9.904
29403WAT      O88450   1.842   8.750   2.416
29403WAT     H188451   1.931   8.717   2.445
29403WAT     H288452   1.821   8.716   2.325
29404WAT      O88453   9.059   0.046   4.903
29404WAT     H188454   9.153   0.072   4.878
29404WAT     H288455   9.049   0.050   5.003
29405WAT      O88456   5.581   2.275   4.261
29405WAT     H188457   5.603   2.296   4.166
29405WAT     H288458   5.528   2.190   4.266
29406WAT      O88459   6.742   3.272   9.167
29406WAT     H188460   6.677   3.290   9.093
29406WAT     H288461   6.696   3.224   9.242
29407WAT      O88462   7.032   0.059   5.841
29407WAT     H188463   7.132   0.055   5.839
29407WAT     H288464   6.998   0.012   5.922
29408WAT      O88465   0.543   2.125   5.218
29408WAT     H188466   0.510   2.184   5.145
29408WAT     H288467   0.607   2.176   5.276
29409WAT      O88468   9.572   3.941   2.210
29409WAT     H188469   9.489   3.995   2.225
29409WAT     H288470   9.553   3.845   2.230
29410WAT      O88471   3.756   0.682   3.687
29410WAT     H188472   3.687   0.658   3.619
29410WAT     H288473   3.776   0.600   3.742
29411WAT      O88474   2.644   6.101   7.894
29411WAT     H188475   2.649   6.147   7.983
29411WAT     H288476   2.552   6.064   7.882
29412WAT      O88477   0.403   5.234   2.502
29412WAT     H188478   0.390   5.239   2.601
29412WAT     H288479   0.463   5.309   2.473
29413WAT      O88480   5.950   8.744   0.822
29413WAT     H188481   5.901   8.687   0.755
29413WAT     H288482   5.916   8.723   0.914
29414WAT      O88483   9.599   9.538   7.582
29414WAT     H188484   9.563   9.447   7.597
29414WAT     H288485   9.553   9.580   7.503
29415WAT      O88486   2.456   5.743   1.513
29415WAT     H188487   2.473   5.666   1.575
29415WAT     H288488   2.384   5.718   1.449
29416WAT      O88489   8.952   0.054   4.371
29416WAT     H188490   9.008   0.014   4.443
29416WAT     H288491   8.975   0.151   4.360
29417WAT      O88492   6.162   2.038   5.868
29417WAT     H188493   6.179   1.943   5.894
29417WAT     H288494   6.107   2.041   5.785
29418WAT      O88495   2.063   4.811   8.273
29418WAT     H188496   2.148   4.779   8.315
29418WAT     H288497   1.986   4.781   8.329
29419WAT      O88498   6.833   5.180   3.300
29419WAT     H188499   6.825   5.200   3.202
29419WAT     H288500   6.834   5.081   3.314
29420WAT      O88501   4.618   9.103   7.583
29420WAT     H188502   4.560   9.181   7.603
29420WAT     H288503   4.561   9.021   7.575
29421WAT      O88504   3.300   4.975   0.573
29421WAT     H188505   3.255   5.064   0.564
29421WAT     H288506   3.255   4.922   0.645
29422WAT      O88507   4.582   6.703   8.683
29422WAT     H188508   4.585   6.715   8.583
29422WAT     H288509   4.526   6.775   8.723
29423WAT      O88510   7.593   1.367   9.434
29423WAT     H188511   7.548   1.339   9.519
29423WAT     H288512   7.556   1.314   9.358
29424WAT      O88513   5.615   5.442   9.480
29424WAT     H188514   5.692   5.380   9.461
29424WAT     H288515   5.550   5.397   9.542
29425WAT      O88516   6.851   2.004   1.782
29425WAT     H188517   6.803   1.918   1.797
29425WAT     H288518   6.860   2.021   1.684
29426WAT      O88519   2.191   5.326   5.785
29426WAT     H188520   2.101   5.283   5.781
29426WAT     H288521   2.256   5.264   5.829
29427WAT      O88522   1.575   4.714   2.855
29427WAT     H188523   1.580   4.727   2.756
29427WAT     H288524   1.522   4.632   2.875
29428WAT      O88525   1.561   8.864   9.074
29428WAT     H188526   1.569   8.947   9.130
29428WAT     H288527   1.464   8.839   9.067
29429WAT      O88528   0.704   6.183   3.442
29429WAT     H188529   0.786   6.148   3.488
29429WAT     H288530   0.671   6.114   3.377
29430WAT      O88531   7.015   5.843   2.684
29430WAT     H188532   6.949   5.911   2.652
29430WAT     H288533   7.105   5.862   2.642
29431WAT      O88534   0.704   4.495   0.296
29431WAT     H188535   0.704   4.500   0.396
29431WAT     H288536   0.651   4.416   0.266
29432WAT      O88537   9.832   6.362   8.430
29432WAT     H188538   9.847   6.267   8.402
29432WAT     H288539   9.831   6.421   8.350
29433WAT      O88540   3.816   4.793   9.886
29433WAT     H188541   3.822   4.831   9.978
29433WAT     H288542   3.733   4.738   9.878
29434WAT      O88543   3.209   7.015   8.480
29434WAT     H188544   3.150   6.934   8.476
29434WAT     H288545   3.153   7.098   8.474
29435WAT      O88546   5.185   3.019   1.180
29435WAT     H188547   5.227   3.107   1.200
29435WAT     H288548   5.161   2.973   1.266
29436WAT      O88549   9.182   6.645   5.917
29436WAT     H188550   9.146   6.562   5.959
29436WAT     H288551   9.132   6.666   5.833
29437WAT      O88552   6.338   4.035   1.298
29437WAT     H188553   6.422   4.016   1.246
29437WAT     H288554   6.299   4.122   1.266
29438WAT      O88555   5.691   5.452   0.895
29438WAT     H188556   5.656   5.432   0.804
29438WAT     H288557   5.716   5.367   0.942
29439WAT      O88558   9.416   3.899   5.449
29439WAT     H188559   9.341   3.958   5.478
29439WAT     H288560   9.414   3.813   5.501
29440WAT      O88561   6.537   1.524   3.265
29440WAT     H188562   6.442   1.492   3.267
29440WAT     H288563   6.558   1.571   3.351
29441WAT      O88564   5.244   9.238   3.607
29441WAT     H188565   5.230   9.168   3.537
29441WAT     H288566   5.247   9.196   3.697
29442WAT      O88567   6.064   4.069   0.600
29442WAT     H188568   5.983   4.011   0.593
29442WAT     H288569   6.089   4.081   0.696
29443WAT      O88570   3.774   9.225   1.678
29443WAT     H188571   3.742   9.150   1.736
29443WAT     H288572   3.843   9.278   1.727
29444WAT      O88573   5.082   6.473   3.530
29444WAT     H188574   5.036   6.470   3.442
29444WAT     H288575   5.171   6.428   3.523
29445WAT      O88576   4.723   4.203   0.028
29445WAT     H188577   4.749   4.238   0.118
29445WAT     H288578   4.670   4.119   0.040
29446WAT      O88579   0.947   7.652   5.813
29446WAT     H188580   0.913   7.582   5.876
29446WAT     H288581   0.969   7.610   5.725
29447WAT      O88582   2.372   4.354   7.986
29447WAT     H188583   2.287   4.374   8.036
29447WAT     H288584   2.437   4.428   7.999
29448WAT      O88585   6.568   8.606   9.871
29448WAT     H188586   6.570   8.608   9.771
29448WAT     H288587   6.556   8.511   9.902
29449WAT      O88588   3.820   6.427   3.775
29449WAT     H188589   3.725   6.453   3.762
29449WAT     H288590   3.830   6.329   3.760
29450WAT      O88591   9.631   2.005   6.682
29450WAT     H188592   9.553   2.046   6.730
29450WAT     H288593   9.600   1.963   6.597
29451WAT      O88594   2.907   8.402   5.353
29451WAT     H188595   2.963   8.458   5.414
29451WAT     H288596   2.898   8.310   5.391
29452WAT      O88597   4.871   8.839   5.597
29452WAT     H188598   4.923   8.916   5.558
29452WAT     H288599   4.931   8.784   5.654
29453WAT      O88600   4.606   4.386   1.500
29453WAT     H188601   4.553   4.452   1.553
29453WAT     H288602   4.574   4.293   1.521
29454WAT      O88603   8.861   1.458   9.532
29454WAT     H188604   8.810   1.377   9.505
29454WAT     H288605   8.840   1.480   9.628
29455WAT      O88606   3.647   5.358   9.493
29455WAT     H188607   3.659   5.289   9.421
29455WAT     H288608   3.552   5.358   9.524
29456WAT      O88609   5.125   2.568   6.154
29456WAT     H188610   5.104   2.636   6.225
29456WAT     H288611   5.191   2.502   6.190
29457WAT      O88612   8.461   5.636   6.207
29457WAT     H188613   8.507   5.724   6.218
29457WAT     H288614   8.490   5.594   6.121
29458WAT      O88615   6.477   9.148   6.174
29458WAT     H188616   6.498   9.235   6.129
29458WAT     H288617   6.461   9.164   6.271
29459WAT      O88618   9.516   2.868   0.607
29459WAT     H188619   9.455   2.896   0.681
29459WAT     H288620   9.606   2.845   0.645
29460WAT      O88621   3.379   3.988   2.444
29460WAT     H188622   3.421   3.925   2.509
29460WAT     H288623   3.280   3.990   2.458
29461WAT      O88624   1.753   2.925   2.997
29461WAT     H188625   1.755   2.851   2.930
29461WAT     H288626   1.835   2.983   2.985
29462WAT      O88627   7.645   5.405   6.241
29462WAT     H188628   7.552   5.408   6.276
29462WAT     H288629   7.672   5.497   6.212
29463WAT      O88630   7.379   9.208   9.206
29463WAT     H188631   7.332   9.131   9.249
29463WAT     H288632   7.379   9.196   9.106
29464WAT      O88633   8.290   7.599   4.834
29464WAT     H188634   8.333   7.576   4.921
29464WAT     H288635   8.191   7.587   4.841
29465WAT      O88636   4.186   8.325   2.172
29465WAT     H188637   4.272   8.372   2.196
29465WAT     H288638   4.198   8.277   2.085
29466WAT      O88639   7.866   7.914   8.697
29466WAT     H188640   7.920   7.838   8.731
29466WAT     H288641   7.921   7.970   8.635
29467WAT      O88642   4.468   9.798   9.509
29467WAT     H188643   4.466   9.788   9.608
29467WAT     H288644   4.494   9.892   9.486
29468WAT      O88645   7.211   3.756   7.859
29468WAT     H188646   7.160   3.694   7.799
29468WAT     H288647   7.247   3.833   7.805
29469WAT      O88648   9.413   6.727   0.202
29469WAT     H188649   9.432   6.822   0.178
29469WAT     H288650   9.495   6.685   0.241
29470WAT      O88651   4.308   8.996   8.985
29470WAT     H188652   4.355   9.059   9.046
29470WAT     H288653   4.285   9.043   8.900
29471WAT      O88654   7.404   3.718   3.776
29471WAT     H188655   7.432   3.769   3.694
29471WAT     H288656   7.382   3.624   3.750
29472WAT      O88657   9.462   0.172   0.885
29472WAT     H188658   9.521   0.129   0.953
29472WAT     H288659   9.517   0.203   0.807
29473WAT      O88660   0.010   6.742   3.383
29473WAT     H188661  -0.065   6.803   3.410
29473WAT     H288662   0.058   6.782   3.305
29474WAT      O88663   8.442   0.465   1.103
29474WAT     H188664   8.354   0.512   1.112
29474WAT     H288665   8.446   0.416   1.016
29475WAT      O88666   0.801   2.753   4.905
29475WAT     H188667   0.752   2.799   4.831
29475WAT     H288668   0.735   2.703   4.961
29476WAT      O88669   7.264   4.512   5.481
29476WAT     H188670   7.349   4.527   5.530
29476WAT     H288671   7.284   4.492   5.385
29477WAT      O88672   6.790   1.359   5.839
29477WAT     H188673   6.826   1.303   5.764
29477WAT     H288674   6.782   1.454   5.809
29478WAT      O88675   1.276   9.352   2.421
29478WAT     H188676   1.343   9.357   2.347
29478WAT     H288677   1.184   9.355   2.383
29479WAT      O88678   7.493   6.645   0.424
29479WAT     H188679   7.415   6.707   0.431
29479WAT     H288680   7.510   6.603   0.513
29480WAT      O88681   6.945   5.241   0.323
29480WAT     H188682   6.883   5.315   0.349
29480WAT     H288683   7.001   5.271   0.246
29481WAT      O88684   4.226   2.692   0.102
29481WAT     H188685   4.203   2.599   0.073
29481WAT     H288686   4.311   2.690   0.156
29482WAT      O88687   7.482   0.534   9.834
29482WAT     H188688   7.401   0.475   9.828
29482WAT     H288689   7.460   0.624   9.794
29483WAT      O88690   3.768   6.807   5.294
29483WAT     H188691   3.775   6.724   5.350
29483WAT     H288692   3.858   6.847   5.281
29484WAT      O88693   5.987   0.617   6.074
29484WAT     H188694   6.027   0.675   6.145
29484WAT     H288695   5.908   0.664   6.034
29485WAT      O88696   1.332   4.293   2.663
29485WAT     H188697   1.406   4.342   2.617
29485WAT     H288698   1.244   4.333   2.638
29486WAT      O88699   6.143   4.117   8.797
29486WAT     H188700   6.168   4.097   8.703
29486WAT     H288701   6.045   4.101   8.810
29487WAT      O88702   6.645   2.321   2.497
29487WAT     H188703   6.734   2.365   2.507
29487WAT     H288704   6.593   2.331   2.582
29488WAT      O88705   0.335   0.670   4.688
29488WAT     H188706   0.309   0.593   4.746
29488WAT     H288707   0.339   0.640   4.593
29489WAT      O88708   3.073   5.270   7.942
29489WAT     H188709   3.135   5.320   8.002
29489WAT     H288710   2.988   5.250   7.991
29490WAT      O88711   2.075   1.171   0.515
29490WAT     H188712   2.011   1.102   0.481
29490WAT     H288713   2.075   1.170   0.615
29491WAT      O88714   4.483   3.643   0.026
29491WAT     H188715   4.431   3.564  -0.006
29491WAT     H288716   4.428   3.697   0.089
29492WAT      O88717   9.529   2.727   3.799
29492WAT     H188718   9.577   2.671   3.732
29492WAT     H288719   9.455   2.674   3.840
29493WAT      O88720   4.190   9.277   4.574
29493WAT     H188721   4.207   9.198   4.514
29493WAT     H288722   4.167   9.245   4.666
29494WAT      O88723   9.458   7.228   3.891
29494WAT     H188724   9.361   7.246   3.902
29494WAT     H288725   9.478   7.208   3.794
29495WAT      O88726   5.409   8.253   7.393
29495WAT     H188727   5.375   8.347   7.399
29495WAT     H288728   5.361   8.204   7.320
29496WAT      O88729   7.042   3.669   0.308
29496WAT     H188730   6.965   3.702   0.363
29496WAT     H288731   7.074   3.742   0.248
29497WAT      O88732   2.555   5.805   5.246
29497WAT     H188733   2.518   5.890   5.283
29497WAT     H288734   2.655   5.806   5.253
29498WAT      O88735   3.127   6.701   8.131
29498WAT     H188736   3.069   6.705   8.213
29498WAT     H288737   3.184   6.783   8.126
29499WAT      O88738   1.694   6.923   6.912
29499WAT     H188739   1.730   6.883   6.996
29499WAT     H288740   1.729   6.873   6.833
29500WAT      O88741   4.231   7.514   0.652
29500WAT     H188742   4.280   7.524   0.566
29500WAT     H288743   4.132   7.519   0.635
29501WAT      O88744   1.898   8.545   0.645
29501WAT     H188745   1.819   8.496   0.606
29501WAT     H288746   1.875   8.642   0.654
29502WAT      O88747   0.952   8.010   6.749
29502WAT     H188748   0.859   7.991   6.781
29502WAT     H288749   0.959   8.107   6.723
29503WAT      O88750   3.939   2.975   4.813
29503WAT     H188751   3.862   2.951   4.872
29503WAT     H288752   3.916   3.056   4.759
29504WAT      O88753   2.811   0.287   7.985
29504WAT     H188754   2.869   0.253   7.911
29504WAT     H288755   2.868   0.314   8.062
29505WAT      O88756   7.543   6.475   9.852
29505WAT     H188757   7.611   6.405   9.835
29505WAT     H288758   7.481   6.481   9.773
29506WAT      O88759   1.685   4.115   1.771
29506WAT     H188760   1.780   4.085   1.756
29506WAT     H288761   1.685   4.203   1.819
29507WAT      O88762   4.012   5.773   5.538
29507WAT     H188763   4.005   5.829   5.455
29507WAT     H288764   4.097   5.719   5.535
29508WAT      O88765   1.434   4.623   4.972
29508WAT     H188766   1.428   4.672   5.059
29508WAT     H288767   1.346   4.626   4.925
29509WAT      O88768   0.114   1.953   2.961
29509WAT     H188769   0.155   1.862   2.965
29509WAT     H288770   0.055   1.966   3.040
29510WAT      O88771   3.220   9.419   9.522
29510WAT     H188772   3.181   9.329   9.503
29510WAT     H288773   3.198   9.447   9.615
29511WAT      O88774   8.292   6.627   1.661
29511WAT     H188775   8.364   6.696   1.654
29511WAT     H288776   8.325   6.540   1.624
29512WAT      O88777   2.771   2.751   7.961
29512WAT     H188778   2.746   2.712   7.872
29512WAT     H288779   2.688   2.776   8.011
29513WAT      O88780   8.760   0.932   3.996
29513WAT     H188781   8.680   0.983   4.027
29513WAT     H288782   8.843   0.974   4.035
29514WAT      O88783   8.350   8.283   0.766
29514WAT     H188784   8.339   8.382   0.755
29514WAT     H288785   8.442   8.257   0.739
29515WAT      O88786   6.936   9.736   9.828
29515WAT     H188787   7.001   9.675   9.781
29515WAT     H288788   6.873   9.681   9.882
29516WAT      O88789   7.380   8.102   6.100
29516WAT     H188790   7.314   8.114   6.026
29516WAT     H288791   7.472   8.120   6.066
29517WAT      O88792   6.066   8.586   2.923
29517WAT     H188793   6.044   8.592   3.021
29517WAT     H288794   5.990   8.624   2.870
29518WAT      O88795   1.264   7.746   9.294
29518WAT     H188796   1.242   7.744   9.391
29518WAT     H288797   1.356   7.784   9.282
29519WAT      O88798   3.214   6.996   3.522
29519WAT     H188799   3.145   7.063   3.550
29519WAT     H288800   3.297   7.009   3.576
29520WAT      O88801   1.865   7.087   4.898
29520WAT     H188802   1.892   6.995   4.926
29520WAT     H288803   1.947   7.144   4.887
29521WAT      O88804   5.719   8.476   9.102
29521WAT     H188805   5.808   8.493   9.061
29521WAT     H288806   5.700   8.545   9.171
29522WAT      O88807   8.244   1.719   3.438
29522WAT     H188808   8.284   1.662   3.366
29522WAT     H288809   8.146   1.725   3.425
29523WAT      O88810   2.920   4.150   1.354
29523WAT     H188811   2.918   4.233   1.410
29523WAT     H288812   2.883   4.074   1.407
29524WAT      O88813   6.386   3.191   1.271
29524WAT     H188814   6.428   3.281   1.283
29524WAT     H288815   6.437   3.123   1.323
29525WAT      O88816   4.845   3.016   1.309
29525WAT     H188817   4.921   2.951   1.310
29525WAT     H288818   4.773   2.984   1.371
29526WAT      O88819   9.284   9.145   4.077
29526WAT     H188820   9.257   9.069   4.018
29526WAT     H288821   9.207   9.169   4.137
29527WAT      O88822   3.467   3.886   3.919
29527WAT     H188823   3.379   3.918   3.883
29527WAT     H288824   3.457   3.791   3.949
29528WAT      O88825   1.497   5.947   0.481
29528WAT     H188826   1.498   5.936   0.381
29528WAT     H288827   1.428   6.014   0.507
29529WAT      O88828   6.813   2.585   0.976
29529WAT     H188829   6.784   2.495   1.009
29529WAT     H288830   6.912   2.584   0.960
29530WAT      O88831   4.951   3.256   8.435
29530WAT     H188832   4.880   3.186   8.440
29530WAT     H288833   5.037   3.219   8.470
29531WAT      O88834   8.610   3.935   8.117
29531WAT     H188835   8.523   3.911   8.073
29531WAT     H288836   8.686   3.900   8.062
29532WAT      O88837   8.883   9.143   5.000
29532WAT     H188838   8.866   9.238   4.976
29532WAT     H288839   8.796   9.096   5.017
29533WAT      O88840   7.504   5.405   0.444
29533WAT     H188841   7.475   5.490   0.399
29533WAT     H288842   7.424   5.348   0.463
29534WAT      O88843   7.331   3.894   6.351
29534WAT     H188844   7.333   3.876   6.253
29534WAT     H288845   7.317   3.992   6.366
29535WAT      O88846   5.938   6.796   4.115
29535WAT     H188847   5.915   6.702   4.090
29535WAT     H288848   6.037   6.808   4.116
29536WAT      O88849   9.832   1.628   5.384
29536WAT     H188850   9.759   1.592   5.442
29536WAT     H288851   9.850   1.564   5.309
29537WAT      O88852   3.655   9.316   2.641
29537WAT     H188853   3.723   9.357   2.700
29537WAT     H288854   3.626   9.228   2.679
29538WAT      O88855   0.040   5.702   8.588
29538WAT     H188856   0.087   5.637   8.648
29538WAT     H288857  -0.043   5.660   8.552
29539WAT      O88858   1.724   1.706   5.890
29539WAT     H188859   1.656   1.635   5.908
29539WAT     H288860   1.681   1.784   5.845
29540WAT      O88861   1.563   0.736   4.043
29540WAT     H188862   1.538   0.800   4.115
29540WAT     H288863   1.625   0.781   3.979
29541WAT      O88864   5.288   0.912   2.727
29541WAT     H188865   5.242   0.918   2.816
29541WAT     H288866   5.375   0.961   2.731
29542WAT      O88867   4.850   5.392   6.162
29542WAT     H188868   4.761   5.424   6.130
29542WAT     H288869   4.916   5.398   6.087
29543WAT      O88870   0.758   0.701   1.837
29543WAT     H188871   0.728   0.636   1.906
29543WAT     H288872   0.851   0.679   1.809
29544WAT      O88873   1.969   8.279   1.731
29544WAT     H188874   2.032   8.270   1.654
29544WAT     H288875   2.010   8.335   1.802
29545WAT      O88876   9.515   7.973   7.976
29545WAT     H188877   9.594   8.036   7.980
29545WAT     H288878   9.464   7.979   8.062
29546WAT      O88879   7.024   6.003   5.937
29546WAT     H188880   6.929   6.034   5.936
29546WAT     H288881   7.031   5.919   5.990
29547WAT      O88882   4.758   0.913   2.473
29547WAT     H188883   4.698   0.856   2.416
29547WAT     H288884   4.703   0.966   2.537
29548WAT      O88885   3.583   6.531   0.326
29548WAT     H188886   3.522   6.493   0.257
29548WAT     H288887   3.562   6.628   0.339
29549WAT      O88888   9.175   1.814   5.967
29549WAT     H188889   9.224   1.832   5.882
29549WAT     H288890   9.236   1.832   6.045
29550WAT      O88891   0.619   0.561   0.029
29550WAT     H188892   0.549   0.626   0.059
29550WAT     H288893   0.634   0.571  -0.069
29551WAT      O88894   8.598   5.353   3.242
29551WAT     H188895   8.681   5.298   3.254
29551WAT     H288896   8.534   5.331   3.316
29552WAT      O88897   6.621   2.019   5.156
29552WAT     H188898   6.689   2.033   5.084
29552WAT     H288899   6.530   2.036   5.120
29553WAT      O88900   9.883   7.753   6.681
29553WAT     H188901   9.799   7.705   6.708
29553WAT     H288902   9.864   7.850   6.668
29554WAT      O88903   1.679   8.152   2.817
29554WAT     H188904   1.711   8.180   2.726
29554WAT     H288905   1.619   8.072   2.808
29555WAT      O88906   8.221   3.996   2.597
29555WAT     H188907   8.259   3.967   2.685
29555WAT     H288908   8.253   4.088   2.575
29556WAT      O88909   4.578   8.912   3.141
29556WAT     H188910   4.615   8.837   3.195
29556WAT     H288911   4.644   8.987   3.137
29557WAT      O88912   0.743   6.369   5.729
29557WAT     H188913   0.740   6.459   5.773
29557WAT     H288914   0.660   6.319   5.751
29558WAT      O88915   7.635   8.809   1.386
29558WAT     H188916   7.565   8.738   1.377
29558WAT     H288917   7.725   8.766   1.386
29559WAT      O88918   0.947   5.049   6.620
29559WAT     H188919   0.890   5.130   6.617
29559WAT     H288920   0.987   5.032   6.530
29560WAT      O88921   3.998   5.261   8.994
29560WAT     H188922   4.011   5.202   8.914
29560WAT     H288923   4.067   5.239   9.063
29561WAT      O88924   1.585   3.689   1.764
29561WAT     H188925   1.565   3.717   1.670
29561WAT     H288926   1.535   3.604   1.785
29562WAT      O88927   5.945   7.938   2.984
29562WAT     H188928   5.963   7.973   3.075
29562WAT     H288929   5.857   7.974   2.952
29563WAT      O88930   4.752   2.716   2.207
29563WAT     H188931   4.822   2.785   2.192
29563WAT     H288932   4.662   2.756   2.189
29564WAT      O88933   5.735   2.427   4.908
29564WAT     H188934   5.790   2.347   4.884
29564WAT     H288935   5.750   2.499   4.840
29565WAT      O88936   4.692   8.785   6.394
29565WAT     H188937   4.627   8.820   6.462
29565WAT     H288938   4.698   8.685   6.402
29566WAT      O88939   5.434   6.679   8.388
29566WAT     H188940   5.412   6.721   8.476
29566WAT     H288941   5.426   6.579   8.397
29567WAT      O88942   7.008   2.732   5.606
29567WAT     H188943   6.934   2.749   5.541
29567WAT     H288944   7.009   2.804   5.675
29568WAT      O88945   7.517   9.340   6.789
29568WAT     H188946   7.611   9.315   6.812
29568WAT     H288947   7.455   9.267   6.818
29569WAT      O88948   7.010   4.639   5.488
29569WAT     H188949   7.096   4.589   5.481
29569WAT     H288950   6.935   4.575   5.499
29570WAT      O88951   7.979   3.804   6.884
29570WAT     H188952   7.960   3.710   6.911
29570WAT     H288953   7.969   3.865   6.963
29571WAT      O88954   8.647   7.059   4.283
29571WAT     H188955   8.624   7.123   4.210
29571WAT     H288956   8.664   6.969   4.244
29572WAT      O88957   0.649   3.891   9.814
29572WAT     H188958   0.635   3.910   9.911
29572WAT     H288959   0.701   3.966   9.773
29573WAT      O88960   2.341   0.028   0.977
29573WAT     H188961   2.324  -0.063   0.941
29573WAT     H288962   2.272   0.091   0.941
29574WAT      O88963   1.337   8.451   9.367
29574WAT     H188964   1.302   8.520   9.304
29574WAT     H288965   1.270   8.377   9.376
29575WAT      O88966   3.442   8.312   2.970
29575WAT     H188967   3.499   8.307   2.888
29575WAT     H288968   3.380   8.234   2.972
29576WAT      O88969   4.453   9.640   6.855
29576WAT     H188970   4.388   9.644   6.779
29576WAT     H288971   4.433   9.712   6.921
29577WAT      O88972   1.119   2.686   9.698
29577WAT     H188973   1.210   2.724   9.713
29577WAT     H288974   1.079   2.660   9.786
29578WAT      O88975   1.046   4.392   4.287
29578WAT     H188976   0.992   4.428   4.211
29578WAT     H288977   1.084   4.303   4.262
29579WAT      O88978   5.789   2.807   1.071
29579WAT     H188979   5.785   2.891   1.017
29579WAT     H288980   5.715   2.806   1.137
29580WAT      O88981   6.101   2.869   3.865
29580WAT     H188982   6.099   2.896   3.768
29580WAT     H288983   6.138   2.776   3.872
29581WAT      O88984   2.436   4.708   3.746
29581WAT     H188985   2.528   4.673   3.729
29581WAT     H288986   2.371   4.631   3.744
29582WAT      O88987   6.528   4.634   7.691
29582WAT     H188988   6.589   4.614   7.768
29582WAT     H288989   6.518   4.733   7.681
29583WAT      O88990   9.534   4.803   0.608
29583WAT     H188991   9.626   4.831   0.637
29583WAT     H288992   9.514   4.841   0.518
29584WAT      O88993   4.729   1.503   7.082
29584WAT     H188994   4.749   1.424   7.140
29584WAT     H288995   4.656   1.557   7.123
29585WAT      O88996   5.883   1.357   2.207
29585WAT     H188997   5.851   1.412   2.285
29585WAT     H288998   5.805   1.307   2.168
29586WAT      O88999   9.731   2.869   8.524
29586WAT     H189000   9.725   2.909   8.433
29586WAT     H289001   9.655   2.903   8.580
29587WAT      O89002   1.730   4.684   6.713
29587WAT     H189003   1.652   4.622   6.711
29587WAT     H289004   1.726   4.746   6.634
29588WAT      O89005   3.804   1.220   1.401
29588WAT     H189006   3.802   1.298   1.339
29588WAT     H289007   3.736   1.152   1.371
29589WAT      O89008   3.306   8.690   4.494
29589WAT     H189009   3.224   8.735   4.458
29589WAT     H289010   3.315   8.599   4.454
29590WAT      O89011   0.234   0.841   1.858
29590WAT     H189012   0.310   0.834   1.793
29590WAT     H289013   0.170   0.912   1.828
29591WAT      O89014   2.319   3.262   0.604
29591WAT     H189015   2.294   3.356   0.582
29591WAT     H289016   2.347   3.258   0.700
29592WAT      O89017   5.261   2.057   6.573
29592WAT     H189018   5.187   2.083   6.511
29592WAT     H289019   5.344   2.039   6.520
29593WAT      O89020   3.775   0.501   3.902
29593WAT     H189021   3.859   0.466   3.860
29593WAT     H289022   3.786   0.504   4.002
29594WAT      O89023   5.582   0.567   9.402
29594WAT     H189024   5.575   0.592   9.499
29594WAT     H289025   5.649   0.627   9.358
29595WAT      O89026   8.039   6.358   3.857
29595WAT     H189027   8.036   6.374   3.956
29595WAT     H289028   8.016   6.442   3.808
29596WAT      O89029   8.498   6.896   8.458
29596WAT     H189030   8.570   6.898   8.527
29596WAT     H289031   8.473   6.801   8.439
29597WAT      O89032   4.303   2.074   4.974
29597WAT     H189033   4.326   2.130   4.895
29597WAT     H289034   4.321   1.978   4.953
29598WAT      O89035   7.840   7.544   7.085
29598WAT     H189036   7.823   7.553   7.183
29598WAT     H289037   7.829   7.633   7.041
29599WAT      O89038   8.025   1.622   1.145
29599WAT     H189039   8.046   1.640   1.049
29599WAT     H289040   7.969   1.540   1.153
29600WAT      O89041   0.703   6.027   1.448
29600WAT     H189042   0.686   5.934   1.413
29600WAT     H289043   0.650   6.093   1.394
29601WAT      O89044   4.213   1.168   5.206
29601WAT     H189045   4.189   1.212   5.120
29601WAT     H289046   4.184   1.224   5.282
29602WAT      O89047   7.167   0.337   6.504
29602WAT     H189048   7.256   0.370   6.535
29602WAT     H289049   7.167   0.330   6.405
29603WAT      O89050   4.658   4.622   0.503
29603WAT     H189051   4.655   4.648   0.407
29603WAT     H289052   4.615   4.693   0.558
29604WAT      O89053   8.681   4.607   2.762
29604WAT     H189054   8.775   4.583   2.787
29604WAT     H289055   8.635   4.647   2.842
29605WAT      O89056   5.592   7.163   8.815
29605WAT     H189057   5.656   7.236   8.840
29605WAT     H289058   5.512   7.167   8.875
29606WAT      O89059   7.879   0.335   5.778
29606WAT     H189060   7.972   0.297   5.775
29606WAT     H289061   7.884   0.434   5.771
29607WAT      O89062   1.381   0.426   0.555
29607WAT     H189063   1.437   0.346   0.577
29607WAT     H289064   1.313   0.440   0.628
29608WAT      O89065   7.755   0.949   0.789
29608WAT     H189066   7.791   0.996   0.708
29608WAT     H289067   7.763   0.850   0.776
29609WAT      O89068   8.954   8.520   1.281
29609WAT     H189069   8.906   8.572   1.352
29609WAT     H289070   9.037   8.569   1.254
29610WAT      O89071   0.719   1.430   5.602
29610WAT     H189072   0.627   1.460   5.576
29610WAT     H289073   0.738   1.342   5.558
29611WAT      O89074   9.494   0.692   6.593
29611WAT     H189075   9.586   0.674   6.628
29611WAT     H289076   9.458   0.609   6.549
29612WAT      O89077   0.838   6.389   9.872
29612WAT     H189078   0.813   6.429   9.784
29612WAT     H289079   0.860   6.292   9.859
29613WAT      O89080   2.121   3.029   3.489
29613WAT     H189081   2.100   2.940   3.448
29613WAT     H289082   2.044   3.091   3.474
29614WAT      O89083   6.601   5.228   8.713
29614WAT     H189084   6.653   5.185   8.787
29614WAT     H289085   6.584   5.324   8.735
29615WAT      O89086   5.264   2.395   3.618
29615WAT     H189087   5.191   2.423   3.556
29615WAT     H289088   5.345   2.452   3.603
29616WAT      O89089   6.017   6.708   6.223
29616WAT     H189090   5.935   6.682   6.273
29616WAT     H289091   5.992   6.758   6.141
29617WAT      O89092   6.914   1.821   2.445
29617WAT     H189093   6.959   1.910   2.440
29617WAT     H289094   6.955   1.767   2.519
29618WAT      O89095   7.996   1.621   3.305
29618WAT     H189096   8.046   1.549   3.353
29618WAT     H289097   7.905   1.631   3.346
29619WAT      O89098   2.335   1.916   0.864
29619WAT     H189099   2.342   1.880   0.957
29619WAT     H289100   2.239   1.936   0.843
29620WAT      O89101   8.259   8.852   4.508
29620WAT     H189102   8.254   8.883   4.603
29620WAT     H289103   8.187   8.895   4.454
29621WAT      O89104   6.333   8.722   1.952
29621WAT     H189105   6.337   8.624   1.970
29621WAT     H289106   6.397   8.770   2.012
29622WAT      O89107   7.969   6.598   5.455
29622WAT     H189108   7.893   6.533   5.455
29622WAT     H289109   8.010   6.600   5.364
29623WAT      O89110   5.345   1.742   6.114
29623WAT     H189111   5.290   1.665   6.083
29623WAT     H289112   5.418   1.760   6.049
29624WAT      O89113   4.159   8.769   4.286
29624WAT     H189114   4.108   8.739   4.367
29624WAT     H289115   4.097   8.815   4.223
29625WAT      O89116   4.775   2.948   9.441
29625WAT     H189117   4.692   2.908   9.478
29625WAT     H289118   4.758   2.981   9.348
29626WAT      O89119   0.476   0.317   9.844
29626WAT     H189120   0.489   0.219   9.833
29626WAT     H289121   0.563   0.361   9.866
29627WAT      O89122   0.358   8.070   5.780
29627WAT     H189123   0.458   8.062   5.773
29627WAT     H289124   0.317   8.064   5.689
29628WAT      O89125   6.765   6.560   3.284
29628WAT     H189126   6.858   6.590   3.307
29628WAT     H289127   6.761   6.538   3.186
29629WAT      O89128   3.258   8.068   4.420
29629WAT     H189129   3.292   8.031   4.507
29629WAT     H289130   3.322   8.044   4.347
29630WAT      O89131   9.443   3.007   7.368
29630WAT     H189132   9.405   3.096   7.393
29630WAT     H289133   9.537   3.019   7.338
29631WAT      O89134   0.278   8.791   9.818
29631WAT     H189135   0.252   8.737   9.898
29631WAT     H289136   0.218   8.870   9.809
29632WAT      O89137   9.214   5.120   8.960
29632WAT     H189138   9.172   5.157   9.043
29632WAT     H289139   9.272   5.190   8.918
29633WAT      O89140   1.916   1.426   1.682
29633WAT     H189141   1.848   1.481   1.730
29633WAT     H289142   1.977   1.486   1.631
29634WAT      O89143   4.824   8.528   4.460
29634WAT     H189144   4.899   8.478   4.418
29634WAT     H289145   4.828   8.624   4.432
29635WAT      O89146   0.840   3.355   8.360
29635WAT     H189147   0.843   3.379   8.263
29635WAT     H289148   0.904   3.413   8.410
29636WAT      O89149   2.976   8.224   4.008
29636WAT     H189150   3.015   8.197   4.097
29636WAT     H289151   2.994   8.151   3.941
29637WAT      O89152   4.561   8.150   5.166
29637WAT     H189153   4.593   8.145   5.071
29637WAT     H289154   4.631   8.193   5.223
29638WAT      O89155   5.320   1.132   6.030
29638WAT     H189156   5.347   1.038   6.010
29638WAT     H289157   5.235   1.132   6.082
29639WAT      O89158   9.358   7.564   0.547
29639WAT     H189159   9.288   7.503   0.513
29639WAT     H289160   9.355   7.651   0.497
29640WAT      O89161   6.515   1.315   8.889
29640WAT     H189162   6.520   1.236   8.828
29640WAT     H289163   6.576   1.302   8.966
29641WAT      O89164   3.169   3.635   4.472
29641WAT     H189165   3.197   3.692   4.394
29641WAT     H289166   3.245   3.626   4.536
29642WAT      O89167   6.232   4.727   9.144
29642WAT     H189168   6.245   4.779   9.060
29642WAT     H289169   6.266   4.635   9.132
29643WAT      O89170   6.939   3.431   4.986
29643WAT     H189171   7.005   3.497   4.950
29643WAT     H289172   6.867   3.416   4.918
29644WAT      O89173   3.120   8.050   9.189
29644WAT     H189174   3.048   8.101   9.142
29644WAT     H289175   3.123   8.076   9.285
29645WAT      O89176   9.553   7.967   1.107
29645WAT     H189177   9.606   8.027   1.047
29645WAT     H289178   9.613   7.897   1.146
29646WAT      O89179   4.827   1.899   9.814
29646WAT     H189180   4.809   1.997   9.819
29646WAT     H289181   4.887   1.872   9.889
29647WAT      O89182   0.123   7.293   9.805
29647WAT     H189183   0.121   7.308   9.904
29647WAT     H289184   0.036   7.322   9.765
29648WAT      O89185   1.663   4.301   7.490
29648WAT     H189186   1.653   4.222   7.552
29648WAT     H289187   1.760   4.322   7.479
29649WAT      O89188   6.419   8.871   5.034
29649WAT     H189189   6.362   8.945   4.997
29649WAT     H289190   6.438   8.889   5.130
29650WAT      O89191   7.606   1.036   5.918
29650WAT     H189192   7.682   0.972   5.910
29650WAT     H289193   7.603   1.095   5.838
29651WAT      O89194   7.464   1.924   6.575
29651WAT     H189195   7.485   1.867   6.496
29651WAT     H289196   7.412   1.872   6.642
29652WAT      O89197   5.592   8.413   9.707
29652WAT     H189198   5.582   8.362   9.793
29652WAT     H289199   5.561   8.356   9.631
29653WAT      O89200   6.323   6.457   5.193
29653WAT     H189201   6.252   6.526   5.179
29653WAT     H289202   6.341   6.447   5.290
29654WAT      O89203   3.539   4.785   3.583
29654WAT     H189204   3.571   4.845   3.656
29654WAT     H289205   3.616   4.758   3.526
29655WAT      O89206   9.680   0.077   8.396
29655WAT     H189207   9.597   0.103   8.444
29655WAT     H289208   9.745   0.037   8.461
29656WAT      O89209   7.918   7.317   3.427
29656WAT     H189210   7.838   7.288   3.479
29656WAT     H289211   8.000   7.275   3.466
29657WAT      O89212   8.553   7.529   3.578
29657WAT     H189213   8.634   7.472   3.592
29657WAT     H289214   8.561   7.613   3.631
29658WAT      O89215   2.607   2.238   1.279
29658WAT     H189216   2.668   2.310   1.312
29658WAT     H289217   2.656   2.152   1.275
29659WAT      O89218   1.847   6.147   5.424
29659WAT     H189219   1.868   6.164   5.520
29659WAT     H289220   1.750   6.165   5.408
29660WAT      O89221   3.897   1.730   9.417
29660WAT     H189222   3.811   1.695   9.456
29660WAT     H289223   3.879   1.816   9.369
29661WAT      O89224   9.272   4.539   6.373
29661WAT     H189225   9.340   4.492   6.317
29661WAT     H289226   9.194   4.478   6.388
29662WAT      O89227   6.680   0.190   8.226
29662WAT     H189228   6.688   0.254   8.303
29662WAT     H289229   6.584   0.180   8.201
29663WAT      O89230   0.594   1.464   4.529
29663WAT     H189231   0.546   1.388   4.486
29663WAT     H289232   0.664   1.429   4.591
29664WAT      O89233   1.806   0.258   3.919
29664WAT     H189234   1.719   0.219   3.947
29664WAT     H289235   1.816   0.249   3.819
29665WAT      O89236   6.662   6.558   9.554
29665WAT     H189237   6.685   6.558   9.652
29665WAT     H289238   6.716   6.628   9.508
29666WAT      O89239   0.204   9.827   4.568
29666WAT     H189240   0.184   9.754   4.633
29666WAT     H289241   0.297   9.815   4.533
29667WAT      O89242   6.003   5.171   0.339
29667WAT     H189243   6.084   5.118   0.313
29667WAT     H289244   6.016   5.267   0.312
29668WAT      O89245   3.978   8.670   5.292
29668WAT     H189246   3.898   8.706   5.243
29668WAT     H289247   4.058   8.674   5.232
29669WAT      O89248   8.648   2.050   7.721
29669WAT     H189249   8.658   2.141   7.682
29669WAT     H289250   8.588   2.055   7.801
29670WAT      O89251   2.919   4.374   3.168
29670WAT     H189252   2.891   4.438   3.096
29670WAT     H289253   2.848   4.369   3.238
29671WAT      O89254   8.770   2.917   0.794
29671WAT     H189255   8.715   2.864   0.859
29671WAT     H289256   8.710   2.968   0.733
29672WAT      O89257   9.059   3.939   5.757
29672WAT     H189258   8.961   3.952   5.740
29672WAT     H289259   9.109   4.021   5.731
29673WAT      O89260   9.453   8.897   6.711
29673WAT     H189261   9.427   8.968   6.646
29673WAT     H289262   9.548   8.870   6.696
29674WAT      O89263   1.737   8.645   3.003
29674WAT     H189264   1.816   8.680   2.953
29674WAT     H289265   1.698   8.719   3.058
29675WAT      O89266   6.089   1.255   8.842
29675WAT     H189267   6.138   1.312   8.908
29675WAT     H289268   6.005   1.302   8.814
29676WAT      O89269   9.369   4.425   3.248
29676WAT     H189270   9.285   4.383   3.215
29676WAT     H289271   9.443   4.358   3.247
29677WAT      O89272   7.971   8.302   8.261
29677WAT     H189273   8.024   8.374   8.216
29677WAT     H289274   7.932   8.338   8.346
29678WAT      O89275   7.150   9.602   8.771
29678WAT     H189276   7.051   9.613   8.781
29678WAT     H289277   7.168   9.522   8.714
29679WAT      O89278   9.496   5.900   5.271
29679WAT     H189279   9.591   5.878   5.249
29679WAT     H289280   9.488   5.997   5.293
29680WAT      O89281   3.411   6.224   4.156
29680WAT     H189282   3.427   6.136   4.202
29680WAT     H289283   3.421   6.211   4.058
29681WAT      O89284   9.793   4.832   0.639
29681WAT     H189285   9.846   4.748   0.622
29681WAT     H289286   9.848   4.911   0.614
29682WAT      O89287   0.175   6.529   9.583
29682WAT     H189288   0.134   6.568   9.500
29682WAT     H289289   0.136   6.439   9.601
29683WAT      O89290   9.326   9.702   8.157
29683WAT     H189291   9.264   9.772   8.124
29683WAT     H289292   9.337   9.631   8.088
29684WAT      O89293   1.040   1.774   9.774
29684WAT     H189294   1.101   1.697   9.755
29684WAT     H289295   1.041   1.795   9.871
29685WAT      O89296   6.730   1.766   1.768
29685WAT     H189297   6.724   1.824   1.686
29685WAT     H289298   6.648   1.710   1.776
29686WAT      O89299   7.017   3.763   3.664
29686WAT     H189300   7.019   3.843   3.724
29686WAT     H289301   7.070   3.689   3.705
29687WAT      O89302   8.680   5.214   7.845
29687WAT     H189303   8.718   5.307   7.847
29687WAT     H289304   8.728   5.159   7.777
29688WAT      O89305   2.105   3.711   9.068
29688WAT     H189306   2.066   3.620   9.083
29688WAT     H289307   2.047   3.779   9.112
29689WAT      O89308   9.871   1.568   2.957
29689WAT     H189309   9.915   1.581   3.046
29689WAT     H289310   9.775   1.595   2.963
29690WAT      O89311   5.340   9.125   5.039
29690WAT     H189312   5.254   9.157   5.078
29690WAT     H289313   5.351   9.027   5.056
29691WAT      O89314   3.896   6.532   8.021
29691WAT     H189315   3.905   6.583   8.107
29691WAT     H289316   3.960   6.455   8.022
29692WAT      O89317   3.936   2.238   6.873
29692WAT     H189318   3.849   2.208   6.913
29692WAT     H289319   3.986   2.159   6.839
29693WAT      O89320   6.313   3.086   2.699
29693WAT     H189321   6.396   3.125   2.739
29693WAT     H289322   6.323   3.079   2.600
29694WAT      O89323   0.185   2.280   1.268
29694WAT     H189324   0.261   2.273   1.204
29694WAT     H289325   0.193   2.209   1.338
29695WAT      O89326   7.514   2.953   9.162
29695WAT     H189327   7.585   2.989   9.223
29695WAT     H289328   7.555   2.892   9.095
29696WAT      O89329   3.789   5.479   8.568
29696WAT     H189330   3.748   5.530   8.644
29696WAT     H289331   3.817   5.543   8.496
29697WAT      O89332   5.433   5.880   5.538
29697WAT     H189333   5.410   5.805   5.599
29697WAT     H289334   5.375   5.877   5.457
29698WAT      O89335   6.684   8.266   4.445
29698WAT     H189336   6.600   8.222   4.413
29698WAT     H289337   6.720   8.325   4.373
29699WAT      O89338   2.235   8.188   7.874
29699WAT     H189339   2.142   8.183   7.910
29699WAT     H289340   2.293   8.238   7.938
29700WAT      O89341   9.066   2.024   4.823
29700WAT     H189342   9.131   2.012   4.899
29700WAT     H289343   9.062   2.121   4.798
29701WAT      O89344   2.093   3.202   1.474
29701WAT     H189345   2.126   3.219   1.567
29701WAT     H289346   2.141   3.122   1.436
29702WAT      O89347   9.579   2.611   8.585
29702WAT     H189348   9.573   2.568   8.494
29702WAT     H289349   9.613   2.704   8.576
29703WAT      O89350   3.226   0.137   1.976
29703WAT     H189351   3.142   0.156   1.925
29703WAT     H289352   3.220   0.182   2.066
29704WAT      O89353   4.198   4.195   1.451
29704WAT     H189354   4.210   4.131   1.527
29704WAT     H289355   4.275   4.185   1.388
29705WAT      O89356   6.838   5.637   1.784
29705WAT     H189357   6.899   5.634   1.705
29705WAT     H289358   6.890   5.623   1.868
29706WAT      O89359   8.109   9.341   5.996
29706WAT     H189360   8.030   9.373   6.049
29706WAT     H289361   8.085   9.256   5.949
29707WAT      O89362   5.875   4.369   9.234
29707WAT     H189363   5.869   4.383   9.135
29707WAT     H289364   5.793   4.407   9.278
29708WAT      O89365   4.775   4.364   7.935
29708WAT     H189366   4.790   4.280   7.988
29708WAT     H289367   4.862   4.412   7.924
29709WAT      O89368   7.676   6.001   4.499
29709WAT     H189369   7.763   5.972   4.460
29709WAT     H289370   7.681   5.996   4.598
29710WAT      O89371   7.133   7.449   2.245
29710WAT     H189372   7.129   7.483   2.151
29710WAT     H289373   7.222   7.405   2.260
29711WAT      O89374   8.408   2.437   6.639
29711WAT     H189375   8.383   2.350   6.596
29711WAT     H289376   8.490   2.474   6.595
29712WAT      O89377   1.817   8.062   4.570
29712WAT     H189378   1.869   8.117   4.636
29712WAT     H289379   1.733   8.110   4.545
29713WAT      O89380   8.825   7.499   6.762
29713WAT     H189381   8.750   7.521   6.825
29713WAT     H289382   8.904   7.469   6.814
29714WAT      O89383   0.346   0.951   9.217
29714WAT     H189384   0.421   1.004   9.179
29714WAT     H289385   0.313   0.995   9.300
29715WAT      O89386   6.214   6.296   3.299
29715WAT     H189387   6.164   6.375   3.337
29715WAT     H289388   6.309   6.299   3.330
29716WAT      O89389   1.192   6.219   6.640
29716WAT     H189390   1.159   6.125   6.630
29716WAT     H289391   1.279   6.229   6.592
29717WAT      O89392   3.586   6.551   0.973
29717WAT     H189393   3.511   6.517   0.916
29717WAT     H289394   3.670   6.503   0.949
29718WAT      O89395   3.544   2.965   7.959
29718WAT     H189396   3.545   2.924   7.868
29718WAT     H289397   3.524   3.063   7.951
29719WAT      O89398   0.375   5.449   1.905
29719WAT     H189399   0.318   5.432   1.985
29719WAT     H289400   0.425   5.365   1.881
29720WAT      O89401   5.329   0.289   3.659
29720WAT     H189402   5.330   0.212   3.596
29720WAT     H289403   5.307   0.257   3.751
29721WAT      O89404   8.232   7.810   3.455
29721WAT     H189405   8.204   7.754   3.533
29721WAT     H289406   8.164   7.800   3.381
29722WAT      O89407   3.265   4.591   0.477
29722WAT     H189408   3.187   4.542   0.436
29722WAT     H289409   3.334   4.525   0.505
29723WAT      O89410   2.408   2.564   4.897
29723WAT     H189411   2.357   2.534   4.817
29723WAT     H289412   2.423   2.487   4.959
29724WAT      O89413   2.923   9.406   0.137
29724WAT     H189414   2.859   9.483   0.131
29724WAT     H289415   2.988   9.422   0.211
29725WAT      O89416   7.929   5.146   7.602
29725WAT     H189417   7.958   5.108   7.515
29725WAT     H289418   7.837   5.185   7.593
29726WAT      O89419   1.320   8.150   6.153
29726WAT     H189420   1.296   8.150   6.056
29726WAT     H289421   1.419   8.161   6.162
29727WAT      O89422   8.550   8.365   5.891
29727WAT     H189423   8.498   8.320   5.963
29727WAT     H289424   8.514   8.340   5.801
29728WAT      O89425   0.744   9.322   1.170
29728WAT     H189426   0.814   9.314   1.099
29728WAT     H289427   0.746   9.241   1.227
29729WAT      O89428   7.694   8.096   0.368
29729WAT     H189429   7.658   8.153   0.294
29729WAT     H289430   7.651   8.123   0.454
29730WAT      O89431   2.357   9.114   5.056
29730WAT     H189432   2.354   9.213   5.071
29730WAT     H289433   2.267   9.074   5.076
29731WAT      O89434   9.567   8.696   4.095
29731WAT     H189435   9.652   8.645   4.086
29731WAT     H289436   9.520   8.699   4.006
29732WAT      O89437   8.326   6.138   9.036
29732WAT     H189438   8.387   6.059   9.035
29732WAT     H289439   8.358   6.205   8.969
29733WAT      O89440   7.651   9.590   8.680
29733WAT     H189441   7.561   9.577   8.637
29733WAT     H289442   7.707   9.509   8.664
29734WAT      O89443   9.284   9.523   1.551
29734WAT     H189444   9.293   9.526   1.650
29734WAT     H289445   9.294   9.428   1.519
29735WAT      O89446   3.741   7.568   9.044
29735WAT     H189447   3.652   7.541   9.079
29735WAT     H289448   3.733   7.589   8.946
29736WAT      O89449   9.696   6.955   9.775
29736WAT     H189450   9.705   6.882   9.707
29736WAT     H289451   9.678   7.042   9.728
29737WAT      O89452   4.826   9.215   9.379
29737WAT     H189453   4.849   9.245   9.286
29737WAT     H289454   4.889   9.258   9.444
29738WAT      O89455   3.530   0.737   8.261
29738WAT     H189456   3.524   0.760   8.164
29738WAT     H289457   3.625   0.719   8.285
29739WAT      O89458   3.387   8.940   1.787
29739WAT     H189459   3.334   8.908   1.709
29739WAT     H289460   3.468   8.988   1.755
29740WAT      O89461   5.231   1.373   4.238
29740WAT     H189462   5.291   1.416   4.305
29740WAT     H289463   5.282   1.354   4.154
29741WAT      O89464   4.361   3.640   3.352
29741WAT     H189465   4.272   3.616   3.313
29741WAT     H289466   4.408   3.556   3.381
29742WAT      O89467   6.287   0.032   7.104
29742WAT     H189468   6.268  -0.066   7.112
29742WAT     H289469   6.340   0.049   7.021
29743WAT      O89470   0.390   0.847   7.717
29743WAT     H189471   0.352   0.789   7.788
29743WAT     H289472   0.486   0.823   7.701
29744WAT      O89473   5.527   8.222   1.717
29744WAT     H189474   5.525   8.123   1.709
29744WAT     H289475   5.582   8.248   1.797
29745WAT      O89476   8.998   0.298   6.669
29745WAT     H189477   8.956   0.288   6.760
29745WAT     H289478   8.935   0.347   6.609
29746WAT      O89479   6.321   3.052   6.231
29746WAT     H189480   6.311   2.968   6.178
29746WAT     H289481   6.262   3.123   6.193
29747WAT      O89482   9.578   5.616   9.405
29747WAT     H189483   9.676   5.629   9.388
29747WAT     H289484   9.527   5.692   9.367
29748WAT      O89485   7.233   9.377   9.472
29748WAT     H189486   7.275   9.450   9.417
29748WAT     H289487   7.303   9.312   9.500
29749WAT      O89488   4.341   2.197   4.749
29749WAT     H189489   4.435   2.220   4.724
29749WAT     H289490   4.295   2.154   4.672
29750WAT      O89491   2.532   2.277   9.159
29750WAT     H189492   2.630   2.293   9.171
29750WAT     H289493   2.516   2.179   9.143
29751WAT      O89494   0.434   4.276   5.821
29751WAT     H189495   0.366   4.223   5.871
29751WAT     H289496   0.428   4.372   5.847
29752WAT      O89497   3.029   5.287   4.066
29752WAT     H189498   2.990   5.350   4.133
29752WAT     H289499   2.987   5.197   4.078
29753WAT      O89500   2.183   7.717   6.910
29753WAT     H189501   2.219   7.694   7.000
29753WAT     H289502   2.181   7.636   6.852
29754WAT      O89503   4.108   9.427   9.753
29754WAT     H189504   4.097   9.338   9.710
29754WAT     H289505   4.076   9.499   9.692
29755WAT      O89506   7.131   4.155   3.263
29755WAT     H189507   7.177   4.174   3.349
29755WAT     H289508   7.167   4.216   3.192
29756WAT      O89509   2.251   0.115   3.364
29756WAT     H189510   2.291   0.023   3.368
29756WAT     H289511   2.303   0.176   3.423
29757WAT      O89512   1.675   8.439   0.561
29757WAT     H189513   1.643   8.419   0.654
29757WAT     H289514   1.599   8.470   0.505
29758WAT      O89515   6.647   2.878   3.980
29758WAT     H189516   6.732   2.882   3.929
29758WAT     H289517   6.655   2.810   4.053
29759WAT      O89518   8.383   5.473   6.689
29759WAT     H189519   8.427   5.453   6.777
29759WAT     H289520   8.392   5.393   6.629
29760WAT      O89521   3.848   0.287   4.922
29760WAT     H189522   3.909   0.238   4.985
29760WAT     H289523   3.879   0.382   4.913
29761WAT      O89524   2.904   2.860   2.255
29761WAT     H189525   2.941   2.906   2.336
29761WAT     H289526   2.827   2.803   2.282
29762WAT      O89527   0.317   8.428   1.847
29762WAT     H189528   0.250   8.372   1.896
29762WAT     H289529   0.271   8.507   1.806
29763WAT      O89530   4.754   6.019   8.542
29763WAT     H189531   4.840   5.970   8.553
29763WAT     H289532   4.699   5.974   8.472
29764WAT      O89533   0.788   9.397   5.777
29764WAT     H189534   0.728   9.458   5.829
29764WAT     H289535   0.740   9.312   5.756
29765WAT      O89536   2.735   9.817   1.792
29765WAT     H189537   2.688   9.864   1.717
29765WAT     H289538   2.675   9.811   1.871
29766WAT      O89539   9.070   8.150   1.287
29766WAT     H189540   8.974   8.176   1.299
29766WAT     H289541   9.123   8.229   1.257
29767WAT      O89542   1.825   5.896   2.294
29767WAT     H189543   1.800   5.890   2.198
29767WAT     H289544   1.764   5.960   2.341
29768WAT      O89545   9.620   8.563   0.922
29768WAT     H189546   9.719   8.562   0.905
29768WAT     H289547   9.571   8.552   0.835
29769WAT      O89548   3.380   8.810   8.228
29769WAT     H189549   3.479   8.822   8.221
29769WAT     H289550   3.344   8.873   8.297
29770WAT      O89551   7.867   6.899   4.357
29770WAT     H189552   7.828   6.991   4.369
29770WAT     H289553   7.918   6.875   4.439
29771WAT      O89554   8.258   3.455   0.492
29771WAT     H189555   8.314   3.528   0.452
29771WAT     H289556   8.307   3.413   0.568
29772WAT      O89557   6.414   0.799   3.037
29772WAT     H189558   6.453   0.792   3.129
29772WAT     H289559   6.337   0.862   3.038
29773WAT      O89560   4.017   3.558   0.912
29773WAT     H189561   4.006   3.504   0.829
29773WAT     H289562   3.936   3.616   0.925
29774WAT      O89563   0.666   4.128   6.025
29774WAT     H189564   0.589   4.118   5.962
29774WAT     H289565   0.723   4.045   6.021
29775WAT      O89566   6.883   8.982   7.363
29775WAT     H189567   6.808   9.027   7.314
29775WAT     H289568   6.889   9.019   7.456
29776WAT      O89569   0.293   2.745   4.296
29776WAT     H189570   0.319   2.658   4.336
29776WAT     H289571   0.364   2.813   4.312
29777WAT      O89572   9.078   4.381   6.421
29777WAT     H189573   9.045   4.288   6.441
29777WAT     H289574   9.040   4.445   6.488
29778WAT      O89575   9.040   2.362   6.397
29778WAT     H189576   9.067   2.340   6.303
29778WAT     H289577   9.064   2.286   6.457
29779WAT      O89578   6.568   0.237   6.325
29779WAT     H189579   6.485   0.266   6.278
29779WAT     H289580   6.584   0.140   6.310
29780WAT      O89581   0.275   3.391   8.834
29780WAT     H189582   0.266   3.453   8.757
29780WAT     H289583   0.243   3.300   8.808
29781WAT      O89584   7.965   4.535   4.857
29781WAT     H189585   7.874   4.508   4.887
29781WAT     H289586   7.958   4.605   4.786
29782WAT      O89587   6.952   2.195   3.697
29782WAT     H189588   6.960   2.095   3.695
29782WAT     H289589   6.941   2.230   3.604
29783WAT      O89590   8.500   3.249   4.007
29783WAT     H189591   8.443   3.291   3.937
29783WAT     H289592   8.495   3.149   3.998
29784WAT      O89593   1.637   2.964   4.817
29784WAT     H189594   1.699   2.890   4.844
29784WAT     H289595   1.596   2.942   4.728
29785WAT      O89596   2.462   3.815   2.526
29785WAT     H189597   2.545   3.870   2.541
29785WAT     H289598   2.475   3.757   2.445
29786WAT      O89599   5.674   6.286   5.140
29786WAT     H189600   5.682   6.212   5.074
29786WAT     H289601   5.650   6.250   5.229
29787WAT      O89602   3.070   1.440   1.136
29787WAT     H189603   3.121   1.375   1.193
29787WAT     H289604   2.987   1.468   1.183
29788WAT      O89605   3.501   5.227   3.746
29788WAT     H189606   3.521   5.129   3.736
29788WAT     H289607   3.421   5.250   3.690
29789WAT      O89608   1.349   6.548   6.150
29789WAT     H189609   1.448   6.563   6.143
29789WAT     H289610   1.301   6.635   6.135
29790WAT      O89611   8.467   5.981   0.888
29790WAT     H189612   8.393   5.924   0.850
29790WAT     H289613   8.478   6.063   0.831
29791WAT      O89614   1.403   0.563   7.744
29791WAT     H189615   1.392   0.612   7.830
29791WAT     H289616   1.337   0.487   7.740
29792WAT      O89617   1.085   7.802   0.850
29792WAT     H189618   1.067   7.844   0.939
29792WAT     H289619   1.039   7.854   0.778
29793WAT      O89620   0.748   0.218   8.426
29793WAT     H189621   0.828   0.232   8.367
29793WAT     H289622   0.669   0.265   8.388
29794WAT      O89623   8.516   7.325   4.499
29794WAT     H189624   8.458   7.305   4.578
29794WAT     H289625   8.545   7.239   4.456
29795WAT      O89626   5.889   7.888   2.610
29795WAT     H189627   5.958   7.913   2.679
29795WAT     H289628   5.824   7.824   2.650
29796WAT      O89629   0.441   7.000   6.724
29796WAT     H189630   0.447   7.090   6.682
29796WAT     H289631   0.370   7.001   6.795
29797WAT      O89632   8.238   5.660   8.739
29797WAT     H189633   8.199   5.597   8.806
29797WAT     H289634   8.327   5.692   8.772
29798WAT      O89635   8.811   1.780   8.228
29798WAT     H189636   8.860   1.797   8.142
29798WAT     H289637   8.759   1.695   8.220
29799WAT      O89638   7.429   4.200   5.432
29799WAT     H189639   7.382   4.287   5.448
29799WAT     H289640   7.515   4.199   5.482
29800WAT      O89641   5.690   3.540   0.456
29800WAT     H189642   5.779   3.561   0.496
29800WAT     H289643   5.663   3.613   0.393
29801WAT      O89644   3.253   3.704   1.748
29801WAT     H189645   3.339   3.750   1.727
29801WAT     H289646   3.181   3.772   1.761
29802WAT      O89647   7.164   4.480   2.358
29802WAT     H189648   7.087   4.503   2.417
29802WAT     H289649   7.249   4.514   2.399
29803WAT      O89650   6.322   8.056   6.907
29803WAT     H189651   6.373   8.109   6.974
29803WAT     H289652   6.275   8.118   6.844
29804WAT      O89653   1.199   8.771   8.396
29804WAT     H189654   1.210   8.789   8.298
29804WAT     H289655   1.104   8.750   8.416
29805WAT      O89656   5.552   1.001   0.855
29805WAT     H189657   5.484   0.963   0.918
29805WAT     H289658   5.516   1.001   0.762
29806WAT      O89659   9.113   0.331   1.346
29806WAT     H189660   9.157   0.390   1.279
29806WAT     H289661   9.119   0.236   1.315
29807WAT      O89662   8.433   7.393   2.699
29807WAT     H189663   8.385   7.305   2.693
29807WAT     H289664   8.426   7.440   2.611
29808WAT      O89665   8.442   4.627   3.695
29808WAT     H189666   8.418   4.666   3.784
29808WAT     H289667   8.541   4.615   3.691
29809WAT      O89668   0.654   3.786   0.356
29809WAT     H189669   0.637   3.704   0.301
29809WAT     H289670   0.624   3.770   0.450
29810WAT      O89671   2.603   6.295   5.346
29810WAT     H189672   2.588   6.289   5.247
29810WAT     H289673   2.689   6.251   5.369
29811WAT      O89674   9.725   1.390   6.484
29811WAT     H189675   9.641   1.344   6.454
29811WAT     H289676   9.702   1.470   6.538
29812WAT      O89677   0.023   9.043   6.107
29812WAT     H189678  -0.075   9.043   6.088
29812WAT     H289679   0.042   9.106   6.182
29813WAT      O89680   4.430   7.960   4.621
29813WAT     H189681   4.404   7.990   4.713
29813WAT     H289682   4.350   7.922   4.575
29814WAT      O89683   3.418   0.124   2.467
29814WAT     H189684   3.383   0.066   2.540
29814WAT     H289685   3.393   0.219   2.485
29815WAT      O89686   2.125   5.928   0.730
29815WAT     H189687   2.048   5.937   0.666
29815WAT     H289688   2.091   5.938   0.824
29816WAT      O89689   4.246   1.324   7.014
29816WAT     H189690   4.168   1.287   6.965
29816WAT     H289691   4.229   1.421   7.035
29817WAT      O89692   4.460   5.508   6.728
29817WAT     H189693   4.538   5.554   6.769
29817WAT     H289694   4.489   5.418   6.695
29818WAT      O89695   5.587   1.152   1.880
29818WAT     H189696   5.606   1.056   1.898
29818WAT     H289697   5.671   1.197   1.849
29819WAT      O89698   4.490   6.562   4.149
29819WAT     H189699   4.438   6.518   4.075
29819WAT     H289700   4.539   6.492   4.201
29820WAT      O89701   7.617   1.813   7.706
29820WAT     H189702   7.551   1.855   7.768
29820WAT     H289703   7.573   1.741   7.653
29821WAT      O89704   8.184   1.285   6.125
29821WAT     H189705   8.201   1.367   6.071
29821WAT     H289706   8.089   1.285   6.157
29822WAT      O89707   3.843   8.931   4.541
29822WAT     H189708   3.932   8.887   4.548
29822WAT     H289709   3.837   8.982   4.455
29823WAT      O89710   7.725   1.662   3.361
29823WAT     H189711   7.642   1.607   3.370
29823WAT     H289712   7.760   1.685   3.452
29824WAT      O89713   7.520   8.099   0.602
29824WAT     H189714   7.428   8.096   0.563
29824WAT     H289715   7.542   8.193   0.626
29825WAT      O89716   6.400   7.375   0.365
29825WAT     H189717   6.379   7.470   0.343
29825WAT     H289718   6.316   7.320   0.359
29826WAT      O89719  -0.001   0.311   3.539
29826WAT     H189720   0.086   0.297   3.586
29826WAT     H289721  -0.067   0.243   3.571
29827WAT      O89722   8.617   2.958   6.182
29827WAT     H189723   8.525   2.920   6.177
29827WAT     H289724   8.631   2.997   6.273
29828WAT      O89725   6.981   5.869   1.064
29828WAT     H189726   7.031   5.923   1.131
29828WAT     H289727   7.012   5.774   1.067
29829WAT      O89728   2.033   6.691   5.572
29829WAT     H189729   1.941   6.725   5.553
29829WAT     H289730   2.088   6.764   5.612
29830WAT      O89731   5.607   2.193   7.700
29830WAT     H189732   5.681   2.157   7.756
29830WAT     H289733   5.644   2.253   7.629
29831WAT      O89734   7.857   5.699   5.318
29831WAT     H189735   7.929   5.676   5.252
29831WAT     H289736   7.770   5.660   5.287
29832WAT      O89737   4.398   2.249   9.049
29832WAT     H189738   4.321   2.271   8.989
29832WAT     H289739   4.366   2.242   9.143
29833WAT      O89740   2.934   3.238   6.934
29833WAT     H189741   2.873   3.169   6.895
29833WAT     H289742   2.986   3.282   6.860
29834WAT      O89743   7.457   6.786   2.504
29834WAT     H189744   7.444   6.716   2.574
29834WAT     H289745   7.486   6.742   2.419
29835WAT      O89746   1.752   5.553   6.365
29835WAT     H189747   1.799   5.577   6.450
29835WAT     H289748   1.754   5.453   6.353
29836WAT      O89749   9.472   7.236   7.075
29836WAT     H189750   9.569   7.250   7.055
29836WAT     H289751   9.450   7.139   7.068
29837WAT      O89752   7.374   1.403   7.119
29837WAT     H189753   7.329   1.358   7.197
29837WAT     H289754   7.431   1.478   7.152
29838WAT      O89755   6.574   2.551   7.871
29838WAT     H189756   6.537   2.461   7.847
29838WAT     H289757   6.618   2.591   7.790
29839WAT      O89758   7.720   0.852   4.608
29839WAT     H189759   7.787   0.925   4.596
29839WAT     H289760   7.737   0.804   4.694
29840WAT      O89761   5.989   0.848   1.200
29840WAT     H189762   6.042   0.794   1.134
29840WAT     H289763   5.893   0.850   1.172
29841WAT      O89764   3.473   7.220   1.605
29841WAT     H189765   3.561   7.266   1.613
29841WAT     H289766   3.413   7.273   1.545
29842WAT      O89767   7.692   5.582   2.787
29842WAT     H189768   7.718   5.627   2.702
29842WAT     H289769   7.715   5.485   2.782
29843WAT      O89770   1.446   1.889   3.717
29843WAT     H189771   1.451   1.959   3.788
29843WAT     H289772   1.484   1.803   3.751
29844WAT      O89773   3.001   0.522   9.483
29844WAT     H189774   3.067   0.597   9.491
29844WAT     H289775   2.915   0.557   9.447
29845WAT      O89776   9.591   2.195   3.842
29845WAT     H189777   9.515   2.174   3.903
29845WAT     H289778   9.675   2.153   3.876
29846WAT      O89779   2.896   6.749   2.506
29846WAT     H189780   2.859   6.673   2.559
29846WAT     H289781   2.822   6.810   2.478
29847WAT      O89782   8.829   4.701   8.979
29847WAT     H189783   8.733   4.676   8.982
29847WAT     H289784   8.848   4.771   9.048
29848WAT      O89785   7.625   9.352   3.757
29848WAT     H189786   7.613   9.399   3.845
29848WAT     H289787   7.713   9.305   3.756
29849WAT      O89788   0.090   7.916   3.847
29849WAT     H189789   0.059   7.930   3.752
29849WAT     H289790   0.058   7.992   3.903
29850WAT      O89791   1.241   3.162   0.071
29850WAT     H189792   1.163   3.133   0.015
29850WAT     H289793   1.215   3.243   0.125
29851WAT      O89794   2.729   2.688   2.388
29851WAT     H189795   2.648   2.706   2.444
29851WAT     H289796   2.705   2.625   2.314
29852WAT      O89797   4.957   1.119   6.796
29852WAT     H189798   4.963   1.153   6.890
29852WAT     H289799   4.938   1.195   6.734
29853WAT      O89800   2.369   5.158   9.712
29853WAT     H189801   2.380   5.145   9.811
29853WAT     H289802   2.418   5.086   9.664
29854WAT      O89803   2.535   0.024   1.345
29854WAT     H189804   2.463  -0.046   1.345
29854WAT     H289805   2.522   0.085   1.267
29855WAT      O89806   3.772   3.201   7.934
29855WAT     H189807   3.674   3.220   7.929
29855WAT     H289808   3.803   3.163   7.847
29856WAT      O89809   3.727   1.898   4.148
29856WAT     H189810   3.810   1.952   4.136
29856WAT     H289811   3.751   1.803   4.169
29857WAT      O89812   8.875   9.134   9.325
29857WAT     H189813   8.827   9.216   9.357
29857WAT     H289814   8.920   9.154   9.237
29858WAT      O89815   1.795   6.535   1.911
29858WAT     H189816   1.830   6.548   2.004
29858WAT     H289817   1.810   6.619   1.858
29859WAT      O89818   3.695   4.764   9.458
29859WAT     H189819   3.732   4.706   9.530
29859WAT     H289820   3.764   4.832   9.431
29860WAT      O89821   3.771   1.448   2.798
29860WAT     H189822   3.812   1.508   2.729
29860WAT     H289823   3.833   1.440   2.876
29861WAT      O89824   2.774   2.769   6.863
29861WAT     H189825   2.848   2.740   6.924
29861WAT     H289826   2.732   2.852   6.900
29862WAT      O89827   4.320   1.929   7.713
29862WAT     H189828   4.399   1.884   7.673
29862WAT     H289829   4.346   1.971   7.800
29863WAT      O89830   5.703   4.870   9.814
29863WAT     H189831   5.781   4.898   9.871
29863WAT     H289832   5.732   4.798   9.752
29864WAT      O89833   4.795   0.302   3.340
29864WAT     H189834   4.894   0.311   3.342
29864WAT     H289835   4.756   0.352   3.418
29865WAT      O89836   7.168   0.611   5.268
29865WAT     H189837   7.100   0.554   5.223
29865WAT     H289838   7.251   0.557   5.284
29866WAT      O89839   7.753   8.567   0.117
29866WAT     H189840   7.665   8.593   0.078
29866WAT     H289841   7.822   8.633   0.090
29867WAT      O89842   8.626   5.203   8.117
29867WAT     H189843   8.656   5.200   8.021
29867WAT     H289844   8.540   5.153   8.127
29868WAT      O89845   3.360   7.572   7.651
29868WAT     H189846   3.350   7.670   7.669
29868WAT     H289847   3.271   7.528   7.654
29869WAT      O89848   5.773   9.338   0.664
29869WAT     H189849   5.710   9.273   0.705
29869WAT     H289850   5.723   9.419   0.634
29870WAT      O89851   0.958   1.369   7.941
29870WAT     H189852   0.994   1.313   7.866
29870WAT     H289853   0.924   1.456   7.905
29871WAT      O89854   3.620   6.604   2.364
29871WAT     H189855   3.648   6.530   2.303
29871WAT     H289856   3.701   6.647   2.403
29872WAT      O89857   5.668   8.368   0.869
29872WAT     H189858   5.623   8.283   0.895
29872WAT     H289859   5.712   8.409   0.949
29873WAT      O89860   0.851   8.129   4.569
29873WAT     H189861   0.915   8.174   4.507
29873WAT     H289862   0.780   8.195   4.597
29874WAT      O89863   7.528   0.863   6.802
29874WAT     H189864   7.434   0.890   6.821
29874WAT     H289865   7.563   0.809   6.878
29875WAT      O89866   6.367   0.788   8.029
29875WAT     H189867   6.355   0.741   7.941
29875WAT     H289868   6.278   0.820   8.062
29876WAT      O89869   5.610   9.147   0.760
29876WAT     H189870   5.544   9.201   0.812
29876WAT     H289871   5.562   9.088   0.695
29877WAT      O89872   9.500   9.807   0.544
29877WAT     H189873   9.524   9.740   0.475
29877WAT     H289874   9.465   9.761   0.626
29878WAT      O89875   3.577   4.574   4.565
29878WAT     H189876   3.649   4.532   4.620
29878WAT     H289877   3.615   4.607   4.479
29879WAT      O89878   0.045   3.107   7.622
29879WAT     H189879   0.030   3.118   7.524
29879WAT     H289880   0.107   3.179   7.655
29880WAT      O89881   1.407   4.259   4.318
29880WAT     H189882   1.492   4.309   4.301
29880WAT     H289883   1.347   4.313   4.378
29881WAT      O89884   6.879   7.722   5.941
29881WAT     H189885   6.855   7.625   5.942
29881WAT     H289886   6.976   7.732   5.919
29882WAT      O89887   1.685   5.292   4.959
29882WAT     H189888   1.615   5.273   5.029
29882WAT     H289889   1.775   5.274   4.997
29883WAT      O89890   4.576   8.986   0.033
29883WAT     H189891   4.499   9.049   0.048
29883WAT     H289892   4.654   9.036  -0.003
29884WAT      O89893   0.736   1.479   1.365
29884WAT     H189894   0.699   1.387   1.347
29884WAT     H289895   0.835   1.475   1.368
29885WAT      O89896   2.626   9.213   2.935
29885WAT     H189897   2.637   9.243   3.030
29885WAT     H289898   2.529   9.213   2.911
29886WAT      O89899   6.504   8.541   8.308
29886WAT     H189900   6.597   8.575   8.320
29886WAT     H289901   6.449   8.612   8.264
29887WAT      O89902   8.471   0.667   4.966
29887WAT     H189903   8.375   0.691   4.982
29887WAT     H289904   8.522   0.748   4.937
29888WAT      O89905   7.624   6.184   1.068
29888WAT     H189906   7.683   6.244   1.121
29888WAT     H289907   7.539   6.167   1.118
29889WAT      O89908   9.132   7.663   9.000
29889WAT     H189909   9.122   7.743   9.059
29889WAT     H289910   9.217   7.671   8.947
29890WAT      O89911   6.352   5.104   2.793
29890WAT     H189912   6.363   5.029   2.858
29890WAT     H289913   6.255   5.115   2.770
29891WAT      O89914   7.635   0.412   7.541
29891WAT     H189915   7.573   0.464   7.600
29891WAT     H289916   7.582   0.349   7.484
29892WAT      O89917   6.527   0.237   9.173
29892WAT     H189918   6.569   0.323   9.143
29892WAT     H289919   6.559   0.214   9.265
29893WAT      O89920   1.647   1.707   5.589
29893WAT     H189921   1.744   1.695   5.567
29893WAT     H289922   1.633   1.798   5.628
29894WAT      O89923   1.964   7.270   8.852
29894WAT     H189924   1.870   7.266   8.887
29894WAT     H289925   1.975   7.201   8.780
29895WAT      O89926   3.391   7.960   4.187
29895WAT     H189927   3.364   7.869   4.219
29895WAT     H289928   3.403   7.958   4.088
29896WAT      O89929   2.049   0.080   0.813
29896WAT     H189930   2.066  -0.000   0.871
29896WAT     H289931   1.987   0.055   0.739
29897WAT      O89932   0.291   6.128   0.724
29897WAT     H189933   0.251   6.095   0.810
29897WAT     H289934   0.295   6.053   0.658
29898WAT      O89935   2.846   6.885   7.942
29898WAT     H189936   2.763   6.893   7.887
29898WAT     H289937   2.910   6.822   7.897
29899WAT      O89938   9.399   2.895   2.319
29899WAT     H189939   9.314   2.946   2.333
29899WAT     H289940   9.465   2.953   2.271
29900WAT      O89941   5.959   6.351   8.676
29900WAT     H189942   5.898   6.294   8.731
29900WAT     H289943   6.048   6.306   8.667
29901WAT      O89944   8.458   5.180   4.052
29901WAT     H189945   8.395   5.210   3.980
29901WAT     H289946   8.407   5.140   4.127
29902WAT      O89947   8.618   8.941   0.063
29902WAT     H189948   8.530   8.937   0.016
29902WAT     H289949   8.692   8.942  -0.005
29903WAT      O89950   3.599   3.968   9.053
29903WAT     H189951   3.662   3.890   9.058
29903WAT     H289952   3.521   3.944   8.996
29904WAT      O89953   8.160   7.343   9.399
29904WAT     H189954   8.186   7.436   9.426
29904WAT     H289955   8.094   7.307   9.466
29905WAT      O89956   5.954   6.052   8.515
29905WAT     H189957   6.025   6.003   8.464
29905WAT     H289958   5.939   6.008   8.603
29906WAT      O89959   8.032   1.792   3.817
29906WAT     H189960   8.064   1.708   3.773
29906WAT     H289961   7.966   1.770   3.889
29907WAT      O89962   6.491   6.377   1.830
29907WAT     H189963   6.490   6.477   1.827
29907WAT     H289964   6.486   6.342   1.736
29908WAT      O89965   3.026   4.696   9.163
29908WAT     H189966   2.955   4.637   9.125
29908WAT     H289967   3.016   4.789   9.127
29909WAT      O89968   2.129   3.664   1.753
29909WAT     H189969   2.036   3.697   1.735
29909WAT     H289970   2.125   3.591   1.822
29910WAT      O89971   6.933   0.213   0.289
29910WAT     H189972   6.841   0.252   0.293
29910WAT     H289973   6.928   0.114   0.296
29911WAT      O89974   6.488   2.845   8.147
29911WAT     H189975   6.451   2.752   8.142
29911WAT     H289976   6.425   2.903   8.198
29912WAT      O89977   5.868   6.700   2.975
29912WAT     H189978   5.784   6.648   2.990
29912WAT     H289979   5.860   6.752   2.890
29913WAT      O89980   7.013   2.671   7.873
29913WAT     H189981   7.099   2.670   7.821
29913WAT     H289982   7.001   2.761   7.915
29914WAT      O89983   2.546   5.336   2.791
29914WAT     H189984   2.563   5.358   2.887
29914WAT     H289985   2.491   5.253   2.785
29915WAT      O89986   3.770   6.178   7.219
29915WAT     H189987   3.741   6.169   7.314
29915WAT     H289988   3.869   6.192   7.215
29916WAT      O89989   5.600   6.706   9.249
29916WAT     H189990   5.536   6.783   9.257
29916WAT     H289991   5.606   6.677   9.154
29917WAT      O89992   6.668   5.934   1.984
29917WAT     H189993   6.756   5.980   1.984
29917WAT     H289994   6.625   5.945   1.894
29918WAT      O89995   8.360   9.066   6.081
29918WAT     H189996   8.267   9.057   6.115
29918WAT     H289997   8.364   9.137   6.011
29919WAT      O89998   5.686   4.472   4.249
29919WAT     H189999   5.688   4.490   4.348
29919WAT     H290000   5.625   4.395   4.231
29920WAT      O90001   2.503   5.231   4.078
29920WAT     H190002   2.435   5.303   4.087
29920WAT     H290003   2.569   5.256   4.008
29921WAT      O90004   8.418   4.151   9.132
29921WAT     H190005   8.345   4.117   9.191
29921WAT     H290006   8.494   4.185   9.187
29922WAT      O90007   5.911   9.139   2.332
29922WAT     H190008   5.886   9.074   2.404
29922WAT     H290009   5.836   9.146   2.266
29923WAT      O90010   7.099   2.352   3.882
29923WAT     H190011   7.054   2.302   3.808
29923WAT     H290012   7.124   2.444   3.850
29924WAT      O90013   2.321   1.448   1.411
29924WAT     H190014   2.306   1.349   1.402
29924WAT     H290015   2.379   1.480   1.337
29925WAT      O90016   4.857   0.979   4.482
29925WAT     H190017   4.824   1.073   4.473
29925WAT     H290018   4.845   0.948   4.576
29926WAT      O90019   5.224   7.710   2.675
29926WAT     H190020   5.162   7.763   2.618
29926WAT     H290021   5.315   7.708   2.633
29927WAT      O90022   1.300   0.493   3.278
29927WAT     H190023   1.339   0.566   3.222
29927WAT     H290024   1.335   0.404   3.248
29928WAT      O90025   2.110   4.518   4.311
29928WAT     H190026   2.069   4.466   4.236
29928WAT     H290027   2.038   4.549   4.373
29929WAT      O90028   4.291   8.076   8.136
29929WAT     H190029   4.221   8.105   8.072
29929WAT     H290030   4.377   8.125   8.117
29930WAT      O90031   5.767   1.768   7.543
29930WAT     H190032   5.721   1.710   7.610
29930WAT     H290033   5.864   1.745   7.541
29931WAT      O90034   9.603   8.052   0.050
29931WAT     H190035   9.529   8.114   0.075
29931WAT     H290036   9.605   8.040  -0.049
29932WAT      O90037   1.977   5.945   9.143
29932WAT     H190038   2.020   5.865   9.184
29932WAT     H290039   2.019   5.964   9.054
29933WAT      O90040   2.899   3.464   5.883
29933WAT     H190041   2.982   3.410   5.895
29933WAT     H290042   2.836   3.414   5.822
29934WAT      O90043   1.237   7.636   8.793
29934WAT     H190044   1.272   7.554   8.748
29934WAT     H290045   1.226   7.618   8.891
29935WAT      O90046   1.742   9.176   5.413
29935WAT     H190047   1.724   9.260   5.463
29935WAT     H290048   1.678   9.167   5.337
29936WAT      O90049   3.531   1.302   8.707
29936WAT     H190050   3.564   1.279   8.798
29936WAT     H290051   3.477   1.226   8.670
29937WAT      O90052   9.866   3.436   4.202
29937WAT     H190053   9.911   3.457   4.290
29937WAT     H290054   9.934   3.400   4.138
29938WAT      O90055   8.418   4.669   9.477
29938WAT     H190056   8.471   4.588   9.451
29938WAT     H290057   8.330   4.641   9.514
29939WAT      O90058   9.339   3.310   9.619
29939WAT     H190059   9.340   3.288   9.521
29939WAT     H290060   9.277   3.386   9.635
29940WAT      O90061   1.734   9.196   6.051
29940WAT     H190062   1.690   9.106   6.054
29940WAT     H290063   1.674   9.261   6.006
29941WAT      O90064   0.932   6.933   0.743
29941WAT     H190065   1.010   6.871   0.736
29941WAT     H290066   0.934   6.998   0.667
29942WAT      O90067   0.250   6.508   6.475
29942WAT     H190068   0.217   6.570   6.546
29942WAT     H290069   0.259   6.416   6.512
29943WAT      O90070   1.815   0.034   5.741
29943WAT     H190071   1.828   0.103   5.671
29943WAT     H290072   1.819   0.076   5.832
29944WAT      O90073   4.857   2.956   9.153
29944WAT     H190074   4.814   3.040   9.120
29944WAT     H290075   4.956   2.962   9.140
29945WAT      O90076   0.188   3.417   7.388
29945WAT     H190077   0.267   3.454   7.436
29945WAT     H290078   0.150   3.487   7.328
29946WAT      O90079   5.728   3.251   9.817
29946WAT     H190080   5.667   3.329   9.809
29946WAT     H290081   5.681   3.177   9.867
29947WAT      O90082   7.917   5.584   6.433
29947WAT     H190083   7.981   5.508   6.446
29947WAT     H290084   7.934   5.627   6.344
29948WAT      O90085   2.636   8.169   2.712
29948WAT     H190086   2.682   8.111   2.644
29948WAT     H290087   2.705   8.219   2.764
29949WAT      O90088   3.856   4.773   4.564
29949WAT     H190089   3.762   4.792   4.594
29949WAT     H290090   3.884   4.841   4.497
29950WAT      O90091   4.115   3.578   3.684
29950WAT     H190092   4.119   3.663   3.736
29950WAT     H290093   4.087   3.598   3.590
29951WAT      O90094   9.646   7.898   3.651
29951WAT     H190095   9.571   7.881   3.588
29951WAT     H290096   9.729   7.855   3.615
29952WAT      O90097   0.625   6.880   4.445
29952WAT     H190098   0.576   6.803   4.402
29952WAT     H290099   0.723   6.871   4.426
29953WAT      O90100   5.231   8.685   4.035
29953WAT     H190101   5.151   8.664   3.979
29953WAT     H290102   5.221   8.644   4.126
29954WAT      O90103   8.980   3.022   4.701
29954WAT     H190104   8.880   3.025   4.709
29954WAT     H290105   9.006   3.033   4.606
29955WAT      O90106   8.942   3.492   5.290
29955WAT     H190107   8.943   3.532   5.198
29955WAT     H290108   8.895   3.554   5.353
29956WAT      O90109   8.187   2.579   9.458
29956WAT     H190110   8.230   2.667   9.475
29956WAT     H290111   8.115   2.562   9.525
29957WAT      O90112   6.011   5.894   1.675
29957WAT     H190113   5.970   5.804   1.660
29957WAT     H290114   5.940   5.960   1.696
29958WAT      O90115   6.092   5.368   5.561
29958WAT     H190116   6.080   5.423   5.479
29958WAT     H290117   6.026   5.395   5.631
29959WAT      O90118   4.015   4.672   9.325
29959WAT     H190119   4.006   4.718   9.236
29959WAT     H290120   4.069   4.730   9.387
29960WAT      O90121   4.054   2.089   8.758
29960WAT     H190122   4.100   2.005   8.788
29960WAT     H290123   4.114   2.140   8.697
29961WAT      O90124   9.450   3.578   9.506
29961WAT     H190125   9.357   3.582   9.544
29961WAT     H290126   9.516   3.589   9.580
29962WAT      O90127   3.351   2.124   2.971
29962WAT     H190128   3.327   2.027   2.978
29962WAT     H290129   3.412   2.149   3.045
29963WAT      O90130   7.522   6.564   4.551
29963WAT     H190131   7.507   6.660   4.529
29963WAT     H290132   7.483   6.507   4.479
29964WAT      O90133   1.965   2.418   7.111
29964WAT     H190134   2.061   2.442   7.126
29964WAT     H290135   1.956   2.319   7.100
29965WAT      O90136   5.072   8.026   5.912
29965WAT     H190137   5.160   7.980   5.905
29965WAT     H290138   5.076   8.114   5.865
29966WAT      O90139   4.136   6.172   3.903
29966WAT     H190140   4.064   6.142   3.841
29966WAT     H290141   4.218   6.195   3.850
29967WAT      O90142   4.151   3.745   6.319
29967WAT     H190143   4.195   3.667   6.362
29967WAT     H290144   4.077   3.714   6.260
29968WAT      O90145   1.761   6.480   6.479
29968WAT     H190146   1.665   6.491   6.505
29968WAT     H290147   1.793   6.564   6.435
29969WAT      O90148   5.810   7.915   9.671
29969WAT     H190149   5.850   8.005   9.654
29969WAT     H290150   5.832   7.885   9.764
29970WAT      O90151   3.560   1.277   2.809
29970WAT     H190152   3.627   1.350   2.802
29970WAT     H290153   3.600   1.191   2.776
29971WAT      O90154   7.276   5.254   3.771
29971WAT     H190155   7.200   5.271   3.708
29971WAT     H290156   7.342   5.192   3.728
29972WAT      O90157   4.786   8.289   0.127
29972WAT     H190158   4.804   8.344   0.046
29972WAT     H290159   4.687   8.287   0.145
29973WAT      O90160   8.740   5.030   4.593
29973WAT     H190161   8.679   4.951   4.604
29973WAT     H290162   8.686   5.109   4.563
29974WAT      O90163   7.455   7.475   6.856
29974WAT     H190164   7.356   7.465   6.864
29974WAT     H290165   7.489   7.530   6.932
29975WAT      O90166   1.531   9.600   3.799
29975WAT     H190167   1.597   9.526   3.787
29975WAT     H290168   1.521   9.620   3.896
29976WAT      O90169   4.249   4.301   6.783
29976WAT     H190170   4.247   4.333   6.689
29976WAT     H290171   4.159   4.313   6.824
29977WAT      O90172   2.481   3.836   4.705
29977WAT     H190173   2.489   3.919   4.650
29977WAT     H290174   2.562   3.825   4.762
29978WAT      O90175   0.918   1.205   9.668
29978WAT     H190176   0.926   1.292   9.717
29978WAT     H290177   0.822   1.185   9.652
29979WAT      O90178   6.617   4.160   9.844
29979WAT     H190179   6.641   4.076   9.794
29979WAT     H290180   6.689   4.180   9.911
29980WAT      O90181   4.861   7.891   2.341
29980WAT     H190182   4.903   7.981   2.341
29980WAT     H290183   4.807   7.880   2.258
29981WAT      O90184   6.074   5.588   5.074
29981WAT     H190185   6.057   5.683   5.045
29981WAT     H290186   6.173   5.571   5.075
29982WAT      O90187   0.700   7.990   3.506
29982WAT     H190188   0.680   8.081   3.469
29982WAT     H290189   0.783   7.995   3.562
29983WAT      O90190   8.060   0.715   0.965
29983WAT     H190191   8.076   0.626   1.006
29983WAT     H290192   8.148   0.760   0.947
29984WAT      O90193   8.053   5.646   5.108
29984WAT     H190194   8.108   5.723   5.076
29984WAT     H290195   8.039   5.581   5.033
29985WAT      O90196   4.831   4.126   7.385
29985WAT     H190197   4.781   4.071   7.317
29985WAT     H290198   4.821   4.223   7.363
29986WAT      O90199   3.560   6.486   1.498
29986WAT     H190200   3.574   6.519   1.405
29986WAT     H290201   3.540   6.388   1.496
29987WAT      O90202   2.359   3.569   5.510
29987WAT     H190203   2.377   3.597   5.416
29987WAT     H290204   2.436   3.514   5.544
29988WAT      O90205   4.945   2.175   1.884
29988WAT     H190206   4.988   2.214   1.803
29988WAT     H290207   4.851   2.148   1.862
29989WAT      O90208   1.981   4.898   9.501
29989WAT     H190209   1.981   4.859   9.409
29989WAT     H290210   2.074   4.930   9.523
29990WAT      O90211   8.084   2.160   6.119
29990WAT     H190212   8.105   2.100   6.196
29990WAT     H290213   8.002   2.213   6.140
29991WAT      O90214   6.872   1.900   8.886
29991WAT     H190215   6.816   1.958   8.827
29991WAT     H290216   6.851   1.804   8.869
29992WAT      O90217   9.863   2.359   8.520
29992WAT     H190218   9.957   2.388   8.500
29992WAT     H290219   9.800   2.407   8.458
29993WAT      O90220   1.655   1.428   6.550
29993WAT     H190221   1.626   1.445   6.456
29993WAT     H290222   1.679   1.332   6.561
29994WAT      O90223   6.594   8.846   7.592
29994WAT     H190224   6.565   8.803   7.507
29994WAT     H290225   6.640   8.933   7.572
29995WAT      O90226   5.730   2.635   8.018
29995WAT     H190227   5.666   2.691   7.966
29995WAT     H290228   5.771   2.566   7.958
29996WAT      O90229   2.188   3.975   4.539
29996WAT     H190230   2.278   3.993   4.500
29996WAT     H290231   2.135   4.060   4.539
29997WAT      O90232   9.215   4.573   6.860
29997WAT     H190233   9.232   4.603   6.767
29997WAT     H290234   9.277   4.622   6.922
29998WAT      O90235   8.970   5.154   6.113
29998WAT     H190236   8.904   5.156   6.038
29998WAT     H290237   8.946   5.222   6.181
29999WAT      O90238   5.589   7.656   6.229
29999WAT     H190239   5.657   7.671   6.157
29999WAT     H290240   5.588   7.734   6.291
30000WAT      O90241   2.280   5.248   3.215
30000WAT     H190242   2.341   5.190   3.269
30000WAT     H290243   2.191   5.202   3.205
30001WAT      O90244   1.223   2.146   1.627
30001WAT     H190245   1.225   2.088   1.709
30001WAT     H290246   1.310   2.195   1.619
30002WAT      O90247   6.735   5.228   6.314
30002WAT     H190248   6.820   5.205   6.360
30002WAT     H290249   6.689   5.144   6.284
30003WAT      O90250   2.877   3.616   0.797
30003WAT     H190251   2.858   3.710   0.770
30003WAT     H290252   2.976   3.601   0.801
30004WAT      O90253   8.102   7.004   8.189
30004WAT     H190254   8.201   7.003   8.204
30004WAT     H290255   8.055   7.016   8.277
30005WAT      O90256   7.828   6.295   1.210
30005WAT     H190257   7.849   6.305   1.308
30005WAT     H290258   7.836   6.384   1.165
30006WAT      O90259   6.952   5.547   1.551
30006WAT     H190260   6.928   5.450   1.549
30006WAT     H290261   6.946   5.584   1.458
30007WAT      O90262   0.147   5.013   9.076
30007WAT     H190263   0.237   4.973   9.060
30007WAT     H290264   0.122   5.071   8.999
30008WAT      O90265   5.747   2.367   6.606
30008WAT     H190266   5.649   2.356   6.620
30008WAT     H290267   5.775   2.458   6.637
30009WAT      O90268   0.605   8.888   1.578
30009WAT     H190269   0.655   8.974   1.572
30009WAT     H290270   0.659   8.821   1.628
30010WAT      O90271   5.627   5.225   2.069
30010WAT     H190272   5.583   5.254   2.154
30010WAT     H290273   5.562   5.233   1.993
30011WAT      O90274   0.512   8.604   2.461
30011WAT     H190275   0.436   8.668   2.447
30011WAT     H290276   0.560   8.590   2.374
30012WAT      O90277   2.689   8.177   4.012
30012WAT     H190278   2.646   8.149   4.098
30012WAT     H290279   2.785   8.197   4.028
30013WAT      O90280   4.315   2.209   9.308
30013WAT     H190281   4.251   2.263   9.364
30013WAT     H290282   4.406   2.212   9.350
30014WAT      O90283   3.699   5.165   9.321
30014WAT     H190284   3.606   5.139   9.294
30014WAT     H290285   3.746   5.085   9.359
30015WAT      O90286   5.720   6.465   1.707
30015WAT     H190287   5.654   6.510   1.768
30015WAT     H290288   5.775   6.400   1.759
30016WAT      O90289   5.799   1.342   8.285
30016WAT     H190290   5.895   1.364   8.271
30016WAT     H290291   5.742   1.413   8.243
30017WAT      O90292   3.075   7.489   9.887
30017WAT     H190293   2.987   7.538   9.887
30017WAT     H290294   3.076   7.422   9.813
30018WAT      O90295   9.857   6.632   7.437
30018WAT     H190296   9.913   6.714   7.433
30018WAT     H290297   9.910   6.556   7.475
30019WAT      O90298   2.684   5.922   9.485
30019WAT     H190299   2.607   5.968   9.441
30019WAT     H290300   2.768   5.939   9.434
30020WAT      O90301   1.369   0.631   2.359
30020WAT     H190302   1.323   0.607   2.445
30020WAT     H290303   1.324   0.583   2.284
30021WAT      O90304   5.046   0.318   7.451
30021WAT     H190305   5.032   0.259   7.372
30021WAT     H290306   4.978   0.392   7.450
30022WAT      O90307   7.957   4.629   6.714
30022WAT     H190308   8.038   4.661   6.764
30022WAT     H290309   7.981   4.609   6.619
30023WAT      O90310   2.826   9.832   7.709
30023WAT     H190311   2.850   9.756   7.770
30023WAT     H290312   2.754   9.803   7.646
30024WAT      O90313   1.770   8.260   5.080
30024WAT     H190314   1.796   8.193   5.011
30024WAT     H290315   1.738   8.213   5.162
30025WAT      O90316   9.016   6.790   1.115
30025WAT     H190317   8.927   6.835   1.102
30025WAT     H290318   9.050   6.811   1.206
30026WAT      O90319   2.428   8.932   3.394
30026WAT     H190320   2.399   9.013   3.445
30026WAT     H290321   2.521   8.907   3.421
30027WAT      O90322   1.534   6.738   1.865
30027WAT     H190323   1.552   6.640   1.868
30027WAT     H290324   1.447   6.754   1.817
30028WAT      O90325   9.275   8.671   6.715
30028WAT     H190326   9.252   8.687   6.811
30028WAT     H290327   9.341   8.739   6.684
30029WAT      O90328   4.772   9.138   8.860
30029WAT     H190329   4.843   9.070   8.844
30029WAT     H290330   4.685   9.092   8.879
30030WAT      O90331   3.967   5.886   7.707
30030WAT     H190332   3.974   5.863   7.609
30030WAT     H290333   3.873   5.914   7.728
30031WAT      O90334   9.139   1.603   7.710
30031WAT     H190335   9.194   1.685   7.696
30031WAT     H290336   9.196   1.532   7.753
30032WAT      O90337   0.443   0.773   2.909
30032WAT     H190338   0.451   0.819   2.820
30032WAT     H290339   0.353   0.790   2.947
30033WAT      O90340   2.494   4.352   8.947
30033WAT     H190341   2.397   4.340   8.968
30033WAT     H290342   2.537   4.405   9.020
30034WAT      O90343   7.789   5.813   0.266
30034WAT     H190344   7.694   5.836   0.245
30034WAT     H290345   7.822   5.745   0.201
30035WAT      O90346   1.348   0.858   8.237
30035WAT     H190347   1.306   0.945   8.261
30035WAT     H290348   1.401   0.824   8.315
30036WAT      O90349   5.779   6.289   8.090
30036WAT     H190350   5.679   6.293   8.089
30036WAT     H290351   5.813   6.349   8.162
30037WAT      O90352   0.484   6.502   5.225
30037WAT     H190353   0.429   6.580   5.197
30037WAT     H290354   0.537   6.469   5.147
30038WAT      O90355   4.070   8.515   7.686
30038WAT     H190356   3.975   8.541   7.667
30038WAT     H290357   4.093   8.539   7.780
30039WAT      O90358   0.619   2.426   2.242
30039WAT     H190359   0.618   2.345   2.184
30039WAT     H290360   0.554   2.493   2.207
30040WAT      O90361   2.497   0.211   9.434
30040WAT     H190362   2.424   0.214   9.365
30040WAT     H290363   2.461   0.177   9.520
30041WAT      O90364   6.216   6.301   6.367
30041WAT     H190365   6.283   6.333   6.434
30041WAT     H290366   6.128   6.344   6.385
30042WAT      O90367   4.839   0.103   1.305
30042WAT     H190368   4.856   0.115   1.403
30042WAT     H290369   4.862   0.009   1.279
30043WAT      O90370   8.265   5.715   8.083
30043WAT     H190371   8.343   5.769   8.051
30043WAT     H290372   8.227   5.664   8.005
30044WAT      O90373   4.823   1.154   3.838
30044WAT     H190374   4.793   1.080   3.778
30044WAT     H290375   4.882   1.117   3.909
30045WAT      O90376   8.752   6.671   0.770
30045WAT     H190377   8.665   6.673   0.719
30045WAT     H290378   8.760   6.584   0.818
30046WAT      O90379   9.095   6.837   1.370
30046WAT     H190380   9.012   6.881   1.404
30046WAT     H290381   9.149   6.804   1.448
30047WAT      O90382   9.781   0.072   3.716
30047WAT     H190383   9.869   0.025   3.710
30047WAT     H290384   9.711   0.008   3.747
30048WAT      O90385   8.931   8.478   7.497
30048WAT     H190386   8.837   8.471   7.529
30048WAT     H290387   8.934   8.529   7.411
30049WAT      O90388   3.014   5.585   9.532
30049WAT     H190389   3.055   5.676   9.521
30049WAT     H290390   2.915   5.595   9.547
30050WAT      O90391   1.773   9.208   3.557
30050WAT     H190392   1.834   9.209   3.635
30050WAT     H290393   1.748   9.302   3.532
30051WAT      O90394   6.503   2.481   0.606
30051WAT     H190395   6.575   2.471   0.537
30051WAT     H290396   6.545   2.496   0.695
30052WAT      O90397   5.257   3.202   9.073
30052WAT     H190398   5.258   3.302   9.072
30052WAT     H290399   5.227   3.170   9.162
30053WAT      O90400   0.373   8.424   9.211
30053WAT     H190401   0.352   8.422   9.309
30053WAT     H290402   0.312   8.489   9.166
30054WAT      O90403   9.331   0.467   3.400
30054WAT     H190404   9.232   0.460   3.387
30054WAT     H290405   9.368   0.535   3.336
30055WAT      O90406   8.309   4.444   4.577
30055WAT     H190407   8.398   4.414   4.612
30055WAT     H290408   8.322   4.487   4.487
30056WAT      O90409   7.053   6.647   4.946
30056WAT     H190410   7.136   6.667   4.893
30056WAT     H290411   7.077   6.591   5.025
30057WAT      O90412   3.256   0.975   3.771
30057WAT     H190413   3.238   0.879   3.790
30057WAT     H290414   3.349   0.985   3.736
30058WAT      O90415   4.092   2.123   3.023
30058WAT     H190416   4.100   2.193   2.952
30058WAT     H290417   4.060   2.037   2.983
30059WAT      O90418   6.803   2.444   9.431
30059WAT     H190419   6.834   2.349   9.430
30059WAT     H290420   6.722   2.452   9.489
30060WAT      O90421   5.103   5.696   0.212
30060WAT     H190422   5.022   5.751   0.187
30060WAT     H290423   5.076   5.601   0.222
30061WAT      O90424   4.466   5.971   3.363
30061WAT     H190425   4.406   6.035   3.411
30061WAT     H290426   4.471   5.886   3.415
30062WAT      O90427   0.982   8.665   5.274
30062WAT     H190428   0.919   8.742   5.273
30062WAT     H290429   0.934   8.583   5.308
30063WAT      O90430   8.849   1.336   5.416
30063WAT     H190431   8.935   1.385   5.427
30063WAT     H290432   8.867   1.239   5.401
30064WAT      O90433   4.341   9.303   3.435
30064WAT     H190434   4.374   9.377   3.493
30064WAT     H290435   4.416   9.269   3.378
30065WAT      O90436   5.650   6.859   7.952
30065WAT     H190437   5.571   6.885   8.007
30065WAT     H290438   5.713   6.935   7.946
30066WAT      O90439   5.098   2.062   2.448
30066WAT     H190440   5.188   2.021   2.447
30066WAT     H290441   5.089   2.122   2.528
30067WAT      O90442   4.132   3.409   6.847
30067WAT     H190443   4.111   3.312   6.836
30067WAT     H290444   4.214   3.419   6.904
30068WAT      O90445   4.522   7.038   0.776
30068WAT     H190446   4.530   6.998   0.868
30068WAT     H290447   4.605   7.090   0.755
30069WAT      O90448   2.920   6.208   2.859
30069WAT     H190449   2.876   6.287   2.902
30069WAT     H290450   3.015   6.230   2.837
30070WAT      O90451   2.876   6.369   7.489
30070WAT     H190452   2.895   6.467   7.486
30070WAT     H290453   2.962   6.318   7.499
30071WAT      O90454   3.146   2.290   1.471
30071WAT     H190455   3.163   2.281   1.569
30071WAT     H290456   3.227   2.261   1.420
30072WAT      O90457   1.471   7.127   7.599
30072WAT     H190458   1.496   7.111   7.695
30072WAT     H290459   1.393   7.189   7.595
30073WAT      O90460   2.404   4.446   0.771
30073WAT     H190461   2.485   4.389   0.778
30073WAT     H290462   2.366   4.461   0.863
30074WAT      O90463   9.028   9.351   7.964
30074WAT     H190464   9.017   9.286   8.039
30074WAT     H290465   8.998   9.309   7.878
30075WAT      O90466   1.227   2.550   3.012
30075WAT     H190467   1.179   2.636   3.028
30075WAT     H290468   1.317   2.569   2.973
30076WAT      O90469   3.914   0.184   8.552
30076WAT     H190470   3.922   0.238   8.468
30076WAT     H290471   3.848   0.110   8.537
30077WAT      O90472   6.949   8.538   3.181
30077WAT     H190473   6.889   8.480   3.124
30077WAT     H290474   6.894   8.610   3.223
30078WAT      O90475   9.105   1.076   8.107
30078WAT     H190476   9.074   0.985   8.133
30078WAT     H290477   9.134   1.126   8.188
30079WAT      O90478   9.342   5.083   5.381
30079WAT     H190479   9.335   5.036   5.293
30079WAT     H290480   9.369   5.178   5.366
30080WAT      O90481   2.073   5.378   4.263
30080WAT     H190482   1.988   5.372   4.209
30080WAT     H290483   2.151   5.385   4.201
30081WAT      O90484   2.706   4.755   7.571
30081WAT     H190485   2.660   4.672   7.604
30081WAT     H290486   2.804   4.747   7.587
30082WAT      O90487   1.451   5.377   6.013
30082WAT     H190488   1.369   5.435   6.007
30082WAT     H290489   1.469   5.355   6.108
30083WAT      O90490   5.944   0.146   3.010
30083WAT     H190491   5.875   0.118   2.942
30083WAT     H290492   5.918   0.234   3.049
30084WAT      O90493   1.677   1.821   7.330
30084WAT     H190494   1.664   1.920   7.334
30084WAT     H290495   1.773   1.799   7.348
30085WAT      O90496   0.097   5.324   7.282
30085WAT     H190497  -0.002   5.327   7.269
30085WAT     H290498   0.138   5.409   7.248
30086WAT      O90499   4.777   7.478   6.007
30086WAT     H190500   4.776   7.551   6.075
30086WAT     H290501   4.684   7.464   5.972
30087WAT      O90502   6.344   8.082   8.942
30087WAT     H190503   6.384   8.014   8.880
30087WAT     H290504   6.246   8.093   8.921
30088WAT      O90505   4.710   5.760   8.390
30088WAT     H190506   4.717   5.702   8.308
30088WAT     H290507   4.787   5.740   8.451
30089WAT      O90508   4.997   9.554   6.101
30089WAT     H190509   4.953   9.492   6.036
30089WAT     H290510   4.929   9.590   6.164
30090WAT      O90511   1.507   4.780   1.119
30090WAT     H190512   1.540   4.788   1.213
30090WAT     H290513   1.419   4.825   1.110
30091WAT      O90514   2.711   5.620   2.990
30091WAT     H190515   2.713   5.521   3.003
30091WAT     H290516   2.621   5.655   3.015
30092WAT      O90517   0.454   0.599   3.898
30092WAT     H190518   0.404   0.657   3.833
30092WAT     H290519   0.549   0.592   3.870
30093WAT      O90520   6.998   2.720   2.862
30093WAT     H190521   6.913   2.680   2.898
30093WAT     H290522   7.033   2.788   2.927
30094WAT      O90523   1.315   4.233   1.083
30094WAT     H190524   1.368   4.185   1.013
30094WAT     H290525   1.223   4.195   1.086
30095WAT      O90526   8.885   3.580   5.046
30095WAT     H190527   8.893   3.496   4.993
30095WAT     H290528   8.794   3.620   5.032
30096WAT      O90529   3.456   8.030   0.531
30096WAT     H190530   3.438   8.003   0.437
30096WAT     H290531   3.438   8.128   0.541
30097WAT      O90532   4.552   6.936   6.749
30097WAT     H190533   4.455   6.925   6.730
30097WAT     H290534   4.584   7.025   6.714
30098WAT      O90535   3.931   5.582   4.943
30098WAT     H190536   3.899   5.487   4.939
30098WAT     H290537   3.975   5.606   4.857
30099WAT      O90538   8.104   7.353   0.719
30099WAT     H190539   8.088   7.259   0.690
30099WAT     H290540   8.187   7.388   0.676
30100WAT      O90541   8.798   6.179   4.060
30100WAT     H190542   8.756   6.117   4.126
30100WAT     H290543   8.872   6.229   4.104
30101WAT      O90544   7.198   3.694   9.009
30101WAT     H190545   7.182   3.793   9.003
30101WAT     H290546   7.158   3.649   8.930
30102WAT      O90547   4.540   4.783   1.025
30102WAT     H190548   4.525   4.861   1.086
30102WAT     H290549   4.638   4.765   1.019
30103WAT      O90550   8.384   1.439   8.584
30103WAT     H190551   8.284   1.429   8.587
30103WAT     H290552   8.415   1.484   8.668
30104WAT      O90553   5.477   1.501   7.003
30104WAT     H190554   5.414   1.458   7.067
30104WAT     H290555   5.571   1.492   7.038
30105WAT      O90556   4.621   5.664   3.993
30105WAT     H190557   4.641   5.751   4.038
30105WAT     H290558   4.552   5.614   4.045
30106WAT      O90559   6.895   5.236   1.106
30106WAT     H190560   6.987   5.265   1.081
30106WAT     H290561   6.852   5.190   1.028
30107WAT      O90562   4.271   0.970   4.236
30107WAT     H190563   4.322   1.047   4.274
30107WAT     H290564   4.247   0.907   4.310
30108WAT      O90565   3.045   8.056   0.414
30108WAT     H190566   3.101   8.134   0.442
30108WAT     H290567   3.015   8.070   0.319
30109WAT      O90568   5.458   1.153   8.354
30109WAT     H190569   5.476   1.226   8.289
30109WAT     H290570   5.463   1.064   8.307
30110WAT      O90571   8.877   3.683   6.509
30110WAT     H190572   8.941   3.609   6.531
30110WAT     H290573   8.893   3.713   6.415
30111WAT      O90574   9.492   5.979   1.271
30111WAT     H190575   9.424   5.972   1.345
30111WAT     H290576   9.465   5.918   1.197
30112WAT      O90577   2.743   9.598   0.167
30112WAT     H190578   2.659   9.544   0.173
30112WAT     H290579   2.754   9.652   0.251
30113WAT      O90580   1.024   1.607   2.911
30113WAT     H190581   1.043   1.687   2.854
30113WAT     H290582   1.001   1.529   2.853
30114WAT      O90583   7.933   0.543   3.735
30114WAT     H190584   8.001   0.487   3.687
30114WAT     H290585   7.941   0.638   3.704
30115WAT      O90586   0.043   9.476   9.172
30115WAT     H190587   0.060   9.386   9.211
30115WAT     H290588   0.129   9.516   9.141
30116WAT      O90589   1.645   9.541   0.033
30116WAT     H190590   1.699   9.614   0.074
30116WAT     H290591   1.579   9.580  -0.031
30117WAT      O90592   7.930   4.173   7.013
30117WAT     H190593   7.962   4.262   6.981
30117WAT     H290594   7.867   4.134   6.946
30118WAT      O90595   2.718   9.775   9.401
30118WAT     H190596   2.673   9.861   9.426
30118WAT     H290597   2.794   9.794   9.339
30119WAT      O90598   2.161   8.545   7.051
30119WAT     H190599   2.196   8.460   7.011
30119WAT     H290600   2.080   8.524   7.105
30120WAT      O90601   2.450   4.780   4.360
30120WAT     H190602   2.469   4.754   4.455
30120WAT     H290603   2.511   4.855   4.333
30121WAT      O90604   9.450   3.714   4.545
30121WAT     H190605   9.494   3.625   4.560
30121WAT     H290606   9.358   3.713   4.583
30122WAT      O90607   1.105   7.304   6.780
30122WAT     H190608   1.167   7.364   6.730
30122WAT     H290609   1.155   7.223   6.810
30123WAT      O90610   8.089   2.345   2.700
30123WAT     H190611   8.058   2.289   2.623
30123WAT     H290612   8.021   2.416   2.719
30124WAT      O90613   0.404   4.259   4.277
30124WAT     H190614   0.431   4.354   4.294
30124WAT     H290615   0.456   4.224   4.199
30125WAT      O90616   3.508   1.443   8.051
30125WAT     H190617   3.444   1.519   8.065
30125WAT     H290618   3.514   1.389   8.135
30126WAT      O90619   2.075   7.617   7.614
30126WAT     H190620   1.978   7.612   7.587
30126WAT     H290621   2.083   7.602   7.712
30127WAT      O90622   0.516   4.185   6.922
30127WAT     H190623   0.609   4.220   6.919
30127WAT     H290624   0.471   4.217   7.005
30128WAT      O90625   8.683   4.965   2.905
30128WAT     H190626   8.672   4.890   2.970
30128WAT     H290627   8.748   5.032   2.943
30129WAT      O90628   0.232   9.361   2.152
30129WAT     H190629   0.140   9.342   2.118
30129WAT     H290630   0.296   9.294   2.114
30130WAT      O90631   1.371   3.368   4.200
30130WAT     H190632   1.298   3.336   4.260
30130WAT     H290633   1.408   3.291   4.149
30131WAT      O90634   0.546   3.646   9.854
30131WAT     H190635   0.573   3.742   9.851
30131WAT     H290636   0.531   3.619   9.949
30132WAT      O90637   4.484   2.960   6.508
30132WAT     H190638   4.495   2.861   6.512
30132WAT     H290639   4.546   2.998   6.439
30133WAT      O90640   9.081   6.558   1.604
30133WAT     H190641   9.122   6.647   1.623
30133WAT     H290642   8.986   6.569   1.575
30134WAT      O90643   4.897   7.595   8.118
30134WAT     H190644   4.825   7.541   8.162
30134WAT     H290645   4.983   7.583   8.167
30135WAT      O90646   8.054   6.666   1.518
30135WAT     H190647   8.006   6.749   1.546
30135WAT     H290648   8.147   6.668   1.553
30136WAT      O90649   0.957   2.811   6.596
30136WAT     H190650   1.041   2.865   6.593
30136WAT     H290651   0.891   2.847   6.531
30137WAT      O90652   1.655   5.980   5.637
30137WAT     H190653   1.573   6.037   5.638
30137WAT     H290654   1.692   5.978   5.544
30138WAT      O90655   5.747   8.111   8.421
30138WAT     H190656   5.800   8.027   8.432
30138WAT     H290657   5.792   8.169   8.353
30139WAT      O90658   4.057   1.968   7.057
30139WAT     H190659   4.083   2.042   7.118
30139WAT     H290660   3.959   1.974   7.037
30140WAT      O90661   6.964   3.680   6.937
30140WAT     H190662   7.033   3.687   6.865
30140WAT     H290663   6.936   3.585   6.948
30141WAT      O90664   5.430   6.264   9.506
30141WAT     H190665   5.475   6.229   9.424
30141WAT     H290666   5.447   6.362   9.514
30142WAT      O90667   9.669   4.959   0.010
30142WAT     H190668   9.575   4.989  -0.009
30142WAT     H290669   9.668   4.894   0.087
30143WAT      O90670   2.656   7.067   8.848
30143WAT     H190671   2.741   7.025   8.815
30143WAT     H290672   2.676   7.131   8.922
30144WAT      O90673   6.788   8.634   4.987
30144WAT     H190674   6.782   8.707   5.056
30144WAT     H290675   6.877   8.589   4.994
30145WAT      O90676   0.207   7.962   7.361
30145WAT     H190677   0.120   7.945   7.314
30145WAT     H290678   0.239   8.054   7.338
30146WAT      O90679   4.381   9.419   5.374
30146WAT     H190680   4.282   9.433   5.384
30146WAT     H290681   4.407   9.334   5.421
30147WAT      O90682   9.805   3.468   8.805
30147WAT     H190683   9.716   3.512   8.790
30147WAT     H290684   9.819   3.453   8.903
30148WAT      O90685   0.187   9.626   5.641
30148WAT     H190686   0.109   9.581   5.597
30148WAT     H290687   0.158   9.662   5.730
30149WAT      O90688   5.747   7.747   8.827
30149WAT     H190689   5.723   7.666   8.773
30149WAT     H290690   5.705   7.828   8.785
30150WAT      O90691   0.987   0.594   1.685
30150WAT     H190692   1.086   0.589   1.699
30150WAT     H290693   0.961   0.535   1.608
30151WAT      O90694   6.581   4.805   4.941
30151WAT     H190695   6.666   4.752   4.944
30151WAT     H290696   6.598   4.892   4.894
30152WAT      O90697   1.383   3.262   9.138
30152WAT     H190698   1.385   3.204   9.056
30152WAT     H290699   1.454   3.232   9.201
30153WAT      O90700   8.916   0.358   5.708
30153WAT     H190701   8.979   0.340   5.633
30153WAT     H290702   8.951   0.314   5.791
30154WAT      O90703   8.423   2.724   0.067
30154WAT     H190704   8.404   2.808   0.118
30154WAT     H290705   8.380   2.730  -0.023
30155WAT      O90706   7.962   2.803   7.041
30155WAT     H190707   7.878   2.749   7.037
30155WAT     H290708   7.953   2.875   7.110
30156WAT      O90709   7.988   4.149   0.074
30156WAT     H190710   7.915   4.113   0.015
30156WAT     H290711   8.023   4.234   0.036
30157WAT      O90712   8.605   5.102   0.917
30157WAT     H190713   8.655   5.030   0.965
30157WAT     H290714   8.524   5.127   0.970
30158WAT      O90715   9.286   1.559   4.416
30158WAT     H190716   9.229   1.597   4.343
30158WAT     H290717   9.230   1.500   4.474
30159WAT      O90718   1.940   5.018   5.028
30159WAT     H190719   1.871   4.946   5.021
30159WAT     H290720   1.906   5.093   5.084
30160WAT      O90721   2.242   5.802   7.728
30160WAT     H190722   2.297   5.741   7.670
30160WAT     H290723   2.155   5.822   7.683
30161WAT      O90724   2.507   6.308   1.919
30161WAT     H190725   2.525   6.283   1.824
30161WAT     H290726   2.546   6.239   1.980
30162WAT      O90727   7.177   9.788   4.927
30162WAT     H190728   7.272   9.760   4.935
30162WAT     H290729   7.169   9.887   4.943
30163WAT      O90730   4.334   4.465   9.850
30163WAT     H190731   4.433   4.454   9.862
30163WAT     H290732   4.287   4.435   9.933
30164WAT      O90733   7.334   1.391   2.547
30164WAT     H190734   7.392   1.465   2.582
30164WAT     H290735   7.393   1.318   2.511
30165WAT      O90736   6.123   6.630   5.146
30165WAT     H190737   6.103   6.728   5.139
30165WAT     H290738   6.049   6.584   5.195
30166WAT      O90739   0.403   2.554   5.832
30166WAT     H190740   0.325   2.516   5.882
30166WAT     H290741   0.451   2.620   5.890
30167WAT      O90742   5.662   5.621   9.267
30167WAT     H190743   5.636   5.586   9.177
30167WAT     H290744   5.658   5.548   9.334
30168WAT      O90745   5.427   0.922   1.979
30168WAT     H190746   5.492   0.893   1.909
30168WAT     H290747   5.336   0.886   1.957
30169WAT      O90748   0.389   5.236   7.329
30169WAT     H190749   0.290   5.246   7.326
30169WAT     H290750   0.425   5.284   7.410
30170WAT      O90751   5.818   8.299   2.399
30170WAT     H190752   5.809   8.245   2.315
30170WAT     H290753   5.903   8.352   2.395
30171WAT      O90754   6.854   7.923   3.356
30171WAT     H190755   6.861   8.020   3.378
30171WAT     H290756   6.765   7.888   3.385
30172WAT      O90757   9.138   9.052   9.132
30172WAT     H190758   9.087   9.137   9.121
30172WAT     H290759   9.222   9.056   9.078
30173WAT      O90760   2.392   9.700   3.389
30173WAT     H190761   2.325   9.680   3.461
30173WAT     H290762   2.416   9.615   3.343
30174WAT      O90763   9.592   1.425   9.205
30174WAT     H190764   9.684   1.448   9.234
30174WAT     H290765   9.535   1.507   9.204
30175WAT      O90766   1.454   3.275   3.549
30175WAT     H190767   1.524   3.266   3.620
30175WAT     H290768   1.495   3.259   3.459
30176WAT      O90769   8.997   4.837   5.382
30176WAT     H190770   8.980   4.899   5.458
30176WAT     H290771   8.953   4.749   5.401
30177WAT      O90772   1.086   8.380   7.440
30177WAT     H190773   1.018   8.317   7.402
30177WAT     H290774   1.174   8.334   7.447
30178WAT      O90775   7.925   3.343   9.542
30178WAT     H190776   7.890   3.280   9.611
30178WAT     H290777   7.977   3.291   9.474
30179WAT      O90778   5.478   8.800   1.632
30179WAT     H190779   5.465   8.861   1.711
30179WAT     H290780   5.522   8.851   1.558
30180WAT      O90781   6.909   6.750   2.899
30180WAT     H190782   6.845   6.688   2.944
30180WAT     H290783   6.886   6.845   2.922
30181WAT      O90784   9.527   3.802   4.073
30181WAT     H190785   9.542   3.782   4.169
30181WAT     H290786   9.429   3.818   4.058
30182WAT      O90787   3.671   0.693   4.861
30182WAT     H190788   3.638   0.741   4.780
30182WAT     H290789   3.645   0.743   4.943
30183WAT      O90790   7.889   4.689   2.924
30183WAT     H190791   7.864   4.698   3.021
30183WAT     H290792   7.980   4.727   2.910
30184WAT      O90793   1.006   3.505   8.500
30184WAT     H190794   1.059   3.465   8.575
30184WAT     H290795   0.954   3.583   8.534
30185WAT      O90796   9.255   7.594   5.222
30185WAT     H190797   9.227   7.528   5.292
30185WAT     H290798   9.301   7.545   5.148
30186WAT      O90799   1.373   1.023   5.299
30186WAT     H190800   1.325   0.960   5.238
30186WAT     H290801   1.469   1.029   5.272
30187WAT      O90802   3.794   4.574   9.645
30187WAT     H190803   3.783   4.557   9.743
30187WAT     H290804   3.884   4.543   9.615
30188WAT      O90805   5.548   5.566   3.143
30188WAT     H190806   5.515   5.647   3.191
30188WAT     H290807   5.522   5.484   3.195
30189WAT      O90808   3.048   7.421   0.880
30189WAT     H190809   3.146   7.436   0.882
30189WAT     H290810   3.017   7.387   0.969
30190WAT      O90811   2.187   5.183   1.559
30190WAT     H190812   2.237   5.117   1.504
30190WAT     H290813   2.097   5.146   1.582
30191WAT      O90814   2.921   0.082   9.559
30191WAT     H190815   2.943  -0.008   9.520
30191WAT     H290816   2.940   0.153   9.491
30192WAT      O90817   1.042   0.648   6.780
30192WAT     H190818   0.986   0.623   6.859
30192WAT     H290819   1.068   0.744   6.787
30193WAT      O90820   9.272   8.658   0.891
30193WAT     H190821   9.222   8.579   0.926
30193WAT     H290822   9.231   8.742   0.929
30194WAT      O90823   7.689   1.321   6.381
30194WAT     H190824   7.610   1.300   6.438
30194WAT     H290825   7.672   1.291   6.287
30195WAT      O90826   7.612   6.757   4.347
30195WAT     H190827   7.601   6.677   4.288
30195WAT     H290828   7.706   6.792   4.339
30196WAT      O90829   2.169   7.879   0.715
30196WAT     H190830   2.241   7.810   0.707
30196WAT     H290831   2.192   7.958   0.659
30197WAT      O90832   9.359   9.350   0.285
30197WAT     H190833   9.361   9.262   0.332
30197WAT     H290834   9.444   9.363   0.234
30198WAT      O90835   7.990   1.007   7.378
30198WAT     H190836   8.044   1.048   7.305
30198WAT     H290837   7.991   0.907   7.367
30199WAT      O90838   8.844   1.016   6.736
30199WAT     H190839   8.786   1.086   6.778
30199WAT     H290840   8.861   0.943   6.802
30200WAT      O90841   2.000   1.260   9.767
30200WAT     H190842   1.919   1.224   9.814
30200WAT     H290843   1.988   1.251   9.668
30201WAT      O90844   9.676   3.779   8.884
30201WAT     H190845   9.766   3.781   8.842
30201WAT     H290846   9.614   3.724   8.828
30202WAT      O90847   1.421   0.341   5.451
30202WAT     H190848   1.476   0.424   5.458
30202WAT     H290849   1.385   0.318   5.542
30203WAT      O90850   7.006   4.808   6.566
30203WAT     H190851   7.102   4.836   6.555
30203WAT     H290852   7.003   4.720   6.613
30204WAT      O90853   0.918   4.545   4.772
30204WAT     H190854   0.868   4.477   4.825
30204WAT     H290855   0.888   4.541   4.676
30205WAT      O90856   9.722   1.457   4.141
30205WAT     H190857   9.624   1.440   4.137
30205WAT     H290858   9.739   1.553   4.161
30206WAT      O90859   3.149   7.505   2.772
30206WAT     H190860   3.089   7.564   2.826
30206WAT     H290861   3.229   7.557   2.742
30207WAT      O90862   5.866   5.289   6.963
30207WAT     H190863   5.782   5.264   6.915
30207WAT     H290864   5.846   5.361   7.029
30208WAT      O90865   0.766   7.949   5.197
30208WAT     H190866   0.751   7.907   5.107
30208WAT     H290867   0.711   8.032   5.204
30209WAT      O90868   7.545   3.205   5.081
30209WAT     H190869   7.532   3.157   4.995
30209WAT     H290870   7.485   3.285   5.085
30210WAT      O90871   9.504   9.245   9.509
30210WAT     H190872   9.481   9.190   9.589
30210WAT     H290873   9.595   9.284   9.521
30211WAT      O90874   6.722   0.838   1.075
30211WAT     H190875   6.777   0.756   1.063
30211WAT     H290876   6.782   0.917   1.084
30212WAT      O90877   4.959   1.709   0.287
30212WAT     H190878   4.988   1.793   0.242
30212WAT     H290879   5.002   1.631   0.241
30213WAT      O90880   7.407   3.278   4.753
30213WAT     H190881   7.321   3.233   4.775
30213WAT     H290882   7.476   3.210   4.730
30214WAT      O90883   3.345   4.049   1.695
30214WAT     H190884   3.414   3.979   1.711
30214WAT     H290885   3.377   4.136   1.732
30215WAT      O90886   8.094   4.889   7.996
30215WAT     H190887   8.020   4.923   8.053
30215WAT     H290888   8.115   4.956   7.925
30216WAT      O90889   4.795   4.946   6.342
30216WAT     H190890   4.750   5.019   6.290
30216WAT     H290891   4.727   4.877   6.367
30217WAT      O90892   1.526   5.536   9.081
30217WAT     H190893   1.580   5.473   9.026
30217WAT     H290894   1.469   5.592   9.021
30218WAT      O90895   9.342   6.449   0.776
30218WAT     H190896   9.424   6.445   0.719
30218WAT     H290897   9.301   6.358   0.782
30219WAT      O90898   6.103   1.846   3.749
30219WAT     H190899   6.085   1.774   3.681
30219WAT     H290900   6.075   1.813   3.839
30220WAT      O90901   4.368   0.052   5.751
30220WAT     H190902   4.410   0.051   5.660
30220WAT     H290903   4.437   0.033   5.820
30221WAT      O90904   4.858   0.678   2.616
30221WAT     H190905   4.787   0.745   2.597
30221WAT     H290906   4.947   0.723   2.620
30222WAT      O90907   6.034   3.038   1.839
30222WAT     H190908   6.083   3.093   1.771
30222WAT     H290909   6.020   3.092   1.922
30223WAT      O90910   9.835   8.263   6.441
30223WAT     H190911   9.892   8.254   6.523
30223WAT     H290912   9.828   8.359   6.415
30224WAT      O90913   7.650   8.764   3.720
30224WAT     H190914   7.722   8.711   3.765
30224WAT     H290915   7.629   8.722   3.632
30225WAT      O90916   3.663   2.407   4.985
30225WAT     H190917   3.761   2.412   5.003
30225WAT     H290918   3.634   2.490   4.936
30226WAT      O90919   6.723   7.396   5.570
30226WAT     H190920   6.672   7.480   5.550
30226WAT     H290921   6.818   7.419   5.592
30227WAT      O90922   1.089   6.182   5.016
30227WAT     H190923   1.171   6.136   4.981
30227WAT     H290924   1.101   6.281   5.007
30228WAT      O90925   4.963   1.049   3.330
30228WAT     H190926   5.038   1.040   3.265
30228WAT     H290927   4.980   0.990   3.409
30229WAT      O90928   5.853   9.718   5.549
30229WAT     H190929   5.930   9.699   5.609
30229WAT     H290930   5.861   9.663   5.466
30230WAT      O90931   6.497   0.276   9.874
30230WAT     H190932   6.551   0.205   9.918
30230WAT     H290933   6.505   0.361   9.926
30231WAT      O90934   1.648   5.876   2.886
30231WAT     H190935   1.694   5.963   2.903
30231WAT     H290936   1.664   5.848   2.792
30232WAT      O90937   3.486   0.074   6.942
30232WAT     H190938   3.453   0.130   7.018
30232WAT     H290939   3.568   0.025   6.969
30233WAT      O90940   1.414   8.962   9.651
30233WAT     H190941   1.463   9.026   9.710
30233WAT     H290942   1.365   8.895   9.707
30234WAT      O90943   0.981   1.214   4.789
30234WAT     H190944   1.049   1.261   4.845
30234WAT     H290945   0.938   1.141   4.843
30235WAT      O90946   5.558   7.908   2.275
30235WAT     H190947   5.598   7.816   2.270
30235WAT     H290948   5.622   7.974   2.236
30236WAT      O90949   9.687   6.114   1.740
30236WAT     H190950   9.762   6.170   1.776
30236WAT     H290951   9.699   6.020   1.769
30237WAT      O90952   4.569   8.167   4.482
30237WAT     H190953   4.469   8.170   4.487
30237WAT     H290954   4.607   8.145   4.572
30238WAT      O90955   4.522   6.269   6.172
30238WAT     H190956   4.448   6.267   6.105
30238WAT     H290957   4.607   6.297   6.127
30239WAT      O90958   4.518   3.092   1.671
30239WAT     H190959   4.461   3.048   1.740
30239WAT     H290960   4.553   3.179   1.707
30240WAT      O90961   7.041   7.736   0.138
30240WAT     H190962   6.967   7.790   0.176
30240WAT     H290963   7.014   7.640   0.134
30241WAT      O90964   8.828   0.641   8.082
30241WAT     H190965   8.917   0.601   8.057
30241WAT     H290966   8.755   0.585   8.045
30242WAT      O90967   7.165   5.753   7.124
30242WAT     H190968   7.088   5.768   7.186
30242WAT     H290969   7.159   5.816   7.047
30243WAT      O90970   4.362   2.372   6.856
30243WAT     H190971   4.416   2.456   6.855
30243WAT     H290972   4.403   2.305   6.794
30244WAT      O90973   0.918   8.232   7.292
30244WAT     H190974   0.866   8.299   7.239
30244WAT     H290975   0.962   8.167   7.230
30245WAT      O90976   2.846   2.700   0.931
30245WAT     H190977   2.873   2.757   1.009
30245WAT     H290978   2.915   2.708   0.859
30246WAT      O90979   4.468   2.635   9.119
30246WAT     H190980   4.372   2.606   9.123
30246WAT     H290981   4.526   2.560   9.151
30247WAT      O90982   9.134   5.325   2.450
30247WAT     H190983   9.109   5.325   2.547
30247WAT     H290984   9.231   5.349   2.441
30248WAT      O90985   8.911   7.701   2.493
30248WAT     H190986   8.860   7.763   2.552
30248WAT     H290987   8.948   7.752   2.415
30249WAT      O90988   3.442   0.511   8.452
30249WAT     H190989   3.362   0.460   8.420
30249WAT     H290990   3.452   0.594   8.398
30250WAT      O90991   4.615   3.425   0.346
30250WAT     H190992   4.567   3.344   0.380
30250WAT     H290993   4.621   3.494   0.418
30251WAT      O90994   1.222   1.244   2.872
30251WAT     H190995   1.180   1.333   2.859
30251WAT     H290996   1.229   1.197   2.785
30252WAT      O90997   2.664   2.771   2.967
30252WAT     H190998   2.650   2.806   3.060
30252WAT     H290999   2.644   2.673   2.965
30253WAT      O91000   0.270   1.923   3.286
30253WAT     H191001   0.173   1.905   3.300
30253WAT     H291002   0.293   2.015   3.318
30254WAT      O91003   8.898   1.436   8.113
30254WAT     H191004   8.966   1.509   8.108
30254WAT     H291005   8.807   1.476   8.129
30255WAT      O91006   7.670   7.780   2.084
30255WAT     H191007   7.626   7.751   2.000
30255WAT     H291008   7.617   7.853   2.126
30256WAT      O91009   3.856   2.273   1.628
30256WAT     H191010   3.770   2.315   1.657
30256WAT     H291011   3.855   2.262   1.528
30257WAT      O91012   5.026   6.802   6.484
30257WAT     H191013   4.972   6.797   6.400
30257WAT     H291014   5.062   6.895   6.495
30258WAT      O91015   4.360   7.656   3.173
30258WAT     H191016   4.263   7.674   3.154
30258WAT     H291017   4.396   7.592   3.105
30259WAT      O91018   8.337   2.125   0.270
30259WAT     H191019   8.341   2.033   0.230
30259WAT     H291020   8.399   2.130   0.348
30260WAT      O91021   1.362   4.894   1.738
30260WAT     H191022   1.360   4.966   1.669
30260WAT     H291023   1.457   4.866   1.754
30261WAT      O91024   0.675   2.531   1.604
30261WAT     H191025   0.652   2.609   1.663
30261WAT     H291026   0.661   2.556   1.508
30262WAT      O91027   4.003   1.722   7.883
30262WAT     H191028   3.977   1.803   7.831
30262WAT     H291029   4.102   1.721   7.896
30263WAT      O91030   4.526   8.645   1.369
30263WAT     H191031   4.526   8.744   1.384
30263WAT     H291032   4.435   8.615   1.342
30264WAT      O91033   8.008   1.656   1.813
30264WAT     H191034   7.995   1.637   1.910
30264WAT     H291035   8.093   1.614   1.782
30265WAT      O91036   2.627   2.370   8.262
30265WAT     H191037   2.659   2.359   8.356
30265WAT     H291038   2.706   2.370   8.200
30266WAT      O91039   8.924   9.591   3.974
30266WAT     H191040   8.842   9.648   3.981
30266WAT     H291041   8.995   9.628   4.035
30267WAT      O91042   5.766   1.272   6.845
30267WAT     H191043   5.794   1.367   6.856
30267WAT     H291044   5.702   1.264   6.769
30268WAT      O91045   9.223   2.048   8.490
30268WAT     H191046   9.183   2.106   8.419
30268WAT     H291047   9.298   2.096   8.536
30269WAT      O91048   7.858   5.551   3.992
30269WAT     H191049   7.958   5.547   3.992
30269WAT     H291050   7.828   5.610   4.067
30270WAT      O91051   6.595   1.698   5.984
30270WAT     H191052   6.572   1.784   5.938
30270WAT     H291053   6.585   1.622   5.919
30271WAT      O91054   5.190   9.034   0.634
30271WAT     H191055   5.111   9.037   0.573
30271WAT     H291056   5.159   9.037   0.729
30272WAT      O91057   8.460   2.260   9.548
30272WAT     H191058   8.507   2.251   9.461
30272WAT     H291059   8.364   2.234   9.537
30273WAT      O91060   8.956   9.217   1.080
30273WAT     H191061   8.905   9.159   1.017
30273WAT     H291062   8.895   9.248   1.153
30274WAT      O91063   6.994   3.587   4.669
30274WAT     H191064   6.999   3.490   4.695
30274WAT     H291065   6.942   3.595   4.584
30275WAT      O91066   5.918   4.080   3.401
30275WAT     H191067   5.874   4.053   3.315
30275WAT     H291068   5.886   4.020   3.474
30276WAT      O91069   2.770   5.799   3.430
30276WAT     H191070   2.670   5.800   3.423
30276WAT     H291071   2.807   5.883   3.390
30277WAT      O91072   2.054   7.661   0.022
30277WAT     H191073   2.088   7.729  -0.043
30277WAT     H291074   2.049   7.571  -0.022
30278WAT      O91075   1.265   1.529   2.667
30278WAT     H191076   1.318   1.594   2.721
30278WAT     H291077   1.268   1.554   2.570
30279WAT      O91078   7.186   0.305   0.355
30279WAT     H191079   7.183   0.300   0.454
30279WAT     H291080   7.099   0.273   0.317
30280WAT      O91081   0.501   0.430   1.581
30280WAT     H191082   0.445   0.511   1.599
30280WAT     H291083   0.532   0.432   1.486
30281WAT      O91084   8.324   4.230   8.052
30281WAT     H191085   8.270   4.223   8.136
30281WAT     H291086   8.276   4.185   7.977
30282WAT      O91087   6.025   7.833   8.839
30282WAT     H191088   6.028   7.929   8.866
30282WAT     H291089   5.935   7.795   8.861
30283WAT      O91090   1.244   5.675   2.636
30283WAT     H191091   1.149   5.682   2.604
30283WAT     H291092   1.257   5.588   2.684
30284WAT      O91093   6.264   2.262   1.238
30284WAT     H191094   6.364   2.274   1.239
30284WAT     H291095   6.242   2.168   1.213
30285WAT      O91096   6.534   3.343   8.366
30285WAT     H191097   6.446   3.318   8.408
30285WAT     H291098   6.605   3.283   8.401
30286WAT      O91099   2.955   5.563   6.533
30286WAT     H191100   2.961   5.601   6.441
30286WAT     H291101   2.935   5.465   6.526
30287WAT      O91102   4.544   4.294   2.761
30287WAT     H191103   4.525   4.257   2.853
30287WAT     H291104   4.501   4.384   2.752
30288WAT      O91105   0.876   5.769   6.263
30288WAT     H191106   0.909   5.729   6.178
30288WAT     H291107   0.947   5.829   6.300
30289WAT      O91108   7.157   9.683   2.570
30289WAT     H191109   7.114   9.608   2.520
30289WAT     H291110   7.087   9.738   2.614
30290WAT      O91111   8.106   7.029   6.479
30290WAT     H191112   8.098   7.093   6.556
30290WAT     H291113   8.084   7.076   6.394
30291WAT      O91114   7.655   1.363   7.357
30291WAT     H191115   7.562   1.358   7.394
30291WAT     H291116   7.676   1.278   7.309
30292WAT      O91117   4.074   7.999   8.988
30292WAT     H191118   4.161   8.019   8.944
30292WAT     H291119   4.002   8.055   8.947
30293WAT      O91120   5.500   1.267   6.222
30293WAT     H191121   5.591   1.249   6.185
30293WAT     H291122   5.430   1.229   6.161
30294WAT      O91123   4.097   4.591   0.457
30294WAT     H191124   4.007   4.552   0.472
30294WAT     H291125   4.089   4.677   0.407
30295WAT      O91126   3.061   4.362   4.788
30295WAT     H191127   2.987   4.349   4.854
30295WAT     H291128   3.143   4.395   4.835
30296WAT      O91129   0.549   5.972   8.191
30296WAT     H191130   0.611   6.036   8.236
30296WAT     H291131   0.506   6.016   8.113
30297WAT      O91132   0.630   4.704   8.913
30297WAT     H191133   0.679   4.788   8.934
30297WAT     H291134   0.675   4.627   8.960
30298WAT      O91135   2.636   3.904   5.333
30298WAT     H191136   2.687   3.916   5.248
30298WAT     H291137   2.554   3.848   5.316
30299WAT      O91138   0.873   3.162   5.623
30299WAT     H191139   0.803   3.090   5.623
30299WAT     H291140   0.879   3.202   5.714
30300WAT      O91141   0.169   1.214   8.185
30300WAT     H191142   0.150   1.307   8.153
30300WAT     H291143   0.111   1.149   8.135
30301WAT      O91144   2.958   3.093   5.821
30301WAT     H191145   3.041   3.061   5.866
30301WAT     H291146   2.923   3.021   5.760
30302WAT      O91147   7.567   7.928   7.809
30302WAT     H191148   7.579   7.929   7.710
30302WAT     H291149   7.490   7.868   7.833
30303WAT      O91150   1.835   9.155   7.232
30303WAT     H191151   1.929   9.129   7.210
30303WAT     H291152   1.773   9.079   7.212
30304WAT      O91153   5.879   5.000   3.781
30304WAT     H191154   5.912   5.008   3.875
30304WAT     H291155   5.798   5.057   3.769
30305WAT      O91156   6.251   5.889   1.857
30305WAT     H191157   6.197   5.823   1.911
30305WAT     H291158   6.190   5.937   1.794
30306WAT      O91159   5.926   6.525   4.027
30306WAT     H191160   5.913   6.455   3.957
30306WAT     H291161   6.011   6.507   4.076
30307WAT      O91162   9.446   5.131   5.948
30307WAT     H191163   9.347   5.124   5.938
30307WAT     H291164   9.484   5.179   5.869
30308WAT      O91165   8.480   3.294   6.993
30308WAT     H191166   8.513   3.226   7.058
30308WAT     H291167   8.475   3.253   6.902
30309WAT      O91168   9.370   3.257   7.441
30309WAT     H191169   9.331   3.347   7.423
30309WAT     H291170   9.350   3.230   7.535
30310WAT      O91171   0.278   8.206   3.635
30310WAT     H191172   0.288   8.107   3.624
30310WAT     H291173   0.369   8.248   3.633
30311WAT      O91174   1.626   5.742   4.493
30311WAT     H191175   1.606   5.670   4.559
30311WAT     H291176   1.672   5.703   4.413
30312WAT      O91177   4.297   3.387   7.859
30312WAT     H191178   4.384   3.387   7.810
30312WAT     H291179   4.309   3.340   7.946
30313WAT      O91180   6.012   1.590   2.083
30313WAT     H191181   5.959   1.672   2.104
30313WAT     H291182   5.990   1.519   2.150
30314WAT      O91183   7.019   5.379   0.041
30314WAT     H191184   7.074   5.316  -0.013
30314WAT     H291185   7.040   5.473   0.015
30315WAT      O91186   5.830   8.974   0.325
30315WAT     H191187   5.736   8.954   0.353
30315WAT     H291188   5.876   8.888   0.300
30316WAT      O91189   1.293   0.533   4.703
30316WAT     H191190   1.253   0.465   4.643
30316WAT     H291191   1.393   0.534   4.692
30317WAT      O91192   6.996   7.801   1.591
30317WAT     H191193   7.055   7.879   1.571
30317WAT     H291194   6.909   7.811   1.542
30318WAT      O91195   8.219   4.425   1.802
30318WAT     H191196   8.288   4.409   1.731
30318WAT     H291197   8.143   4.361   1.789
30319WAT      O91198   6.437   3.597   8.263
30319WAT     H191199   6.495   3.516   8.256
30319WAT     H291200   6.449   3.639   8.353
30320WAT      O91201   1.021   8.533   8.667
30320WAT     H191202   1.088   8.506   8.598
30320WAT     H291203   1.054   8.507   8.757
30321WAT      O91204   6.280   0.924   4.489
30321WAT     H191205   6.237   0.984   4.421
30321WAT     H291206   6.230   0.838   4.493
30322WAT      O91207   1.701   7.006   3.353
30322WAT     H191208   1.614   7.055   3.352
30322WAT     H291209   1.734   6.998   3.447
30323WAT      O91210   0.764   9.098   8.581
30323WAT     H191211   0.707   9.051   8.513
30323WAT     H291212   0.746   9.059   8.671
30324WAT      O91213   2.863   1.113   8.465
30324WAT     H191214   2.937   1.164   8.421
30324WAT     H291215   2.776   1.162   8.452
30325WAT      O91216   6.174   2.479   2.792
30325WAT     H191217   6.097   2.435   2.746
30325WAT     H291218   6.183   2.573   2.759
30326WAT      O91219   1.974   6.696   7.536
30326WAT     H191220   2.010   6.607   7.510
30326WAT     H291221   2.033   6.768   7.500
30327WAT      O91222   3.998   1.911   5.931
30327WAT     H191223   3.972   1.859   5.850
30327WAT     H291224   3.919   1.923   5.991
30328WAT      O91225   1.167   1.953   0.767
30328WAT     H191226   1.234   2.026   0.751
30328WAT     H291227   1.110   1.941   0.686
30329WAT      O91228   2.114   3.638   2.327
30329WAT     H191229   2.149   3.712   2.385
30329WAT     H291230   2.020   3.615   2.355
30330WAT      O91231   4.150   0.460   8.512
30330WAT     H191232   4.181   0.480   8.605
30330WAT     H291233   4.222   0.412   8.462
30331WAT      O91234   9.618   1.163   7.342
30331WAT     H191235   9.587   1.164   7.437
30331WAT     H291236   9.612   1.256   7.304
30332WAT      O91237   5.170   6.995   8.621
30332WAT     H191238   5.225   6.912   8.614
30332WAT     H291239   5.091   6.978   8.680
30333WAT      O91240   9.412   1.437   5.106
30333WAT     H191241   9.490   1.497   5.092
30333WAT     H291242   9.410   1.367   5.035
30334WAT      O91243   3.262   0.334   4.564
30334WAT     H191244   3.261   0.412   4.627
30334WAT     H291245   3.355   0.318   4.532
30335WAT      O91246   5.021   9.364   3.444
30335WAT     H191247   4.994   9.453   3.407
30335WAT     H291248   5.087   9.321   3.381
30336WAT      O91249   7.178   4.549   0.162
30336WAT     H191250   7.095   4.596   0.191
30336WAT     H291251   7.157   4.455   0.137
30337WAT      O91252   7.627   3.140   7.721
30337WAT     H191253   7.672   3.178   7.802
30337WAT     H291254   7.541   3.188   7.705
30338WAT      O91255   4.546   1.497   6.490
30338WAT     H191256   4.564   1.553   6.409
30338WAT     H291257   4.555   1.400   6.466
30339WAT      O91258   8.086   1.859   4.196
30339WAT     H191259   7.998   1.817   4.174
30339WAT     H291260   8.149   1.789   4.230
30340WAT      O91261   2.228   4.465   9.115
30340WAT     H191262   2.183   4.494   9.199
30340WAT     H291263   2.286   4.539   9.080
30341WAT      O91264   1.340   5.756   7.717
30341WAT     H191265   1.310   5.816   7.643
30341WAT     H291266   1.346   5.808   7.802
30342WAT      O91267   2.849   4.802   7.107
30342WAT     H191268   2.830   4.865   7.183
30342WAT     H291269   2.921   4.738   7.135
30343WAT      O91270   1.690   8.091   5.296
30343WAT     H191271   1.591   8.094   5.304
30343WAT     H291272   1.720   7.996   5.285
30344WAT      O91273   6.158   9.355   3.571
30344WAT     H191274   6.144   9.416   3.648
30344WAT     H291275   6.256   9.340   3.558
30345WAT      O91276   9.455   5.550   5.609
30345WAT     H191277   9.375   5.525   5.664
30345WAT     H291278   9.444   5.644   5.577
30346WAT      O91279   5.914   0.772   7.990
30346WAT     H191280   5.997   0.719   8.006
30346WAT     H291281   5.869   0.742   7.906
30347WAT      O91282   0.623   9.475   3.545
30347WAT     H191283   0.678   9.522   3.476
30347WAT     H291284   0.528   9.506   3.539
30348WAT      O91285   9.157   5.112   1.903
30348WAT     H191286   9.165   5.138   1.807
30348WAT     H291287   9.124   5.190   1.956
30349WAT      O91288   9.134   7.915   8.080
30349WAT     H191289   9.064   7.963   8.134
30349WAT     H291290   9.225   7.949   8.105
30350WAT      O91291   5.248   4.573   1.890
30350WAT     H191292   5.299   4.644   1.939
30350WAT     H291293   5.302   4.539   1.814
30351WAT      O91294   0.674   3.137   3.686
30351WAT     H191295   0.716   3.206   3.744
30351WAT     H291296   0.702   3.152   3.591
30352WAT      O91297   7.160   2.581   5.052
30352WAT     H191298   7.245   2.622   5.084
30352WAT     H291299   7.088   2.650   5.046
30353WAT      O91300   5.363   3.710   1.071
30353WAT     H191301   5.326   3.664   1.152
30353WAT     H291302   5.416   3.645   1.017
30354WAT      O91303   8.205   9.135   0.471
30354WAT     H191304   8.148   9.217   0.473
30354WAT     H291305   8.233   9.112   0.565
30355WAT      O91306   5.019   8.004   1.720
30355WAT     H191307   4.962   8.078   1.754
30355WAT     H291308   5.104   8.000   1.772
30356WAT      O91309   6.635   7.936   7.793
30356WAT     H191310   6.585   8.021   7.811
30356WAT     H291311   6.622   7.909   7.698
30357WAT      O91312   4.702   7.735   5.760
30357WAT     H191313   4.737   7.662   5.701
30357WAT     H291314   4.609   7.713   5.788
30358WAT      O91315   3.015   4.324   9.556
30358WAT     H191316   3.051   4.409   9.595
30358WAT     H291317   3.065   4.246   9.595
30359WAT      O91318   0.522   7.782   8.124
30359WAT     H191319   0.596   7.724   8.159
30359WAT     H291320   0.447   7.724   8.092
30360WAT      O91321   5.514   4.355   3.786
30360WAT     H191322   5.452   4.277   3.783
30360WAT     H291323   5.473   4.428   3.840
30361WAT      O91324   5.600   2.744   8.623
30361WAT     H191325   5.551   2.829   8.643
30361WAT     H291326   5.545   2.688   8.561
30362WAT      O91327   8.311   8.363   4.979
30362WAT     H191328   8.283   8.359   4.883
30362WAT     H291329   8.255   8.301   5.033
30363WAT      O91330   4.228   5.814   4.076
30363WAT     H191331   4.272   5.803   3.987
30363WAT     H291332   4.146   5.871   4.066
30364WAT      O91333   4.017   6.904   8.766
30364WAT     H191334   4.011   6.930   8.670
30364WAT     H291335   3.956   6.827   8.784
30365WAT      O91336   8.905   7.292   2.237
30365WAT     H191337   8.964   7.212   2.227
30365WAT     H291338   8.946   7.370   2.190
30366WAT      O91339   1.837   6.303   2.715
30366WAT     H191340   1.925   6.350   2.705
30366WAT     H291341   1.799   6.283   2.625
30367WAT      O91342   7.789   2.900   1.221
30367WAT     H191343   7.699   2.859   1.212
30367WAT     H291344   7.788   2.994   1.186
30368WAT      O91345   9.279   1.355   8.840
30368WAT     H191346   9.184   1.335   8.815
30368WAT     H291347   9.291   1.339   8.938
30369WAT      O91348   5.709   1.899   3.420
30369WAT     H191349   5.634   1.934   3.364
30369WAT     H291350   5.787   1.961   3.415
30370WAT      O91351   3.981   4.334   0.241
30370WAT     H191352   3.951   4.399   0.171
30370WAT     H291353   3.905   4.274   0.265
30371WAT      O91354   7.597   9.659   5.325
30371WAT     H191355   7.567   9.671   5.419
30371WAT     H291356   7.673   9.594   5.322
30372WAT      O91357   6.018   4.802   5.800
30372WAT     H191358   6.047   4.895   5.775
30372WAT     H291359   5.951   4.807   5.875
30373WAT      O91360   3.574   1.733   2.250
30373WAT     H191361   3.619   1.812   2.208
30373WAT     H291362   3.536   1.759   2.339
30374WAT      O91363   2.897   9.276   4.298
30374WAT     H191364   2.863   9.352   4.354
30374WAT     H291365   2.924   9.201   4.358
30375WAT      O91366   9.121   5.561   7.694
30375WAT     H191367   9.031   5.594   7.723
30375WAT     H291368   9.110   5.484   7.631
30376WAT      O91369   0.729   5.132   0.478
30376WAT     H191370   0.658   5.103   0.542
30376WAT     H291371   0.768   5.052   0.433
30377WAT      O91372   2.285   8.562   9.770
30377WAT     H191373   2.331   8.562   9.859
30377WAT     H291374   2.274   8.656   9.738
30378WAT      O91375   2.502   3.778   6.243
30378WAT     H191376   2.579   3.840   6.255
30378WAT     H291377   2.478   3.737   6.331
30379WAT      O91378   2.084   3.854   1.240
30379WAT     H191379   2.021   3.780   1.215
30379WAT     H291380   2.103   3.909   1.159
30380WAT      O91381   2.956   4.584   2.128
30380WAT     H191382   2.868   4.540   2.111
30380WAT     H291383   3.017   4.566   2.051
30381WAT      O91384   0.198   1.231   7.014
30381WAT     H191385   0.204   1.310   7.075
30381WAT     H291386   0.116   1.239   6.957
30382WAT      O91387   3.641   6.097   6.994
30382WAT     H191388   3.713   6.123   7.059
30382WAT     H291389   3.559   6.071   7.045
30383WAT      O91390   2.085   3.550   8.686
30383WAT     H191391   2.077   3.469   8.629
30383WAT     H291392   2.179   3.559   8.719
30384WAT      O91393   3.027   0.890   7.819
30384WAT     H191394   3.061   0.975   7.861
30384WAT     H291395   3.102   0.846   7.771
30385WAT      O91396   2.287   9.491   7.510
30385WAT     H191397   2.235   9.565   7.551
30385WAT     H291398   2.308   9.514   7.415
30386WAT      O91399   3.927   0.270   1.669
30386WAT     H191400   3.965   0.279   1.576
30386WAT     H291401   3.964   0.342   1.727
30387WAT      O91402   0.661   5.246   0.869
30387WAT     H191403   0.658   5.242   0.969
30387WAT     H291404   0.754   5.229   0.837
30388WAT      O91405   2.857   4.351   4.965
30388WAT     H191406   2.876   4.255   4.989
30388WAT     H291407   2.780   4.383   5.019
30389WAT      O91408   8.185   8.680   0.139
30389WAT     H191409   8.230   8.747   0.198
30389WAT     H291410   8.247   8.654   0.064
30390WAT      O91411   7.169   5.499   2.918
30390WAT     H191412   7.180   5.463   2.825
30390WAT     H291413   7.253   5.546   2.945
30391WAT      O91414   9.044   6.627   9.233
30391WAT     H191415   8.988   6.702   9.269
30391WAT     H291416   9.078   6.571   9.309
30392WAT      O91417   5.572   0.749   4.475
30392WAT     H191418   5.564   0.821   4.406
30392WAT     H291419   5.666   0.717   4.478
30393WAT      O91420   4.723   9.701   6.276
30393WAT     H191421   4.693   9.648   6.197
30393WAT     H291422   4.735   9.797   6.249
30394WAT      O91423   6.291   6.417   6.605
30394WAT     H191424   6.244   6.495   6.564
30394WAT     H291425   6.390   6.430   6.599
30395WAT      O91426   1.355   3.491   1.877
30395WAT     H191427   1.440   3.439   1.884
30395WAT     H291428   1.284   3.434   1.837
30396WAT      O91429   3.257   7.601   5.990
30396WAT     H191430   3.170   7.617   5.944
30396WAT     H291431   3.322   7.561   5.925
30397WAT      O91432   7.911   2.546   3.850
30397WAT     H191433   7.901   2.468   3.788
30397WAT     H291434   7.864   2.526   3.936
30398WAT      O91435   2.198   2.855   5.919
30398WAT     H191436   2.257   2.781   5.951
30398WAT     H291437   2.178   2.917   5.994
30399WAT      O91438   8.657   7.261   5.006
30399WAT     H191439   8.751   7.265   5.042
30399WAT     H291440   8.648   7.324   4.929
30400WAT      O91441   7.372   3.307   8.255
30400WAT     H191442   7.412   3.396   8.277
30400WAT     H291443   7.442   3.249   8.212
30401WAT      O91444   4.565   6.797   5.461
30401WAT     H191445   4.572   6.697   5.453
30401WAT     H291446   4.603   6.840   5.379
30402WAT      O91447   9.175   6.059   1.117
30402WAT     H191448   9.159   5.998   1.040
30402WAT     H291449   9.180   6.153   1.084
30403WAT      O91450   3.483   0.849   1.185
30403WAT     H191451   3.425   0.905   1.126
30403WAT     H291452   3.434   0.829   1.270
30404WAT      O91453   8.678   9.827   8.206
30404WAT     H191454   8.700   9.776   8.289
30404WAT     H291455   8.588   9.871   8.216
30405WAT      O91456   5.093   1.409   9.444
30405WAT     H191457   5.008   1.368   9.412
30405WAT     H291458   5.108   1.496   9.397
30406WAT      O91459   1.958   2.722   4.469
30406WAT     H191460   2.021   2.711   4.392
30406WAT     H291461   2.006   2.768   4.545
30407WAT      O91462   0.220   7.640   2.066
30407WAT     H191463   0.233   7.605   2.159
30407WAT     H291464   0.191   7.736   2.071
30408WAT      O91465   4.558   7.854   6.997
30408WAT     H191466   4.512   7.829   6.912
30408WAT     H291467   4.510   7.812   7.074
30409WAT      O91468   0.240   4.935   7.092
30409WAT     H191469   0.193   4.976   7.014
30409WAT     H291470   0.324   4.892   7.061
30410WAT      O91471   3.513   2.928   7.689
30410WAT     H191472   3.580   2.992   7.652
30410WAT     H291473   3.496   2.855   7.622
30411WAT      O91474   4.755   3.249   4.679
30411WAT     H191475   4.800   3.265   4.592
30411WAT     H291476   4.672   3.304   4.685
30412WAT      O91477   8.824   3.820   7.991
30412WAT     H191478   8.899   3.873   7.952
30412WAT     H291479   8.751   3.811   7.923
30413WAT      O91480   7.499   0.773   6.360
30413WAT     H191481   7.557   0.737   6.287
30413WAT     H291482   7.542   0.854   6.400
30414WAT      O91483   3.316   5.154   3.013
30414WAT     H191484   3.261   5.071   3.010
30414WAT     H291485   3.408   5.132   3.046
30415WAT      O91486   3.487   9.182   5.178
30415WAT     H191487   3.443   9.141   5.257
30415WAT     H291488   3.457   9.277   5.168
30416WAT      O91489   8.379   9.535   9.025
30416WAT     H191490   8.370   9.494   9.116
30416WAT     H291491   8.469   9.576   9.015
30417WAT      O91492   7.853   1.702   1.580
30417WAT     H191493   7.774   1.645   1.600
30417WAT     H291494   7.929   1.676   1.640
30418WAT      O91495   6.595   0.858   1.988
30418WAT     H191496   6.659   0.781   1.989
30418WAT     H291497   6.565   0.876   1.894
30419WAT      O91498   2.109   6.726   4.860
30419WAT     H191499   2.194   6.675   4.844
30419WAT     H291500   2.111   6.810   4.805
30420WAT      O91501   8.930   2.514   9.073
30420WAT     H191502   8.923   2.450   9.149
30420WAT     H291503   8.878   2.480   8.995
30421WAT      O91504   2.314   6.597   2.732
30421WAT     H191505   2.360   6.595   2.644
30421WAT     H291506   2.318   6.689   2.771
30422WAT      O91507   2.629   4.239   7.919
30422WAT     H191508   2.620   4.159   7.978
30422WAT     H291509   2.539   4.282   7.907
30423WAT      O91510   3.190   4.908   5.107
30423WAT     H191511   3.225   4.934   5.017
30423WAT     H291512   3.181   4.989   5.164
30424WAT      O91513   9.527   4.408   7.197
30424WAT     H191514   9.542   4.505   7.178
30424WAT     H291515   9.446   4.398   7.255
30425WAT      O91516   4.868   1.588   8.101
30425WAT     H191517   4.864   1.632   8.190
30425WAT     H291518   4.820   1.500   8.104
30426WAT      O91519   7.539   8.593   4.633
30426WAT     H191520   7.441   8.605   4.617
30426WAT     H291521   7.580   8.548   4.553
30427WAT      O91522   2.088   6.113   6.933
30427WAT     H191523   2.145   6.041   6.972
30427WAT     H291524   2.103   6.198   6.983
30428WAT      O91525   6.056   4.110   0.152
30428WAT     H191526   6.082   4.019   0.121
30428WAT     H291527   6.085   4.123   0.247
30429WAT      O91528   0.411   3.372   8.471
30429WAT     H191529   0.366   3.447   8.520
30429WAT     H291530   0.510   3.379   8.484
30430WAT      O91531   8.375   3.571   6.991
30430WAT     H191532   8.415   3.480   6.981
30430WAT     H291533   8.312   3.588   6.915
30431WAT      O91534   8.261   9.051   8.775
30431WAT     H191535   8.300   9.115   8.708
30431WAT     H291536   8.303   8.961   8.762
30432WAT      O91537   9.209   9.369   0.076
30432WAT     H191538   9.271   9.375   0.154
30432WAT     H291539   9.191   9.273   0.055
30433WAT      O91540   7.775   8.938   1.937
30433WAT     H191541   7.718   8.857   1.940
30433WAT     H291542   7.787   8.967   1.842
30434WAT      O91543   7.992   5.059   5.799
30434WAT     H191544   7.940   5.030   5.719
30434WAT     H291545   7.930   5.073   5.876
30435WAT      O91546   4.899   7.920   3.161
30435WAT     H191547   4.855   7.942   3.073
30435WAT     H291548   4.957   7.840   3.150
30436WAT      O91549   4.394   4.895   6.116
30436WAT     H191550   4.308   4.845   6.125
30436WAT     H291551   4.410   4.919   6.020
30437WAT      O91552   3.778   8.991   0.415
30437WAT     H191553   3.832   8.974   0.332
30437WAT     H291554   3.699   8.930   0.417
30438WAT      O91555   6.111   6.801   7.425
30438WAT     H191556   6.013   6.791   7.444
30438WAT     H291557   6.159   6.826   7.509
30439WAT      O91558   5.044   0.524   8.632
30439WAT     H191559   5.091   0.508   8.719
30439WAT     H291560   5.107   0.566   8.567
30440WAT      O91561   6.108   5.867   5.594
30440WAT     H191562   6.093   5.954   5.548
30440WAT     H291563   6.028   5.808   5.582
30441WAT      O91564   1.011   4.119   3.431
30441WAT     H191565   1.076   4.192   3.410
30441WAT     H291566   1.052   4.030   3.409
30442WAT      O91567   8.521   7.388   7.410
30442WAT     H191568   8.529   7.388   7.509
30442WAT     H291569   8.430   7.419   7.383
30443WAT      O91570   0.527   1.748   6.796
30443WAT     H191571   0.438   1.703   6.791
30443WAT     H291572   0.599   1.679   6.803
30444WAT      O91573   4.768   6.550   3.107
30444WAT     H191574   4.862   6.517   3.107
30444WAT     H291575   4.715   6.501   3.038
30445WAT      O91576   2.720   3.402   0.797
30445WAT     H191577   2.785   3.478   0.796
30445WAT     H291578   2.645   3.422   0.734
30446WAT      O91579   4.089   7.021   6.618
30446WAT     H191580   4.048   6.931   6.628
30446WAT     H291581   4.133   7.029   6.529
30447WAT      O91582   2.481   4.628   0.105
30447WAT     H191583   2.413   4.601   0.173
30447WAT     H291584   2.572   4.625   0.146
30448WAT      O91585   6.726   7.508   5.108
30448WAT     H191586   6.683   7.512   5.198
30448WAT     H291587   6.786   7.428   5.103
30449WAT      O91588   8.280   8.065   9.044
30449WAT     H191589   8.238   7.979   9.072
30449WAT     H291590   8.285   8.068   8.944
30450WAT      O91591   8.434   5.613   2.373
30450WAT     H191592   8.388   5.525   2.380
30450WAT     H291593   8.477   5.621   2.283
30451WAT      O91594   4.089   0.682   9.143
30451WAT     H191595   4.087   0.721   9.051
30451WAT     H291596   4.003   0.705   9.190
30452WAT      O91597   1.692   3.252   0.518
30452WAT     H191598   1.685   3.227   0.422
30452WAT     H291599   1.695   3.351   0.528
30453WAT      O91600   4.927   4.591   9.369
30453WAT     H191601   4.952   4.555   9.459
30453WAT     H291602   4.984   4.549   9.299
30454WAT      O91603   0.300   1.316   9.047
30454WAT     H191604   0.206   1.283   9.053
30454WAT     H291605   0.355   1.274   9.119
30455WAT      O91606   5.432   5.372   3.292
30455WAT     H191607   5.491   5.345   3.369
30455WAT     H291608   5.359   5.304   3.282
30456WAT      O91609   0.818   5.413   7.224
30456WAT     H191610   0.866   5.327   7.243
30456WAT     H291611   0.730   5.392   7.181
30457WAT      O91612   3.864   4.621   8.972
30457WAT     H191613   3.911   4.563   8.905
30457WAT     H291614   3.836   4.566   9.051
30458WAT      O91615   3.669   3.317   0.403
30458WAT     H191616   3.602   3.303   0.476
30458WAT     H291617   3.736   3.243   0.404
30459WAT      O91618   8.878   0.722   6.326
30459WAT     H191619   8.820   0.714   6.246
30459WAT     H291620   8.860   0.645   6.388
30460WAT      O91621   3.903   7.993   9.860
30460WAT     H191622   3.849   7.956   9.936
30460WAT     H291623   3.982   7.934   9.843
30461WAT      O91624   6.130   6.044   3.786
30461WAT     H191625   6.202   6.101   3.826
30461WAT     H291626   6.066   6.102   3.736
30462WAT      O91627   0.701   3.404   0.477
30462WAT     H191628   0.776   3.388   0.413
30462WAT     H291629   0.737   3.416   0.569
30463WAT      O91630   1.201   7.851   5.168
30463WAT     H191631   1.146   7.904   5.232
30463WAT     H291632   1.256   7.913   5.112
30464WAT      O91633   6.050   7.010   0.461
30464WAT     H191634   6.011   6.947   0.528
30464WAT     H291635   5.982   7.081   0.440
30465WAT      O91636   4.578   5.391   0.354
30465WAT     H191637   4.497   5.332   0.347
30465WAT     H291638   4.632   5.385   0.270
30466WAT      O91639   3.220   2.443   0.455
30466WAT     H191640   3.268   2.499   0.522
30466WAT     H291641   3.233   2.482   0.364
30467WAT      O91642   4.006   2.850   2.306
30467WAT     H191643   3.943   2.899   2.246
30467WAT     H291644   4.067   2.792   2.250
30468WAT      O91645   7.362   3.356   9.060
30468WAT     H191646   7.398   3.436   9.011
30468WAT     H291647   7.344   3.381   9.155
30469WAT      O91648   3.822   7.861   4.918
30469WAT     H191649   3.807   7.940   4.859
30469WAT     H291650   3.907   7.815   4.892
30470WAT      O91651   8.235   1.054   5.244
30470WAT     H191652   8.258   1.027   5.150
30470WAT     H291653   8.303   1.017   5.307
30471WAT      O91654   3.579   5.744   1.791
30471WAT     H191655   3.565   5.651   1.825
30471WAT     H291656   3.553   5.749   1.694
30472WAT      O91657   9.675   2.408   2.987
30472WAT     H191658   9.681   2.320   3.035
30472WAT     H291659   9.767   2.443   2.971
30473WAT      O91660   6.193   6.579   9.578
30473WAT     H191661   6.202   6.603   9.481
30473WAT     H291662   6.271   6.524   9.606
30474WAT      O91663   2.574   0.742   3.071
30474WAT     H191664   2.642   0.753   3.144
30474WAT     H291665   2.490   0.704   3.109
30475WAT      O91666   0.443   7.835   9.332
30475WAT     H191667   0.491   7.748   9.337
30475WAT     H291668   0.345   7.819   9.322
30476WAT      O91669   1.586   2.204   6.823
30476WAT     H191670   1.601   2.139   6.897
30476WAT     H291671   1.590   2.297   6.859
30477WAT      O91672   8.477   7.013   4.883
30477WAT     H191673   8.419   6.931   4.886
30477WAT     H291674   8.469   7.062   4.970
30478WAT      O91675   3.656   5.179   8.801
30478WAT     H191676   3.715   5.144   8.873
30478WAT     H291677   3.704   5.174   8.713
30479WAT      O91678   2.516   2.885   8.038
30479WAT     H191679   2.471   2.915   7.953
30479WAT     H291680   2.458   2.907   8.116
30480WAT      O91681   1.383   4.272   6.802
30480WAT     H191682   1.472   4.225   6.798
30480WAT     H291683   1.310   4.205   6.787
30481WAT      O91684   8.934   1.704   5.614
30481WAT     H191685   8.930   1.800   5.584
30481WAT     H291686   9.027   1.682   5.643
30482WAT      O91687   4.109   2.925   3.039
30482WAT     H191688   4.016   2.887   3.041
30482WAT     H291689   4.172   2.863   3.085
30483WAT      O91690   7.820   3.084   1.524
30483WAT     H191691   7.742   3.139   1.493
30483WAT     H291692   7.820   2.996   1.476
30484WAT      O91693   9.003   2.186   6.695
30484WAT     H191694   9.094   2.147   6.710
30484WAT     H291695   8.953   2.187   6.782
30485WAT      O91696   5.135   4.425   3.878
30485WAT     H191697   5.121   4.491   3.804
30485WAT     H291698   5.109   4.467   3.965
30486WAT      O91699   5.322   9.068   1.152
30486WAT     H191700   5.379   8.994   1.115
30486WAT     H291701   5.246   9.086   1.090
30487WAT      O91702   2.632   1.731   7.232
30487WAT     H191703   2.552   1.791   7.226
30487WAT     H291704   2.609   1.640   7.199
30488WAT      O91705   4.211   0.564   3.907
30488WAT     H191706   4.300   0.592   3.942
30488WAT     H291707   4.153   0.536   3.983
30489WAT      O91708   8.959   2.802   2.124
30489WAT     H191709   9.013   2.790   2.206
30489WAT     H291710   8.864   2.774   2.142
30490WAT      O91711   6.428   8.026   2.690
30490WAT     H191712   6.473   8.116   2.685
30490WAT     H291713   6.484   7.964   2.745
30491WAT      O91714   1.255   3.139   3.720
30491WAT     H191715   1.331   3.187   3.675
30491WAT     H291716   1.192   3.207   3.759
30492WAT      O91717   0.740   3.203   9.637
30492WAT     H191718   0.733   3.286   9.693
30492WAT     H291719   0.691   3.216   9.551
30493WAT      O91720   1.992   4.438   2.711
30493WAT     H191721   2.089   4.428   2.729
30493WAT     H291722   1.972   4.533   2.685
30494WAT      O91723   4.290   9.533   7.482
30494WAT     H191724   4.209   9.534   7.541
30494WAT     H291725   4.282   9.462   7.413
30495WAT      O91726   2.562   7.931   1.660
30495WAT     H191727   2.637   7.880   1.618
30495WAT     H291728   2.475   7.891   1.632
30496WAT      O91729   1.976   7.984   3.956
30496WAT     H191730   2.003   8.042   3.879
30496WAT     H291731   2.043   7.910   3.966
30497WAT      O91732   9.231   2.797   0.207
30497WAT     H191733   9.220   2.705   0.169
30497WAT     H291734   9.294   2.793   0.284
30498WAT      O91735   4.502   2.775   2.118
30498WAT     H191736   4.450   2.796   2.200
30498WAT     H291737   4.440   2.750   2.044
30499WAT      O91738   8.930   8.086   0.856
30499WAT     H191739   8.976   8.039   0.781
30499WAT     H291740   8.961   8.049   0.943
30500WAT      O91741   6.093   1.562   0.351
30500WAT     H191742   6.168   1.533   0.412
30500WAT     H291743   6.104   1.518   0.262
30501WAT      O91744   6.950   2.574   7.115
30501WAT     H191745   6.970   2.497   7.176
30501WAT     H291746   6.982   2.553   7.023
30502WAT      O91747   8.769   0.426   2.844
30502WAT     H191748   8.766   0.408   2.746
30502WAT     H291749   8.849   0.482   2.866
30503WAT      O91750   8.560   2.397   1.772
30503WAT     H191751   8.499   2.328   1.734
30503WAT     H291752   8.575   2.379   1.869
30504WAT      O91753   1.042   7.899   6.505
30504WAT     H191754   1.039   7.947   6.593
30504WAT     H291755   1.103   7.947   6.443
30505WAT      O91756   4.471   5.001   1.192
30505WAT     H191757   4.405   5.075   1.180
30505WAT     H291758   4.448   4.950   1.275
30506WAT      O91759   3.604   0.295   8.712
30506WAT     H191760   3.581   0.366   8.779
30506WAT     H291761   3.674   0.330   8.649
30507WAT      O91762   4.714   2.744   2.980
30507WAT     H191763   4.737   2.670   3.042
30507WAT     H291764   4.643   2.714   2.917
30508WAT      O91765   7.859   0.136   3.654
30508WAT     H191766   7.918   0.176   3.583
30508WAT     H291767   7.885   0.174   3.742
30509WAT      O91768   0.507   6.722   3.874
30509WAT     H191769   0.549   6.798   3.924
30509WAT     H291770   0.560   6.638   3.890
30510WAT      O91771   8.632   4.786   0.523
30510WAT     H191772   8.623   4.756   0.428
30510WAT     H291773   8.699   4.729   0.570
30511WAT      O91774   6.473   6.758   8.326
30511WAT     H191775   6.407   6.833   8.318
30511WAT     H291776   6.541   6.780   8.396
30512WAT      O91777   5.671   0.518   5.851
30512WAT     H191778   5.614   0.501   5.932
30512WAT     H291779   5.702   0.431   5.813
30513WAT      O91780   6.941   5.550   3.803
30513WAT     H191781   6.931   5.560   3.704
30513WAT     H291782   7.003   5.621   3.837
30514WAT      O91783   9.645   8.540   7.977
30514WAT     H191784   9.602   8.626   7.951
30514WAT     H291785   9.575   8.473   8.002
30515WAT      O91786   9.138   1.185   5.101
30515WAT     H191787   9.125   1.255   5.171
30515WAT     H291788   9.222   1.134   5.120
30516WAT      O91789   9.088   3.688   7.840
30516WAT     H191790   9.078   3.783   7.808
30516WAT     H291791   9.025   3.629   7.789
30517WAT      O91792   9.143   6.103   1.390
30517WAT     H191793   9.171   6.102   1.294
30517WAT     H291794   9.187   6.028   1.439
30518WAT      O91795   7.357   6.715   6.720
30518WAT     H191796   7.281   6.716   6.656
30518WAT     H291797   7.443   6.708   6.669
30519WAT      O91798   0.827   5.014   7.130
30519WAT     H191799   0.857   5.064   7.211
30519WAT     H291800   0.760   5.069   7.080
30520WAT      O91801   4.622   9.750   7.108
30520WAT     H191802   4.640   9.719   7.015
30520WAT     H291803   4.541   9.808   7.109
30521WAT      O91804   2.665   0.257   3.342
30521WAT     H191805   2.661   0.293   3.248
30521WAT     H291806   2.651   0.158   3.340
30522WAT      O91807   2.708   6.609   1.505
30522WAT     H191808   2.694   6.683   1.439
30522WAT     H291809   2.661   6.632   1.591
30523WAT      O91810   6.265   4.074   7.354
30523WAT     H191811   6.358   4.082   7.319
30523WAT     H291812   6.267   4.030   7.444
30524WAT      O91813   9.246   6.481   1.361
30524WAT     H191814   9.199   6.524   1.439
30524WAT     H291815   9.192   6.496   1.278
30525WAT      O91816   9.349   6.253   4.453
30525WAT     H191817   9.379   6.158   4.457
30525WAT     H291818   9.377   6.301   4.536
30526WAT      O91819   2.367   1.775   5.607
30526WAT     H191820   2.383   1.729   5.520
30526WAT     H291821   2.452   1.818   5.639
30527WAT      O91822   7.958   3.154   6.182
30527WAT     H191823   7.930   3.188   6.092
30527WAT     H291824   8.050   3.187   6.203
30528WAT      O91825   9.020   5.030   3.356
30528WAT     H191826   8.925   5.012   3.382
30528WAT     H291827   9.065   4.943   3.333
30529WAT      O91828   4.501   0.403   6.814
30529WAT     H191829   4.546   0.400   6.903
30529WAT     H291830   4.554   0.461   6.752
30530WAT      O91831   1.595   0.798   9.047
30530WAT     H191832   1.650   0.846   9.116
30530WAT     H291833   1.628   0.821   8.956
30531WAT      O91834   6.908   8.045   9.559
30531WAT     H191835   6.938   8.025   9.652
30531WAT     H291836   6.986   8.040   9.497
30532WAT      O91837   4.311   4.627   1.320
30532WAT     H191838   4.214   4.605   1.329
30532WAT     H291839   4.354   4.627   1.411
30533WAT      O91840   6.266   7.162   2.760
30533WAT     H191841   6.348   7.220   2.768
30533WAT     H291842   6.195   7.198   2.820
30534WAT      O91843   0.850   2.599   5.192
30534WAT     H191844   0.764   2.621   5.146
30534WAT     H291845   0.875   2.504   5.173
30535WAT      O91846   3.086   7.796   6.768
30535WAT     H191847   3.042   7.730   6.708
30535WAT     H291848   3.019   7.834   6.831
30536WAT      O91849   0.196   2.217   2.373
30536WAT     H191850   0.293   2.228   2.395
30536WAT     H291851   0.141   2.277   2.432
30537WAT      O91852   5.178   2.121   5.168
30537WAT     H191853   5.179   2.047   5.236
30537WAT     H291854   5.269   2.163   5.164
30538WAT      O91855   1.213   0.466   0.345
30538WAT     H191856   1.258   0.522   0.274
30538WAT     H291857   1.270   0.467   0.427
30539WAT      O91858   2.499   5.837   3.441
30539WAT     H191859   2.508   5.892   3.358
30539WAT     H291860   2.408   5.851   3.481
30540WAT      O91861   1.129   4.823   1.965
30540WAT     H191862   1.043   4.854   1.924
30540WAT     H291863   1.205   4.874   1.927
30541WAT      O91864   1.346   6.738   0.230
30541WAT     H191865   1.323   6.677   0.153
30541WAT     H291866   1.271   6.802   0.245
30542WAT      O91867   1.857   4.742   0.377
30542WAT     H191868   1.841   4.841   0.380
30542WAT     H291869   1.813   4.699   0.456
30543WAT      O91870   7.905   3.049   0.172
30543WAT     H191871   7.936   3.119   0.108
30543WAT     H291872   7.977   2.980   0.182
30544WAT      O91873   9.082   7.050   2.185
30544WAT     H191874   9.106   6.988   2.111
30544WAT     H291875   9.043   6.998   2.261
30545WAT      O91876   5.144   9.583   2.775
30545WAT     H191877   5.110   9.652   2.839
30545WAT     H291878   5.219   9.622   2.721
30546WAT      O91879   0.043   9.538   0.517
30546WAT     H191880   0.107   9.615   0.509
30546WAT     H291881  -0.048   9.567   0.485
30547WAT      O91882   1.486   1.912   2.963
30547WAT     H191883   1.493   1.997   2.911
30547WAT     H291884   1.574   1.892   3.006
30548WAT      O91885   4.076   0.907   5.807
30548WAT     H191886   4.122   0.995   5.798
30548WAT     H291887   4.035   0.881   5.719
30549WAT      O91888   7.508   5.013   6.517
30549WAT     H191889   7.522   5.037   6.421
30549WAT     H291890   7.597   4.998   6.561
30550WAT      O91891   4.776   0.115   5.499
30550WAT     H191892   4.778   0.198   5.443
30550WAT     H291893   4.848   0.120   5.569
30551WAT      O91894   6.102   4.635   6.313
30551WAT     H191895   6.101   4.619   6.215
30551WAT     H291896   6.142   4.725   6.332
30552WAT      O91897   1.488   7.547   0.461
30552WAT     H191898   1.530   7.466   0.421
30552WAT     H291899   1.519   7.557   0.556
30553WAT      O91900   0.349   9.349   8.527
30553WAT     H191901   0.253   9.330   8.549
30553WAT     H291902   0.396   9.262   8.510
30554WAT      O91903   2.898   6.456   6.159
30554WAT     H191904   2.882   6.362   6.128
30554WAT     H291905   2.815   6.510   6.148
30555WAT      O91906   4.004   2.441   7.525
30555WAT     H191907   3.982   2.530   7.484
30555WAT     H291908   3.932   2.376   7.504
30556WAT      O91909   2.819   8.112   7.189
30556WAT     H191910   2.787   8.204   7.211
30556WAT     H291911   2.755   8.045   7.227
30557WAT      O91912   9.867   6.916   6.758
30557WAT     H191913   9.811   6.900   6.840
30557WAT     H291914   9.830   6.862   6.682
30558WAT      O91915   0.801   4.819   4.400
30558WAT     H191916   0.821   4.756   4.325
30558WAT     H291917   0.872   4.812   4.470
30559WAT      O91918   0.546   2.301   1.360
30559WAT     H191919   0.490   2.302   1.443
30559WAT     H291920   0.641   2.281   1.385
30560WAT      O91921   3.740   1.122   9.835
30560WAT     H191922   3.755   1.140   9.738
30560WAT     H291923   3.721   1.025   9.848
30561WAT      O91924   0.997   7.010   6.609
30561WAT     H191925   0.963   7.103   6.622
30561WAT     H291926   1.046   6.980   6.691
30562WAT      O91927   3.631   3.349   2.695
30562WAT     H191928   3.687   3.414   2.746
30562WAT     H291929   3.631   3.374   2.598
30563WAT      O91930   2.365   3.671   9.144
30563WAT     H191931   2.273   3.691   9.110
30563WAT     H291932   2.378   3.715   9.233
30564WAT      O91933   7.263   8.785   4.791
30564WAT     H191934   7.184   8.838   4.822
30564WAT     H291935   7.282   8.806   4.696
30565WAT      O91936   1.533   2.914   6.887
30565WAT     H191937   1.513   2.874   6.798
30565WAT     H291938   1.628   2.896   6.911
30566WAT      O91939   3.116   8.711   3.617
30566WAT     H191940   3.050   8.729   3.546
30566WAT     H291941   3.095   8.765   3.698
30567WAT      O91942   6.797   2.611   7.676
30567WAT     H191943   6.840   2.642   7.761
30567WAT     H291944   6.849   2.535   7.638
30568WAT      O91945   9.107   6.063   7.880
30568WAT     H191946   9.142   6.044   7.789
30568WAT     H291947   9.014   6.026   7.889
30569WAT      O91948   1.901   5.832   4.564
30569WAT     H191949   1.822   5.795   4.515
30569WAT     H291950   1.964   5.758   4.587
30570WAT      O91951   2.757   2.816   5.910
30570WAT     H191952   2.685   2.884   5.920
30570WAT     H291953   2.810   2.834   5.827
30571WAT      O91954   5.906   1.430   5.321
30571WAT     H191955   5.929   1.394   5.231
30571WAT     H291956   5.887   1.528   5.314
30572WAT      O91957   9.229   4.356   7.288
30572WAT     H191958   9.284   4.273   7.299
30572WAT     H291959   9.233   4.409   7.372
30573WAT      O91960   1.772   7.191   1.976
30573WAT     H191961   1.743   7.181   1.881
30573WAT     H291962   1.708   7.251   2.024
30574WAT      O91963   7.937   5.702   8.245
30574WAT     H191964   7.966   5.763   8.319
30574WAT     H291965   7.974   5.735   8.158
30575WAT      O91966   4.138   5.905   3.696
30575WAT     H191967   4.197   5.984   3.680
30575WAT     H291968   4.055   5.933   3.743
30576WAT      O91969   3.205   9.751   9.792
30576WAT     H191970   3.144   9.805   9.850
30576WAT     H291971   3.173   9.656   9.789
30577WAT      O91972   7.330   6.341   5.030
30577WAT     H191973   7.381   6.270   5.078
30577WAT     H291974   7.305   6.414   5.093
30578WAT      O91975   8.588   0.110   6.986
30578WAT     H191976   8.514   0.171   7.013
30578WAT     H291977   8.620   0.134   6.895
30579WAT      O91978   0.873   1.801   8.568
30579WAT     H191979   0.872   1.870   8.640
30579WAT     H291980   0.967   1.771   8.551
30580WAT      O91981   3.777   5.608   5.602
30580WAT     H191982   3.851   5.666   5.567
30580WAT     H291983   3.692   5.660   5.607
30581WAT      O91984   4.239   8.520   1.323
30581WAT     H191985   4.213   8.575   1.243
30581WAT     H291986   4.164   8.520   1.389
30582WAT      O91987   7.770   2.448   1.002
30582WAT     H191988   7.791   2.397   0.919
30582WAT     H291989   7.785   2.390   1.082
30583WAT      O91990   2.501   3.353   9.565
30583WAT     H191991   2.528   3.439   9.608
30583WAT     H291992   2.451   3.372   9.481
30584WAT      O91993   9.881   1.994   2.732
30584WAT     H191994   9.926   2.010   2.821
30584WAT     H291995   9.930   1.922   2.683
30585WAT      O91996   2.471   2.198   6.068
30585WAT     H191997   2.436   2.280   6.111
30585WAT     H291998   2.499   2.132   6.138
30586WAT      O91999   0.802   2.177   0.375
30586WAT     H192000   0.884   2.170   0.432
30586WAT     H292001   0.778   2.086   0.340
30587WAT      O92002   1.469   1.670   8.644
30587WAT     H192003   1.416   1.754   8.644
30587WAT     H292004   1.442   1.613   8.567
30588WAT      O92005   1.927   1.002   7.010
30588WAT     H192006   2.007   1.003   6.950
30588WAT     H292007   1.937   0.930   7.078
30589WAT      O92008   8.049   2.614   2.449
30589WAT     H192009   7.953   2.633   2.470
30589WAT     H292010   8.105   2.630   2.531
30590WAT      O92011   2.335   5.308   0.596
30590WAT     H192012   2.393   5.240   0.553
30590WAT     H292013   2.363   5.400   0.566
30591WAT      O92014   7.513   9.330   8.836
30591WAT     H192015   7.511   9.398   8.909
30591WAT     H292016   7.597   9.339   8.783
30592WAT      O92017   8.382   6.886   7.893
30592WAT     H192018   8.400   6.816   7.962
30592WAT     H292019   8.469   6.917   7.854
30593WAT      O92020   7.584   2.709   8.119
30593WAT     H192021   7.484   2.704   8.126
30593WAT     H292022   7.622   2.617   8.109
30594WAT      O92023   2.876   2.309   4.965
30594WAT     H192024   2.887   2.404   4.938
30594WAT     H292025   2.896   2.249   4.888
30595WAT      O92026   8.062   4.700   0.824
30595WAT     H192027   8.076   4.615   0.875
30595WAT     H292028   8.096   4.777   0.877
30596WAT      O92029   8.310   3.607   8.196
30596WAT     H192030   8.317   3.530   8.132
30596WAT     H292031   8.401   3.640   8.219
30597WAT      O92032   5.277   5.745   8.832
30597WAT     H192033   5.297   5.782   8.923
30597WAT     H292034   5.321   5.802   8.762
30598WAT      O92035   3.694   6.081   1.361
30598WAT     H192036   3.721   6.113   1.452
30598WAT     H292037   3.718   6.150   1.293
30599WAT      O92038   1.065   6.057   8.260
30599WAT     H192039   1.118   6.041   8.344
30599WAT     H292040   1.107   6.131   8.208
30600WAT      O92041   5.975   8.642   8.170
30600WAT     H192042   5.927   8.589   8.100
30600WAT     H292043   5.910   8.673   8.240
30601WAT      O92044   7.477   0.873   9.235
30601WAT     H192045   7.438   0.931   9.163
30601WAT     H292046   7.483   0.779   9.203
30602WAT      O92047   8.680   3.069   0.080
30602WAT     H192048   8.754   3.117   0.127
30602WAT     H292049   8.718   3.018   0.002
30603WAT      O92050   9.071   0.465   3.337
30603WAT     H192051   9.031   0.556   3.334
30603WAT     H292052   9.011   0.403   3.388
30604WAT      O92053   4.116   7.393   7.210
30604WAT     H192054   4.058   7.388   7.129
30604WAT     H292055   4.191   7.328   7.202
30605WAT      O92056   1.674   0.783   6.968
30605WAT     H192057   1.586   0.749   7.000
30605WAT     H292058   1.735   0.797   7.046
30606WAT      O92059   1.245   0.749   9.232
30606WAT     H192060   1.331   0.706   9.205
30606WAT     H292061   1.202   0.790   9.152
30607WAT      O92062   7.920   2.112   3.802
30607WAT     H192063   7.918   2.104   3.901
30607WAT     H292064   8.015   2.103   3.769
30608WAT      O92065   9.415   5.955   4.951
30608WAT     H192066   9.494   5.901   4.921
30608WAT     H292067   9.331   5.905   4.931
30609WAT      O92068   4.839   6.669   4.958
30609WAT     H192069   4.824   6.587   5.013
30609WAT     H292070   4.787   6.663   4.873
30610WAT      O92071   9.497   6.969   0.090
30610WAT     H192072   9.567   6.980   0.019
30610WAT     H292073   9.492   7.052   0.145
30611WAT      O92074   5.886   2.557   7.408
30611WAT     H192075   5.891   2.641   7.462
30611WAT     H292076   5.923   2.574   7.317
30612WAT      O92077   2.809   7.673   7.612
30612WAT     H192078   2.884   7.687   7.547
30612WAT     H292079   2.839   7.700   7.703
30613WAT      O92080   8.701   5.004   2.521
30613WAT     H192081   8.645   5.047   2.591
30613WAT     H292082   8.759   4.934   2.563
30614WAT      O92083   6.934   7.765   6.273
30614WAT     H192084   7.028   7.797   6.266
30614WAT     H292085   6.899   7.743   6.182
30615WAT      O92086   9.632   3.562   8.347
30615WAT     H192087   9.667   3.469   8.364
30615WAT     H292088   9.551   3.557   8.289
30616WAT      O92089   5.934   6.209   2.559
30616WAT     H192090   5.850   6.159   2.582
30616WAT     H292091   5.924   6.304   2.588
30617WAT      O92092   2.585   8.471   8.393
30617WAT     H192093   2.589   8.496   8.489
30617WAT     H292094   2.496   8.431   8.372
30618WAT      O92095   1.731   1.873   9.237
30618WAT     H192096   1.784   1.943   9.284
30618WAT     H292097   1.660   1.916   9.182
30619WAT      O92098   2.405   1.854   2.488
30619WAT     H192099   2.448   1.911   2.418
30619WAT     H292100   2.335   1.796   2.445
30620WAT      O92101   5.701   5.053   8.607
30620WAT     H192102   5.654   5.141   8.612
30620WAT     H292103   5.696   5.018   8.513
30621WAT      O92104   3.216   7.121   1.103
30621WAT     H192105   3.309   7.124   1.065
30621WAT     H292106   3.163   7.051   1.055
30622WAT      O92107   3.100   0.134   2.687
30622WAT     H192108   3.186   0.088   2.708
30622WAT     H292109   3.031   0.108   2.754
30623WAT      O92110   6.366   9.677   2.527
30623WAT     H192111   6.289   9.726   2.486
30623WAT     H292112   6.441   9.674   2.461
30624WAT      O92113   9.219   1.012   5.970
30624WAT     H192114   9.243   0.999   5.874
30624WAT     H292115   9.298   0.993   6.027
30625WAT      O92116   5.696   6.115   8.450
30625WAT     H192117   5.792   6.106   8.476
30625WAT     H292118   5.672   6.043   8.385
30626WAT      O92119   7.494   3.849   3.551
30626WAT     H192120   7.438   3.907   3.491
30626WAT     H292121   7.549   3.787   3.496
30627WAT      O92122   5.554   8.516   8.665
30627WAT     H192123   5.485   8.454   8.626
30627WAT     H292124   5.616   8.546   8.593
30628WAT      O92125   6.569   2.863   2.642
30628WAT     H192126   6.605   2.771   2.661
30628WAT     H292127   6.590   2.923   2.719
30629WAT      O92128   3.373   3.715   3.076
30629WAT     H192129   3.310   3.649   3.036
30629WAT     H292130   3.379   3.702   3.175
30630WAT      O92131   6.385   2.624   8.053
30630WAT     H192132   6.292   2.615   8.020
30630WAT     H292133   6.449   2.596   7.982
30631WAT      O92134   9.521   1.043   3.687
30631WAT     H192135   9.614   1.020   3.714
30631WAT     H292136   9.480   0.964   3.641
30632WAT      O92137   1.845   8.483   3.866
30632WAT     H192138   1.846   8.547   3.942
30632WAT     H292139   1.918   8.506   3.802
30633WAT      O92140   6.436   4.790   3.490
30633WAT     H192141   6.393   4.700   3.478
30633WAT     H292142   6.368   4.854   3.525
30634WAT      O92143   4.221   2.555   9.230
30634WAT     H192144   4.154   2.624   9.203
30634WAT     H292145   4.193   2.466   9.193
30635WAT      O92146   7.204   4.487   8.805
30635WAT     H192147   7.277   4.480   8.873
30635WAT     H292148   7.152   4.401   8.802
30636WAT      O92149   3.110   1.285   5.387
30636WAT     H192150   3.103   1.270   5.485
30636WAT     H292151   3.027   1.331   5.354
30637WAT      O92152   7.196   3.348   8.038
30637WAT     H192153   7.256   3.296   8.099
30637WAT     H292154   7.243   3.431   8.009
30638WAT      O92155   6.248   9.104   0.502
30638WAT     H192156   6.314   9.089   0.576
30638WAT     H292157   6.166   9.149   0.538
30639WAT      O92158   1.395   0.385   8.552
30639WAT     H192159   1.378   0.287   8.565
30639WAT     H292160   1.467   0.414   8.615
30640WAT      O92161   4.274   3.652   0.527
30640WAT     H192162   4.273   3.554   0.548
30640WAT     H292163   4.271   3.665   0.428
30641WAT      O92164   8.305   2.247   7.647
30641WAT     H192165   8.257   2.274   7.564
30641WAT     H292166   8.355   2.325   7.684
30642WAT      O92167   5.725   2.398   1.655
30642WAT     H192168   5.799   2.332   1.669
30642WAT     H292169   5.673   2.409   1.739
30643WAT      O92170   1.574   5.588   1.690
30643WAT     H192171   1.601   5.671   1.641
30643WAT     H292172   1.482   5.600   1.728
30644WAT      O92173   4.238   2.456   4.939
30644WAT     H192174   4.196   2.496   4.857
30644WAT     H292175   4.311   2.394   4.912
30645WAT      O92176   5.051   8.969   3.874
30645WAT     H192177   4.958   9.003   3.888
30645WAT     H292178   5.051   8.869   3.877
30646WAT      O92179   7.578   4.467   0.112
30646WAT     H192180   7.515   4.399   0.150
30646WAT     H292181   7.582   4.457   0.013
30647WAT      O92182   5.387   7.339   0.830
30647WAT     H192183   5.451   7.402   0.787
30647WAT     H292184   5.431   7.297   0.909
30648WAT      O92185   8.316   8.359   8.483
30648WAT     H192186   8.317   8.337   8.386
30648WAT     H292187   8.229   8.330   8.524
30649WAT      O92188   5.156   3.897   9.898
30649WAT     H192189   5.177   3.810   9.853
30649WAT     H292190   5.120   3.962   9.831
30650WAT      O92191   0.795   3.833   1.109
30650WAT     H192192   0.877   3.863   1.060
30650WAT     H292193   0.803   3.735   1.130
30651WAT      O92194   8.490   5.047   4.448
30651WAT     H192195   8.438   5.019   4.529
30651WAT     H292196   8.428   5.085   4.380
30652WAT      O92197   5.559   2.473   0.224
30652WAT     H192198   5.650   2.434   0.209
30652WAT     H292199   5.491   2.399   0.226
30653WAT      O92200   6.960   1.986   4.686
30653WAT     H192201   6.869   2.018   4.661
30653WAT     H292202   6.953   1.925   4.765
30654WAT      O92203   8.608   8.961   8.500
30654WAT     H192204   8.515   8.979   8.531
30654WAT     H292205   8.612   8.870   8.457
30655WAT      O92206   2.694   8.264   4.652
30655WAT     H192207   2.755   8.340   4.671
30655WAT     H292208   2.608   8.298   4.613
30656WAT      O92209   4.132   0.111   8.316
30656WAT     H192210   4.205   0.167   8.355
30656WAT     H292211   4.064   0.170   8.273
30657WAT      O92212   0.865   1.925   2.627
30657WAT     H192213   0.882   2.019   2.596
30657WAT     H292214   0.790   1.886   2.575
30658WAT      O92215   3.215   2.929   8.532
30658WAT     H192216   3.285   2.876   8.581
30658WAT     H292217   3.132   2.934   8.588
30659WAT      O92218   2.294   3.171   3.679
30659WAT     H192219   2.214   3.217   3.718
30659WAT     H292220   2.266   3.112   3.603
30660WAT      O92221   9.224   9.395   2.124
30660WAT     H192222   9.295   9.447   2.077
30660WAT     H292223   9.134   9.424   2.090
30661WAT      O92224   9.738   7.796   2.806
30661WAT     H192225   9.676   7.863   2.765
30661WAT     H292226   9.805   7.768   2.737
30662WAT      O92227   6.750   3.976   6.685
30662WAT     H192228   6.728   4.065   6.723
30662WAT     H292229   6.671   3.916   6.691
30663WAT      O92230   2.376   9.492   3.166
30663WAT     H192231   2.322   9.464   3.086
30663WAT     H292232   2.324   9.476   3.249
30664WAT      O92233   0.491   0.141   8.262
30664WAT     H192234   0.497   0.163   8.164
30664WAT     H292235   0.515   0.044   8.275
30665WAT      O92236   3.774   1.621   5.152
30665WAT     H192237   3.804   1.716   5.135
30665WAT     H292238   3.853   1.560   5.143
30666WAT      O92239   6.153   5.271   6.633
30666WAT     H192240   6.096   5.306   6.558
30666WAT     H292241   6.104   5.198   6.681
30667WAT      O92242   8.705   8.248   5.137
30667WAT     H192243   8.614   8.268   5.172
30667WAT     H292244   8.760   8.207   5.209
30668WAT      O92245   2.738   7.941   6.134
30668WAT     H192246   2.639   7.951   6.145
30668WAT     H292247   2.770   8.005   6.064
30669WAT      O92248   7.861   4.442   9.592
30669WAT     H192249   7.901   4.351   9.581
30669WAT     H292250   7.903   4.505   9.527
30670WAT      O92251   8.341   6.916   6.771
30670WAT     H192252   8.279   6.972   6.827
30670WAT     H292253   8.377   6.972   6.697
30671WAT      O92254   3.694   7.650   8.783
30671WAT     H192255   3.668   7.589   8.708
30671WAT     H292256   3.663   7.743   8.762
30672WAT      O92257   9.874   1.396   9.299
30672WAT     H192258   9.945   1.364   9.361
30672WAT     H292259   9.873   1.337   9.217
30673WAT      O92260   2.836   0.893   2.840
30673WAT     H192261   2.887   0.835   2.904
30673WAT     H292262   2.749   0.850   2.818
30674WAT      O92263   0.455   6.842   0.729
30674WAT     H192264   0.543   6.887   0.718
30674WAT     H292265   0.455   6.756   0.679
30675WAT      O92266   9.617   9.254   2.484
30675WAT     H192267   9.616   9.155   2.496
30675WAT     H292268   9.615   9.276   2.387
30676WAT      O92269   1.936   4.196   9.603
30676WAT     H192270   1.945   4.114   9.659
30676WAT     H292271   1.980   4.273   9.650
30677WAT      O92272   1.745   9.195   8.063
30677WAT     H192273   1.760   9.116   8.003
30677WAT     H292274   1.831   9.246   8.073
30678WAT      O92275   0.946   6.382   3.585
30678WAT     H192276   1.031   6.415   3.627
30678WAT     H292277   0.882   6.458   3.577
30679WAT      O92278   1.078   1.799   0.159
30679WAT     H192279   1.109   1.704   0.166
30679WAT     H292280   1.050   1.832   0.248
30680WAT      O92281   4.644   4.934   1.701
30680WAT     H192282   4.617   4.986   1.620
30680WAT     H292283   4.582   4.955   1.777
30681WAT      O92284   5.445   1.593   2.073
30681WAT     H192285   5.365   1.610   2.016
30681WAT     H292286   5.525   1.582   2.015
30682WAT      O92287   7.553   9.493   1.731
30682WAT     H192288   7.595   9.413   1.774
30682WAT     H292289   7.622   9.566   1.724
30683WAT      O92290   1.801   0.219   1.047
30683WAT     H192291   1.815   0.317   1.032
30683WAT     H292292   1.855   0.189   1.125
30684WAT      O92293   5.248   3.510   8.740
30684WAT     H192294   5.326   3.538   8.684
30684WAT     H292295   5.166   3.504   8.683
30685WAT      O92296   7.598   5.779   8.639
30685WAT     H192297   7.517   5.838   8.635
30685WAT     H292298   7.680   5.836   8.642
30686WAT      O92299   9.302   6.893   9.656
30686WAT     H192300   9.323   6.991   9.663
30686WAT     H292301   9.291   6.855   9.748
30687WAT      O92302   0.489   3.627   6.888
30687WAT     H192303   0.417   3.624   6.957
30687WAT     H292304   0.502   3.722   6.858
30688WAT      O92305   5.190   1.035   1.307
30688WAT     H192306   5.175   0.947   1.351
30688WAT     H292307   5.133   1.104   1.351
30689WAT      O92308   2.605   4.548   7.735
30689WAT     H192309   2.550   4.544   7.818
30689WAT     H292310   2.701   4.533   7.758
30690WAT      O92311   6.588   3.052   9.700
30690WAT     H192312   6.630   2.980   9.646
30690WAT     H292313   6.537   3.012   9.777
30691WAT      O92314   7.237   5.125   4.914
30691WAT     H192315   7.214   5.031   4.938
30691WAT     H292316   7.298   5.163   4.984
30692WAT      O92317   0.701   1.306   2.554
30692WAT     H192318   0.789   1.346   2.529
30692WAT     H292319   0.647   1.288   2.472
30693WAT      O92320   2.668   1.393   6.371
30693WAT     H192321   2.717   1.348   6.447
30693WAT     H292322   2.583   1.432   6.405
30694WAT      O92323   2.203   8.664   9.164
30694WAT     H192324   2.288   8.660   9.216
30694WAT     H292325   2.201   8.746   9.108
30695WAT      O92326   8.698   5.138   5.587
30695WAT     H192327   8.783   5.093   5.616
30695WAT     H292328   8.708   5.170   5.493
30696WAT      O92329   6.359   6.881   4.286
30696WAT     H192330   6.454   6.909   4.277
30696WAT     H292331   6.345   6.840   4.376
30697WAT      O92332   2.158   0.263   2.387
30697WAT     H192333   2.244   0.260   2.336
30697WAT     H292334   2.123   0.170   2.398
30698WAT      O92335   8.264   8.340   9.100
30698WAT     H192336   8.276   8.243   9.077
30698WAT     H292337   8.209   8.384   9.029
30699WAT      O92338   7.091   1.410   8.379
30699WAT     H192339   7.116   1.506   8.369
30699WAT     H292340   7.123   1.359   8.300
30700WAT      O92341   7.684   1.188   8.959
30700WAT     H192342   7.673   1.214   8.863
30700WAT     H292343   7.672   1.090   8.969
30701WAT      O92344   0.704   5.510   2.235
30701WAT     H192345   0.737   5.603   2.220
30701WAT     H292346   0.661   5.476   2.151
30702WAT      O92347   5.382   7.335   1.188
30702WAT     H192348   5.426   7.424   1.193
30702WAT     H292349   5.435   7.275   1.129
30703WAT      O92350   3.066   0.363   0.865
30703WAT     H192351   3.065   0.298   0.941
30703WAT     H292352   3.117   0.445   0.892
30704WAT      O92353   8.976   4.671   9.828
30704WAT     H192354   9.007   4.735   9.758
30704WAT     H292355   9.027   4.585   9.820
30705WAT      O92356   2.515   4.428   7.289
30705WAT     H192357   2.482   4.509   7.337
30705WAT     H292358   2.567   4.371   7.353
30706WAT      O92359   8.707   1.089   7.549
30706WAT     H192360   8.698   1.017   7.618
30706WAT     H292361   8.796   1.133   7.560
30707WAT      O92362   1.808   1.410   0.470
30707WAT     H192363   1.781   1.314   0.482
30707WAT     H292364   1.880   1.416   0.401
30708WAT      O92365   6.138   2.614   7.958
30708WAT     H192366   6.080   2.665   8.022
30708WAT     H292367   6.106   2.629   7.865
30709WAT      O92368   7.740   2.177   8.027
30709WAT     H192369   7.716   2.273   8.043
30709WAT     H292370   7.702   2.147   7.940
30710WAT      O92371   2.419   0.909   4.161
30710WAT     H192372   2.496   0.962   4.125
30710WAT     H292373   2.442   0.873   4.251
30711WAT      O92374   8.148   2.300   2.960
30711WAT     H192375   8.124   2.299   2.863
30711WAT     H292376   8.235   2.252   2.973
30712WAT      O92377   9.501   2.618   2.773
30712WAT     H192378   9.533   2.682   2.843
30712WAT     H292379   9.411   2.647   2.740
30713WAT      O92380   2.529   0.929   1.202
30713WAT     H192381   2.549   1.012   1.149
30713WAT     H292382   2.559   0.942   1.296
30714WAT      O92383   1.303   3.788   6.467
30714WAT     H192384   1.301   3.881   6.429
30714WAT     H292385   1.243   3.784   6.547
30715WAT      O92386   7.464   9.794   0.688
30715WAT     H192387   7.469   9.695   0.706
30715WAT     H292388   7.368   9.821   0.680
30716WAT      O92389   6.264   3.228   3.934
30716WAT     H192390   6.213   3.233   4.020
30716WAT     H292391   6.329   3.152   3.939
30717WAT      O92392   5.268   4.088   1.523
30717WAT     H192393   5.199   4.019   1.545
30717WAT     H292394   5.352   4.068   1.574
30718WAT      O92395   5.121   3.483   9.379
30718WAT     H192396   5.159   3.508   9.290
30718WAT     H292397   5.029   3.520   9.388
30719WAT      O92398   2.660   8.915   0.996
30719WAT     H192399   2.710   8.828   1.005
30719WAT     H292400   2.725   8.991   0.998
30720WAT      O92401   5.799   2.702   2.322
30720WAT     H192402   5.783   2.771   2.252
30720WAT     H292403   5.712   2.667   2.355
30721WAT      O92404   4.410   3.968   6.703
30721WAT     H192405   4.500   3.982   6.742
30721WAT     H292406   4.416   3.970   6.603
30722WAT      O92407   7.853   4.415   0.251
30722WAT     H192408   7.785   4.448   0.186
30722WAT     H292409   7.828   4.323   0.281
30723WAT      O92410   5.579   3.096   9.401
30723WAT     H192411   5.665   3.077   9.353
30723WAT     H292412   5.572   3.194   9.419
30724WAT      O92413   5.987   5.359   3.992
30724WAT     H192414   6.060   5.307   4.037
30724WAT     H292415   6.002   5.457   4.007
30725WAT      O92416   6.729   3.832   9.768
30725WAT     H192417   6.789   3.877   9.834
30725WAT     H292418   6.733   3.733   9.781
30726WAT      O92419   5.689   6.068   6.877
30726WAT     H192420   5.632   6.143   6.844
30726WAT     H292421   5.685   5.992   6.812
30727WAT      O92422   9.139   0.646   0.938
30727WAT     H192423   9.222   0.622   0.888
30727WAT     H292424   9.134   0.745   0.949
30728WAT      O92425   5.889   8.083   1.001
30728WAT     H192426   5.825   8.100   1.076
30728WAT     H292427   5.980   8.063   1.039
30729WAT      O92428   2.216   3.466   9.806
30729WAT     H192429   2.311   3.490   9.826
30729WAT     H292430   2.157   3.545   9.827
30730WAT      O92431   7.300   6.822   0.433
30730WAT     H192432   7.247   6.850   0.513
30730WAT     H292433   7.280   6.884   0.357
30731WAT      O92434   5.416   0.963   7.784
30731WAT     H192435   5.318   0.946   7.786
30731WAT     H292436   5.445   1.003   7.871
30732WAT      O92437   4.680   0.043   3.257
30732WAT     H192438   4.729   0.117   3.304
30732WAT     H292439   4.667  -0.033   3.320
30733WAT      O92440   2.372   9.691   4.486
30733WAT     H192441   2.290   9.683   4.430
30733WAT     H292442   2.346   9.689   4.583
30734WAT      O92443   9.266   7.494   5.930
30734WAT     H192444   9.319   7.547   5.996
30734WAT     H292445   9.266   7.540   5.842
30735WAT      O92446   6.843   2.101   8.408
30735WAT     H192447   6.821   2.041   8.331
30735WAT     H292448   6.833   2.197   8.379
30736WAT      O92449   0.225   5.206   7.647
30736WAT     H192450   0.297   5.137   7.633
30736WAT     H292451   0.239   5.250   7.736
30737WAT      O92452   8.895   2.472   4.136
30737WAT     H192453   8.916   2.565   4.109
30737WAT     H292454   8.978   2.416   4.131
30738WAT      O92455   2.507   7.743   3.086
30738WAT     H192456   2.517   7.837   3.053
30738WAT     H292457   2.494   7.682   3.008
30739WAT      O92458   4.312   8.578   9.761
30739WAT     H192459   4.289   8.553   9.855
30739WAT     H292460   4.411   8.573   9.749
30740WAT      O92461   5.211   9.587   0.375
30740WAT     H192462   5.217   9.504   0.320
30740WAT     H292463   5.259   9.573   0.462
30741WAT      O92464   1.640   7.190   0.637
30741WAT     H192465   1.667   7.218   0.545
30741WAT     H292466   1.688   7.105   0.661
30742WAT      O92467   3.689   0.319   7.116
30742WAT     H192468   3.685   0.298   7.019
30742WAT     H292469   3.767   0.272   7.158
30743WAT      O92470   2.179   3.452   7.804
30743WAT     H192471   2.207   3.377   7.744
30743WAT     H292472   2.167   3.536   7.750
30744WAT      O92473   2.402   7.497   9.269
30744WAT     H192474   2.487   7.548   9.265
30744WAT     H292475   2.399   7.442   9.352
30745WAT      O92476   1.051   8.264   3.434
30745WAT     H192477   1.140   8.296   3.467
30745WAT     H292478   1.008   8.208   3.504
30746WAT      O92479   0.513   8.604   9.537
30746WAT     H192480   0.518   8.510   9.572
30746WAT     H292481   0.540   8.605   9.441
30747WAT      O92482   8.412   7.282   6.760
30747WAT     H192483   8.509   7.277   6.735
30747WAT     H292484   8.403   7.318   6.853
30748WAT      O92485   8.881   6.062   5.831
30748WAT     H192486   8.865   5.979   5.779
30748WAT     H292487   8.933   6.127   5.776
30749WAT      O92488   8.496   0.568   7.353
30749WAT     H192489   8.414   0.547   7.299
30749WAT     H292490   8.495   0.514   7.437
30750WAT      O92491   5.721   1.173   5.282
30750WAT     H192492   5.742   1.115   5.361
30750WAT     H292493   5.805   1.195   5.233
30751WAT      O92494   8.226   8.637   2.137
30751WAT     H192495   8.228   8.546   2.179
30751WAT     H292496   8.154   8.691   2.181
30752WAT      O92497   0.029   6.199   2.399
30752WAT     H192498   0.057   6.186   2.304
30752WAT     H292499   0.107   6.228   2.454
30753WAT      O92500   1.915   0.508   6.076
30753WAT     H192501   1.884   0.603   6.076
30753WAT     H292502   1.961   0.487   6.162
30754WAT      O92503   4.535   4.681   8.106
30754WAT     H192504   4.573   4.645   8.021
30754WAT     H292505   4.576   4.770   8.126
30755WAT      O92506   1.807   9.549   8.143
30755WAT     H192507   1.767   9.522   8.230
30755WAT     H292508   1.858   9.473   8.104
30756WAT      O92509   0.891   3.203   2.535
30756WAT     H192510   0.859   3.193   2.441
30756WAT     H292511   0.858   3.126   2.590
30757WAT      O92512   6.469   9.741   4.889
30757WAT     H192513   6.430   9.818   4.838
30757WAT     H292514   6.412   9.660   4.875
30758WAT      O92515   1.436   1.654   9.089
30758WAT     H192516   1.386   1.568   9.099
30758WAT     H292517   1.481   1.677   9.176
30759WAT      O92518   4.771   2.990   4.765
30759WAT     H192519   4.678   2.956   4.775
30759WAT     H292520   4.770   3.085   4.733
30760WAT      O92521   9.232   3.137   3.558
30760WAT     H192522   9.260   3.210   3.621
30760WAT     H292523   9.224   3.051   3.609
30761WAT      O92524   7.159   8.202   9.693
30761WAT     H192525   7.131   8.134   9.760
30761WAT     H292526   7.238   8.168   9.642
30762WAT      O92527   9.351   0.211   0.433
30762WAT     H192528   9.353   0.122   0.478
30762WAT     H292529   9.393   0.203   0.343
30763WAT      O92530   1.478   5.413   8.617
30763WAT     H192531   1.427   5.365   8.689
30763WAT     H292532   1.515   5.347   8.552
30764WAT      O92533   2.984   5.288   1.617
30764WAT     H192534   2.900   5.235   1.607
30764WAT     H292535   2.978   5.372   1.565
30765WAT      O92536   6.928   3.056   9.368
30765WAT     H192537   6.966   3.011   9.448
30765WAT     H292538   6.929   3.155   9.383
30766WAT      O92539   7.693   4.182   3.483
30766WAT     H192540   7.673   4.255   3.549
30766WAT     H292541   7.627   4.184   3.409
30767WAT      O92542   9.639   5.559   2.895
30767WAT     H192543   9.731   5.558   2.854
30767WAT     H292544   9.634   5.630   2.965
30768WAT      O92545   3.588   7.818   3.617
30768WAT     H192546   3.653   7.876   3.666
30768WAT     H292547   3.638   7.751   3.561
30769WAT      O92548   8.058   5.234   9.285
30769WAT     H192549   8.091   5.139   9.291
30769WAT     H292550   8.004   5.245   9.202
30770WAT      O92551   9.158   0.437   8.768
30770WAT     H192552   9.247   0.414   8.806
30770WAT     H292553   9.153   0.535   8.751
30771WAT      O92554   2.896   1.479   0.293
30771WAT     H192555   2.880   1.571   0.258
30771WAT     H292556   2.809   1.436   0.316
30772WAT      O92557   8.995   7.580   2.181
30772WAT     H192558   9.094   7.570   2.176
30772WAT     H292559   8.972   7.675   2.203
30773WAT      O92560   6.945   1.522   9.503
30773WAT     H192561   6.846   1.506   9.513
30773WAT     H292562   6.965   1.618   9.518
30774WAT      O92563   3.920   0.543   4.893
30774WAT     H192564   3.837   0.595   4.870
30774WAT     H292565   4.000   0.602   4.883
30775WAT      O92566   2.625   2.714   8.612
30775WAT     H192567   2.541   2.762   8.639
30775WAT     H292568   2.602   2.622   8.582
30776WAT      O92569   6.032   3.165   3.299
30776WAT     H192570   6.025   3.072   3.264
30776WAT     H292571   5.973   3.225   3.245
30777WAT      O92572   1.018   6.616   0.452
30777WAT     H192573   1.062   6.694   0.408
30777WAT     H292574   0.948   6.648   0.516
30778WAT      O92575   9.269   0.845   0.667
30778WAT     H192576   9.190   0.892   0.627
30778WAT     H292577   9.308   0.900   0.741
30779WAT      O92578   0.748   6.303   2.941
30779WAT     H192579   0.666   6.355   2.965
30779WAT     H292580   0.790   6.342   2.859
30780WAT      O92581   8.329   2.535   1.638
30780WAT     H192582   8.296   2.479   1.714
30780WAT     H292583   8.424   2.561   1.654
30781WAT      O92584   8.131   7.610   6.663
30781WAT     H192585   8.071   7.531   6.674
30781WAT     H292586   8.080   7.686   6.624
30782WAT      O92587   7.780   1.528   4.874
30782WAT     H192588   7.694   1.567   4.841
30782WAT     H292589   7.846   1.601   4.889
30783WAT      O92590   9.577   8.016   7.193
30783WAT     H192591   9.508   7.944   7.180
30783WAT     H292592   9.540   8.103   7.159
30784WAT      O92593   8.690   2.038   8.342
30784WAT     H192594   8.737   1.951   8.328
30784WAT     H292595   8.751   2.102   8.389
30785WAT      O92596   5.699   0.020   7.473
30785WAT     H192597   5.756   0.028   7.391
30785WAT     H292598   5.720  -0.066   7.520
30786WAT      O92599   1.192   7.097   3.847
30786WAT     H192600   1.189   7.190   3.810
30786WAT     H292601   1.243   7.097   3.932
30787WAT      O92602   5.488   4.550   7.307
30787WAT     H192603   5.486   4.496   7.224
30787WAT     H292604   5.399   4.546   7.353
30788WAT      O92605   5.697   2.975   3.636
30788WAT     H192606   5.714   3.003   3.730
30788WAT     H292607   5.783   2.979   3.584
30789WAT      O92608   0.620   5.359   8.263
30789WAT     H192609   0.644   5.291   8.332
30789WAT     H292610   0.527   5.392   8.279
30790WAT      O92611   0.293   3.321   6.533
30790WAT     H192612   0.325   3.320   6.438
30790WAT     H292613   0.288   3.415   6.566
30791WAT      O92614   7.149   5.216   4.011
30791WAT     H192615   7.206   5.250   4.086
30791WAT     H292616   7.181   5.254   3.924
30792WAT      O92617   9.474   3.489   7.759
30792WAT     H192618   9.423   3.512   7.676
30792WAT     H292619   9.559   3.444   7.733
30793WAT      O92620   0.127   3.876   3.584
30793WAT     H192621   0.160   3.797   3.533
30793WAT     H292622   0.088   3.845   3.671
30794WAT      O92623   3.498   3.344   0.184
30794WAT     H192624   3.433   3.268   0.190
30794WAT     H292625   3.571   3.329   0.250
30795WAT      O92626   7.126   1.279   3.336
30795WAT     H192627   7.124   1.367   3.287
30795WAT     H292628   7.192   1.218   3.292
30796WAT      O92629   9.826   2.806   3.556
30796WAT     H192630   9.789   2.819   3.463
30796WAT     H292631   9.925   2.803   3.552
30797WAT      O92632   6.361   9.347   2.626
30797WAT     H192633   6.341   9.271   2.564
30797WAT     H292634   6.456   9.375   2.614
30798WAT      O92635   6.598   3.237   3.799
30798WAT     H192636   6.657   3.279   3.731
30798WAT     H292637   6.651   3.216   3.881
30799WAT      O92638   8.884   9.526   1.722
30799WAT     H192639   8.968   9.476   1.743
30799WAT     H292640   8.808   9.488   1.774
30800WAT      O92641   7.744   0.041   1.012
30800WAT     H192642   7.724   0.074   0.920
30800WAT     H292643   7.742  -0.059   1.012
30801WAT      O92644   5.914   2.075   6.137
30801WAT     H192645   6.005   2.038   6.154
30801WAT     H292646   5.853   2.049   6.212
30802WAT      O92647   2.636   8.725   5.442
30802WAT     H192648   2.714   8.741   5.382
30802WAT     H292649   2.569   8.668   5.395
30803WAT      O92650   3.428   5.969   1.725
30803WAT     H192651   3.523   5.999   1.727
30803WAT     H292652   3.417   5.887   1.781
30804WAT      O92653   7.472   5.199   7.357
30804WAT     H192654   7.389   5.205   7.300
30804WAT     H292655   7.481   5.106   7.392
30805WAT      O92656   7.434   5.671   5.049
30805WAT     H192657   7.380   5.684   5.132
30805WAT     H292658   7.411   5.742   4.982
30806WAT      O92659   0.939   1.858   3.423
30806WAT     H192660   1.004   1.818   3.358
30806WAT     H292661   0.847   1.823   3.404
30807WAT      O92662   5.216   7.305   2.488
30807WAT     H192663   5.276   7.372   2.532
30807WAT     H292664   5.270   7.224   2.462
30808WAT      O92665   7.116   9.784   4.173
30808WAT     H192666   7.141   9.854   4.106
30808WAT     H292667   7.104   9.696   4.126
30809WAT      O92668   9.766   8.483   3.089
30809WAT     H192669   9.847   8.468   3.033
30809WAT     H292670   9.685   8.488   3.031
30810WAT      O92671   4.956   0.372   6.965
30810WAT     H192672   5.003   0.395   6.880
30810WAT     H292673   4.981   0.279   6.993
30811WAT      O92674   4.348   8.842   5.326
30811WAT     H192675   4.271   8.883   5.373
30811WAT     H292676   4.425   8.832   5.389
30812WAT      O92677   0.624   4.187   0.718
30812WAT     H192678   0.556   4.200   0.646
30812WAT     H292679   0.612   4.098   0.760
30813WAT      O92680   8.038   3.636   3.379
30813WAT     H192681   8.055   3.728   3.415
30813WAT     H292682   8.013   3.575   3.453
30814WAT      O92683   0.076   1.318   2.159
30814WAT     H192684   0.172   1.319   2.130
30814WAT     H292685   0.068   1.269   2.245
30815WAT      O92686   4.058   6.249   4.618
30815WAT     H192687   4.075   6.284   4.526
30815WAT     H292688   4.133   6.189   4.645
30816WAT      O92689   4.565   4.534   7.340
30816WAT     H192690   4.588   4.583   7.424
30816WAT     H292691   4.470   4.553   7.315
30817WAT      O92692   9.577   3.384   2.205
30817WAT     H192693   9.521   3.335   2.139
30817WAT     H292694   9.573   3.337   2.293
30818WAT      O92695   4.869   7.972   4.462
30818WAT     H192696   4.774   7.974   4.432
30818WAT     H292697   4.877   8.018   4.551
30819WAT      O92698   1.185   2.265   7.650
30819WAT     H192699   1.238   2.195   7.699
30819WAT     H292700   1.223   2.356   7.671
30820WAT      O92701   6.116   1.917   2.297
30820WAT     H192702   6.181   1.879   2.231
30820WAT     H292703   6.167   1.968   2.367
30821WAT      O92704   0.304   5.443   2.204
30821WAT     H192705   0.233   5.513   2.213
30821WAT     H292706   0.377   5.461   2.269
30822WAT      O92707   2.026   9.581   4.132
30822WAT     H192708   1.977   9.495   4.147
30822WAT     H292709   2.010   9.613   4.039
30823WAT      O92710   3.400   1.810   6.470
30823WAT     H192711   3.378   1.823   6.373
30823WAT     H292712   3.476   1.870   6.496
30824WAT      O92713   5.239   8.882   0.162
30824WAT     H192714   5.139   8.891   0.162
30824WAT     H292715   5.280   8.961   0.207
30825WAT      O92716   1.726   4.335   8.403
30825WAT     H192717   1.725   4.273   8.325
30825WAT     H292718   1.662   4.302   8.473
30826WAT      O92719   1.212   0.377   7.696
30826WAT     H192720   1.125   0.422   7.674
30826WAT     H292721   1.202   0.324   7.780
30827WAT      O92722   5.432   4.345   2.365
30827WAT     H192723   5.431   4.373   2.269
30827WAT     H292724   5.489   4.409   2.417
30828WAT      O92725   2.074   0.178   4.734
30828WAT     H192726   2.032   0.135   4.654
30828WAT     H292727   2.136   0.251   4.703
30829WAT      O92728   8.204   2.793   5.734
30829WAT     H192729   8.137   2.743   5.789
30829WAT     H292730   8.204   2.758   5.641
30830WAT      O92731   5.779   2.364   7.561
30830WAT     H192732   5.818   2.442   7.512
30830WAT     H292733   5.852   2.301   7.586
30831WAT      O92734   2.416   5.667   9.605
30831WAT     H192735   2.406   5.597   9.535
30831WAT     H292736   2.446   5.625   9.690
30832WAT      O92737   3.290   0.609   4.641
30832WAT     H192738   3.289   0.704   4.674
30832WAT     H292739   3.235   0.552   4.702
30833WAT      O92740   8.324   5.462   3.732
30833WAT     H192741   8.255   5.481   3.801
30833WAT     H292742   8.279   5.448   3.643
30834WAT      O92743   7.646   2.339   4.592
30834WAT     H192744   7.597   2.375   4.672
30834WAT     H292745   7.699   2.259   4.619
30835WAT      O92746   7.071   8.412   2.323
30835WAT     H192747   7.061   8.419   2.224
30835WAT     H292748   7.082   8.503   2.362
30836WAT      O92749   2.526   5.522   1.638
30836WAT     H192750   2.468   5.442   1.655
30836WAT     H292751   2.619   5.502   1.669
30837WAT      O92752   3.124   1.300   4.734
30837WAT     H192753   3.206   1.244   4.742
30837WAT     H292754   3.088   1.294   4.641
30838WAT      O92755   3.241   5.626   7.823
30838WAT     H192756   3.154   5.586   7.794
30838WAT     H292757   3.296   5.650   7.743
30839WAT      O92758   6.798   4.639   5.178
30839WAT     H192759   6.840   4.723   5.213
30839WAT     H292760   6.824   4.627   5.082
30840WAT      O92761   5.488   5.040   9.158
30840WAT     H192762   5.532   4.964   9.111
30840WAT     H292763   5.406   5.067   9.108
30841WAT      O92764   2.799   7.503   2.377
30841WAT     H192765   2.860   7.497   2.457
30841WAT     H292766   2.848   7.541   2.299
30842WAT      O92767   6.736   1.837   3.234
30842WAT     H192768   6.655   1.828   3.291
30842WAT     H292769   6.804   1.768   3.260
30843WAT      O92770   4.842   0.921   6.126
30843WAT     H192771   4.816   0.824   6.127
30843WAT     H292772   4.923   0.934   6.070
30844WAT      O92773   9.150   3.876   2.016
30844WAT     H192774   9.194   3.797   1.973
30844WAT     H292775   9.114   3.936   1.945
30845WAT      O92776   3.241   7.934   6.604
30845WAT     H192777   3.216   7.898   6.694
30845WAT     H292778   3.337   7.913   6.586
30846WAT      O92779   2.728   3.634   4.695
30846WAT     H192780   2.804   3.659   4.634
30846WAT     H292781   2.647   3.688   4.670
30847WAT      O92782   1.650   7.504   2.749
30847WAT     H192783   1.731   7.489   2.806
30847WAT     H292784   1.568   7.490   2.804
30848WAT      O92785   1.438   2.418   8.572
30848WAT     H192786   1.528   2.382   8.599
30848WAT     H292787   1.408   2.486   8.639
30849WAT      O92788   3.980   0.595   1.595
30849WAT     H192789   3.977   0.665   1.524
30849WAT     H292790   3.887   0.577   1.628
30850WAT      O92791   6.776   2.813   5.887
30850WAT     H192792   6.765   2.730   5.832
30850WAT     H292793   6.861   2.859   5.860
30851WAT      O92794   7.243   5.013   1.376
30851WAT     H192795   7.297   5.095   1.357
30851WAT     H292796   7.148   5.040   1.396
30852WAT      O92797   8.074   7.620   1.822
30852WAT     H192798   8.036   7.682   1.754
30852WAT     H292799   8.026   7.633   1.909
30853WAT      O92800   8.569   0.094   2.399
30853WAT     H192801   8.667   0.114   2.393
30853WAT     H292802   8.531   0.139   2.480
30854WAT      O92803   9.409   8.634   9.061
30854WAT     H192804   9.380   8.587   8.978
30854WAT     H292805   9.453   8.720   9.037
30855WAT      O92806   5.791   0.781   7.171
30855WAT     H192807   5.716   0.831   7.213
30855WAT     H292808   5.789   0.686   7.202
30856WAT      O92809   7.419   1.296   9.229
30856WAT     H192810   7.460   1.340   9.149
30856WAT     H292811   7.326   1.330   9.242
30857WAT      O92812   9.767   5.313   0.946
30857WAT     H192813   9.827   5.324   0.867
30857WAT     H292814   9.795   5.375   1.019
30858WAT      O92815   1.875   1.934   3.663
30858WAT     H192816   1.857   1.964   3.757
30858WAT     H292817   1.890   1.836   3.662
30859WAT      O92818   9.001   8.656   8.497
30859WAT     H192819   8.925   8.629   8.556
30859WAT     H292820   8.975   8.735   8.442
30860WAT      O92821   5.124   6.747   2.711
30860WAT     H192822   5.124   6.755   2.611
30860WAT     H292823   5.199   6.688   2.739
30861WAT      O92824   4.293   1.971   4.075
30861WAT     H192825   4.218   1.989   4.011
30861WAT     H292826   4.294   2.043   4.145
30862WAT      O92827   5.381   7.721   7.995
30862WAT     H192828   5.288   7.752   8.011
30862WAT     H292829   5.382   7.621   7.985
30863WAT      O92830   3.117   1.920   3.619
30863WAT     H192831   3.143   1.845   3.559
30863WAT     H292832   3.018   1.919   3.633
30864WAT      O92833   4.210   8.640   7.439
30864WAT     H192834   4.168   8.607   7.524
30864WAT     H292835   4.163   8.723   7.409
30865WAT      O92836   3.836   1.976   9.302
30865WAT     H192837   3.775   2.047   9.338
30865WAT     H292838   3.796   1.937   9.219
30866WAT      O92839   8.495   9.612   2.369
30866WAT     H192840   8.497   9.669   2.287
30866WAT     H292841   8.585   9.569   2.381
30867WAT      O92842   8.660   5.505   7.203
30867WAT     H192843   8.747   5.541   7.238
30867WAT     H292844   8.668   5.406   7.191
30868WAT      O92845   6.003   2.635   5.861
30868WAT     H192846   5.947   2.679   5.791
30868WAT     H292847   5.943   2.600   5.933
30869WAT      O92848   8.727   5.049   1.436
30869WAT     H192849   8.645   5.104   1.424
30869WAT     H292850   8.787   5.060   1.356
30870WAT      O92851   1.547   2.778   1.417
30870WAT     H192852   1.506   2.825   1.496
30870WAT     H292853   1.475   2.757   1.351
30871WAT      O92854   5.953   4.930   1.226
30871WAT     H192855   6.002   5.017   1.235
30871WAT     H292856   5.924   4.898   1.316
30872WAT      O92857   1.594   7.464   3.522
30872WAT     H192858   1.538   7.431   3.598
30872WAT     H292859   1.602   7.564   3.528
30873WAT      O92860   9.190   7.950   0.039
30873WAT     H192861   9.091   7.940   0.031
30873WAT     H292862   9.232   7.948  -0.052
30874WAT      O92863   1.746   5.300   9.431
30874WAT     H192864   1.747   5.222   9.494
30874WAT     H292865   1.660   5.301   9.380
30875WAT      O92866   5.769   9.245   5.564
30875WAT     H192867   5.703   9.246   5.639
30875WAT     H292868   5.738   9.180   5.494
30876WAT      O92869   2.019   7.693   4.209
30876WAT     H192870   2.089   7.751   4.250
30876WAT     H292871   1.947   7.676   4.276
30877WAT      O92872   6.797   4.648   3.669
30877WAT     H192873   6.877   4.682   3.619
30877WAT     H292874   6.726   4.718   3.667
30878WAT      O92875   2.833   1.941   4.539
30878WAT     H192876   2.925   1.945   4.577
30878WAT     H292877   2.799   2.034   4.525
30879WAT      O92878   5.971   0.558   0.233
30879WAT     H192879   6.006   0.651   0.230
30879WAT     H292880   6.033   0.501   0.288
30880WAT      O92881   2.230   3.613   4.892
30880WAT     H192882   2.208   3.710   4.885
30880WAT     H292883   2.259   3.579   4.803
30881WAT      O92884   1.609   4.699   2.504
30881WAT     H192885   1.542   4.771   2.523
30881WAT     H292886   1.596   4.665   2.411
30882WAT      O92887   8.510   7.146   3.435
30882WAT     H192888   8.513   7.228   3.377
30882WAT     H292889   8.441   7.158   3.506
30883WAT      O92890   9.211   3.248   5.543
30883WAT     H192891   9.139   3.216   5.606
30883WAT     H292892   9.244   3.171   5.489
30884WAT      O92893   0.888   8.133   0.580
30884WAT     H192894   0.970   8.144   0.523
30884WAT     H292895   0.807   8.152   0.526
30885WAT      O92896   6.873   7.037   1.049
30885WAT     H192897   6.893   7.131   1.023
30885WAT     H292898   6.905   7.020   1.142
30886WAT      O92899   9.431   8.709   5.433
30886WAT     H192900   9.393   8.674   5.347
30886WAT     H292901   9.389   8.797   5.454
30887WAT      O92902   4.581   1.080   1.076
30887WAT     H192903   4.651   1.052   1.141
30887WAT     H292904   4.505   1.122   1.124
30888WAT      O92905   5.053   0.163   4.733
30888WAT     H192906   5.147   0.192   4.752
30888WAT     H292907   5.053   0.104   4.652
30889WAT      O92908   3.506   3.269   7.981
30889WAT     H192909   3.443   3.314   7.918
30889WAT     H292910   3.495   3.308   8.072
30890WAT      O92911   2.136   4.089   7.279
30890WAT     H192912   2.203   4.134   7.338
30890WAT     H292913   2.062   4.152   7.259
30891WAT      O92914   1.346   5.231   3.985
30891WAT     H192915   1.265   5.282   3.957
30891WAT     H292916   1.321   5.166   4.057
30892WAT      O92917   0.661   0.471   1.969
30892WAT     H192918   0.653   0.404   1.895
30892WAT     H292919   0.691   0.424   2.053
30893WAT      O92920   2.148   4.845   7.763
30893WAT     H192921   2.119   4.771   7.824
30893WAT     H292922   2.123   4.933   7.803
30894WAT      O92923   5.447   1.799   7.400
30894WAT     H192924   5.465   1.794   7.302
30894WAT     H292925   5.514   1.859   7.444
30895WAT      O92926   9.198   4.139   1.641
30895WAT     H192927   9.192   4.168   1.546
30895WAT     H292928   9.293   4.118   1.665
30896WAT      O92929   7.423   5.535   6.989
30896WAT     H192930   7.448   5.447   6.946
30896WAT     H292931   7.385   5.596   6.919
30897WAT      O92932   6.694   0.927   5.546
30897WAT     H192933   6.610   0.954   5.593
30897WAT     H292934   6.693   0.961   5.452
30898WAT      O92935   1.412   3.126   2.382
30898WAT     H192936   1.391   3.161   2.290
30898WAT     H292937   1.467   3.194   2.431
30899WAT      O92938   0.051   7.110   8.796
30899WAT     H192939   0.013   7.125   8.704
30899WAT     H292940   0.136   7.057   8.789
30900WAT      O92941   4.117   1.427   3.935
30900WAT     H192942   4.124   1.359   4.007
30900WAT     H292943   4.203   1.476   3.925
30901WAT      O92944   6.222   1.489   1.246
30901WAT     H192945   6.207   1.535   1.333
30901WAT     H292946   6.292   1.539   1.194
30902WAT      O92947   5.558   3.185   1.535
30902WAT     H192948   5.500   3.254   1.492
30902WAT     H292949   5.635   3.230   1.581
30903WAT      O92950   0.803   5.967   6.596
30903WAT     H192951   0.735   5.949   6.526
30903WAT     H292952   0.822   6.065   6.599
30904WAT      O92953   7.549   9.430   2.672
30904WAT     H192954   7.473   9.428   2.737
30904WAT     H292955   7.557   9.521   2.632
30905WAT      O92956   3.212   8.745   5.432
30905WAT     H192957   3.233   8.729   5.336
30905WAT     H292958   3.296   8.760   5.483
30906WAT      O92959   2.337   2.634   6.021
30906WAT     H192960   2.391   2.635   6.105
30906WAT     H292961   2.397   2.646   5.942
30907WAT      O92962   6.291   2.451   6.815
30907WAT     H192963   6.323   2.358   6.795
30907WAT     H292964   6.266   2.457   6.912
30908WAT      O92965   3.483   5.325   0.104
30908WAT     H192966   3.439   5.236   0.107
30908WAT     H292967   3.578   5.316   0.134
30909WAT      O92968   2.855   3.426   8.188
30909WAT     H192969   2.918   3.482   8.242
30909WAT     H292970   2.820   3.351   8.244
30910WAT      O92971   2.232   2.574   6.577
30910WAT     H192972   2.194   2.622   6.655
30910WAT     H292973   2.224   2.475   6.591
30911WAT      O92974   0.550   2.151   4.198
30911WAT     H192975   0.592   2.196   4.120
30911WAT     H292976   0.539   2.216   4.274
30912WAT      O92977   4.259   6.933   9.177
30912WAT     H192978   4.199   6.969   9.248
30912WAT     H292979   4.320   6.864   9.215
30913WAT      O92980   1.617   1.894   2.267
30913WAT     H192981   1.696   1.857   2.316
30913WAT     H292982   1.608   1.848   2.179
30914WAT      O92983   3.480   6.428   8.017
30914WAT     H192984   3.455   6.339   7.979
30914WAT     H292985   3.406   6.461   8.075
30915WAT      O92986   7.993   3.571   5.366
30915WAT     H192987   7.899   3.593   5.393
30915WAT     H292988   8.011   3.474   5.383
30916WAT      O92989   9.828   8.566   6.964
30916WAT     H192990   9.875   8.653   6.977
30916WAT     H292991   9.887   8.491   6.995
30917WAT      O92992   0.111   5.914   2.482
30917WAT     H192993   0.169   5.885   2.406
30917WAT     H292994   0.072   6.004   2.461
30918WAT      O92995   1.206   0.807   4.280
30918WAT     H192996   1.119   0.760   4.265
30918WAT     H292997   1.211   0.836   4.376
30919WAT      O92998   3.482   2.762   7.201
30919WAT     H192999   3.414   2.758   7.128
30919WAT     H293000   3.567   2.802   7.166
30920WAT      O93001   7.946   8.513   7.303
30920WAT     H193002   8.030   8.504   7.249
30920WAT     H293003   7.900   8.599   7.279
30921WAT      O93004   8.712   9.011   7.206
30921WAT     H193005   8.650   9.002   7.285
30921WAT     H293006   8.686   8.945   7.136
30922WAT      O93007   3.094   4.094   2.600
30922WAT     H193008   3.161   4.165   2.581
30922WAT     H293009   3.018   4.133   2.652
30923WAT      O93010   2.834   5.268   4.414
30923WAT     H193011   2.736   5.288   4.406
30923WAT     H293012   2.847   5.176   4.451
30924WAT      O93013   9.397   3.351   8.585
30924WAT     H193014   9.444   3.347   8.497
30924WAT     H293015   9.358   3.261   8.606
30925WAT      O93016   5.832   3.544   7.764
30925WAT     H193017   5.830   3.531   7.665
30925WAT     H293018   5.846   3.455   7.808
30926WAT      O93019   5.037   3.721   7.487
30926WAT     H193020   5.045   3.630   7.447
30926WAT     H293021   5.080   3.788   7.426
30927WAT      O93022   8.369   1.588   1.722
30927WAT     H193023   8.332   1.560   1.633
30927WAT     H293024   8.394   1.685   1.718
30928WAT      O93025   9.621   8.582   2.005
30928WAT     H193026   9.559   8.642   1.954
30928WAT     H293027   9.573   8.497   2.028
30929WAT      O93028   6.804   7.411   1.443
30929WAT     H193029   6.855   7.350   1.504
30929WAT     H293030   6.866   7.447   1.372
30930WAT      O93031   5.181   9.639   0.841
30930WAT     H193032   5.132   9.724   0.822
30930WAT     H293033   5.139   9.563   0.792
30931WAT      O93034   5.560   6.152   2.836
30931WAT     H193035   5.588   6.243   2.867
30931WAT     H293036   5.566   6.087   2.912
30932WAT      O93037   7.935   9.592   5.169
30932WAT     H193038   7.925   9.684   5.206
30932WAT     H293039   7.942   9.526   5.244
30933WAT      O93040   8.927   3.111   1.598
30933WAT     H193041   8.972   3.110   1.509
30933WAT     H293042   8.993   3.139   1.668
30934WAT      O93043   4.432   7.786   5.789
30934WAT     H193044   4.442   7.874   5.836
30934WAT     H293045   4.343   7.746   5.811
30935WAT      O93046   2.084   0.023   8.736
30935WAT     H193047   2.181   0.029   8.757
30935WAT     H293048   2.063   0.077   8.655
30936WAT      O93049   4.576   7.035   6.420
30936WAT     H193050   4.533   7.115   6.378
30936WAT     H293051   4.675   7.050   6.428
30937WAT      O93052   8.943   1.227   0.279
30937WAT     H193053   8.968   1.230   0.182
30937WAT     H293054   8.886   1.147   0.296
30938WAT      O93055   1.195   7.241   7.957
30938WAT     H193056   1.255   7.165   7.983
30938WAT     H293057   1.127   7.255   8.029
30939WAT      O93058   0.318   2.370   9.147
30939WAT     H193059   0.263   2.298   9.189
30939WAT     H293060   0.296   2.458   9.189
30940WAT      O93061   6.601   9.126   9.028
30940WAT     H193062   6.543   9.207   9.017
30940WAT     H293063   6.567   9.072   9.106
30941WAT      O93064   8.257   6.990   1.372
30941WAT     H193065   8.178   7.049   1.354
30941WAT     H293066   8.227   6.894   1.374
30942WAT      O93067   4.834   2.704   7.278
30942WAT     H193068   4.926   2.724   7.310
30942WAT     H293069   4.767   2.735   7.346
30943WAT      O93070   5.930   5.300   0.614
30943WAT     H193071   5.903   5.245   0.693
30943WAT     H293072   5.942   5.241   0.535
30944WAT      O93073   3.989   5.485   2.156
30944WAT     H193074   4.028   5.433   2.231
30944WAT     H293075   4.048   5.563   2.134
30945WAT      O93076   5.543   6.580   1.287
30945WAT     H193077   5.639   6.552   1.293
30945WAT     H293078   5.524   6.650   1.356
30946WAT      O93079   0.237   6.889   0.031
30946WAT     H193080   0.236   6.806   0.088
30946WAT     H293081   0.144   6.924   0.023
30947WAT      O93082   5.038   6.685   3.930
30947WAT     H193083   4.950   6.729   3.909
30947WAT     H293084   5.084   6.737   4.002
30948WAT      O93085   1.286   5.172   2.028
30948WAT     H193086   1.328   5.202   1.943
30948WAT     H293087   1.342   5.101   2.070
30949WAT      O93088   7.502   4.151   9.480
30949WAT     H193089   7.404   4.158   9.501
30949WAT     H293090   7.515   4.086   9.405
30950WAT      O93091   5.654   2.571   5.373
30950WAT     H193092   5.701   2.485   5.394
30950WAT     H293093   5.690   2.643   5.432
30951WAT      O93094   6.874   7.341   3.255
30951WAT     H193095   6.889   7.344   3.354
30951WAT     H293096   6.786   7.382   3.234
30952WAT      O93097   2.228   6.311   2.122
30952WAT     H193098   2.188   6.397   2.090
30952WAT     H293099   2.184   6.235   2.074
30953WAT      O93100   5.418   5.073   2.961
30953WAT     H193101   5.508   5.117   2.963
30953WAT     H293102   5.394   5.051   2.866
30954WAT      O93103   8.661   8.761   6.310
30954WAT     H193104   8.704   8.671   6.303
30954WAT     H293105   8.690   8.805   6.395
30955WAT      O93106   4.456   6.724   0.934
30955WAT     H193107   4.374   6.764   0.973
30955WAT     H293108   4.487   6.648   0.993
30956WAT      O93109   5.178   9.467   4.871
30956WAT     H193110   5.110   9.462   4.798
30956WAT     H293111   5.134   9.445   4.958
30957WAT      O93112   8.814   6.735   2.639
30957WAT     H193113   8.724   6.779   2.637
30957WAT     H293114   8.803   6.636   2.630
30958WAT      O93115   0.338   3.575   4.193
30958WAT     H193116   0.338   3.641   4.118
30958WAT     H293117   0.406   3.505   4.177
30959WAT      O93118   2.770   9.622   9.128
30959WAT     H193119   2.867   9.627   9.151
30959WAT     H293120   2.726   9.552   9.185
30960WAT      O93121   2.157   2.287   3.688
30960WAT     H193122   2.065   2.312   3.657
30960WAT     H293123   2.193   2.360   3.746
30961WAT      O93124   5.662   0.040   1.904
30961WAT     H193125   5.758   0.015   1.918
30961WAT     H293126   5.608  -0.043   1.891
30962WAT      O93127   0.695   8.653   6.908
30962WAT     H193128   0.753   8.730   6.937
30962WAT     H293129   0.751   8.584   6.862
30963WAT      O93130   4.024   6.525   7.104
30963WAT     H193131   4.085   6.601   7.127
30963WAT     H293132   3.930   6.549   7.125
30964WAT      O93133   6.938   0.540   7.352
30964WAT     H193134   6.976   0.457   7.310
30964WAT     H293135   6.872   0.513   7.423
30965WAT      O93136   6.510   5.196   2.595
30965WAT     H193137   6.574   5.258   2.641
30965WAT     H293138   6.439   5.168   2.659
30966WAT      O93139   0.901   7.729   9.854
30966WAT     H193140   0.817   7.749   9.805
30966WAT     H293141   0.880   7.693   9.944
30967WAT      O93142   2.754   9.777   2.498
30967WAT     H193143   2.680   9.845   2.499
30967WAT     H293144   2.833   9.815   2.450
30968WAT      O93145   1.257   0.948   5.848
30968WAT     H193146   1.320   0.926   5.773
30968WAT     H293147   1.248   1.047   5.856
30969WAT      O93148   3.299   5.727   1.015
30969WAT     H193149   3.283   5.664   1.091
30969WAT     H293150   3.377   5.785   1.034
30970WAT      O93151   2.081   5.231   0.637
30970WAT     H193152   2.057   5.169   0.711
30970WAT     H293153   2.180   5.242   0.633
30971WAT      O93154   9.505   9.049   6.475
30971WAT     H193155   9.585   8.990   6.490
30971WAT     H293156   9.447   9.009   6.404
30972WAT      O93157   4.651   0.760   5.890
30972WAT     H193158   4.714   0.698   5.937
30972WAT     H293159   4.616   0.715   5.807
30973WAT      O93160   1.454   3.979   3.136
30973WAT     H193161   1.509   3.963   3.217
30973WAT     H293162   1.366   3.933   3.146
30974WAT      O93163   2.403   3.285   5.212
30974WAT     H193164   2.480   3.349   5.216
30974WAT     H293165   2.409   3.221   5.289
30975WAT      O93166   4.337   8.106   8.948
30975WAT     H193167   4.374   8.061   8.867
30975WAT     H293168   4.326   8.204   8.930
30976WAT      O93169   9.755   5.802   3.409
30976WAT     H193170   9.704   5.725   3.372
30976WAT     H293171   9.692   5.876   3.432
30977WAT      O93172   0.174   6.827   7.714
30977WAT     H193173   0.127   6.882   7.645
30977WAT     H293174   0.270   6.856   7.719
30978WAT      O93175   0.144   9.723   5.889
30978WAT     H193176   0.223   9.780   5.915
30978WAT     H293177   0.136   9.647   5.952
30979WAT      O93178   5.074   6.994   0.175
30979WAT     H193179   5.044   6.899   0.176
30979WAT     H293180   5.062   7.034   0.266
30980WAT      O93181   5.394   1.571   5.149
30980WAT     H193182   5.353   1.638   5.087
30980WAT     H293183   5.326   1.502   5.173
30981WAT      O93184   3.245   6.437   2.591
30981WAT     H193185   3.340   6.418   2.567
30981WAT     H293186   3.240   6.471   2.684
30982WAT      O93187   1.023   6.605   4.881
30982WAT     H193188   1.102   6.583   4.938
30982WAT     H293189   1.053   6.662   4.805
30983WAT      O93190   2.000   5.761   1.365
30983WAT     H193191   1.949   5.763   1.451
30983WAT     H293192   2.098   5.750   1.384
30984WAT      O93193   5.566   4.185   2.015
30984WAT     H193194   5.525   4.129   2.087
30984WAT     H293195   5.645   4.234   2.052
30985WAT      O93196   5.443   4.557   3.940
30985WAT     H193197   5.415   4.651   3.960
30985WAT     H293198   5.388   4.494   3.994
30986WAT      O93199   3.675   9.539   6.999
30986WAT     H193200   3.602   9.523   6.932
30986WAT     H293201   3.684   9.637   7.016
30987WAT      O93202   3.250   3.349   3.760
30987WAT     H193203   3.295   3.280   3.816
30987WAT     H293204   3.182   3.397   3.815
30988WAT      O93205   1.824   6.819   7.100
30988WAT     H193206   1.803   6.723   7.082
30988WAT     H293207   1.923   6.831   7.109
30989WAT      O93208   4.039   1.824   4.480
30989WAT     H193209   4.031   1.743   4.421
30989WAT     H293210   4.115   1.812   4.544
30990WAT      O93211   7.800   9.142   9.049
30990WAT     H193212   7.741   9.209   9.095
30990WAT     H293213   7.778   9.141   8.951
30991WAT      O93214   5.190   5.565   1.694
30991WAT     H193215   5.124   5.566   1.619
30991WAT     H293216   5.244   5.649   1.691
30992WAT      O93217   3.393   5.570   6.089
30992WAT     H193218   3.308   5.599   6.047
30992WAT     H293219   3.391   5.591   6.187
30993WAT      O93220   0.620   7.263   5.465
30993WAT     H193221   0.660   7.340   5.415
30993WAT     H293222   0.621   7.181   5.407
30994WAT      O93223   5.233   1.569   4.792
30994WAT     H193224   5.148   1.583   4.741
30994WAT     H293225   5.234   1.631   4.871
30995WAT      O93226   7.876   5.053   5.547
30995WAT     H193227   7.947   5.025   5.482
30995WAT     H293228   7.876   5.153   5.555
30996WAT      O93229   4.783   1.326   2.709
30996WAT     H193230   4.732   1.245   2.678
30996WAT     H293231   4.794   1.389   2.633
30997WAT      O93232   1.990   2.947   8.318
30997WAT     H193233   2.017   2.988   8.405
30997WAT     H293234   1.998   2.847   8.324
30998WAT      O93235   1.392   2.870   7.443
30998WAT     H193236   1.478   2.914   7.471
30998WAT     H293237   1.411   2.801   7.374
30999WAT      O93238   3.366   1.172   5.849
30999WAT     H193239   3.421   1.234   5.905
30999WAT     H293240   3.383   1.192   5.752
31000WAT      O93241   2.905   8.141   1.769
31000WAT     H193242   2.977   8.173   1.831
31000WAT     H293243   2.817   8.145   1.816
31001WAT      O93244   8.821   8.976   6.379
31001WAT     H193245   8.898   8.991   6.317
31001WAT     H293246   8.736   9.004   6.335
31002WAT      O93247   0.413   3.336   3.789
31002WAT     H193248   0.507   3.355   3.816
31002WAT     H293249   0.368   3.421   3.761
31003WAT      O93250   9.228   3.677   9.325
31003WAT     H193251   9.270   3.702   9.412
31003WAT     H293252   9.296   3.682   9.252
31004WAT      O93253   4.739   5.667   2.533
31004WAT     H193254   4.711   5.751   2.489
31004WAT     H293255   4.803   5.617   2.474
31005WAT      O93256   1.970   4.273   1.077
31005WAT     H193257   1.883   4.229   1.054
31005WAT     H293258   1.985   4.268   1.176
31006WAT      O93259   1.490   2.853   0.733
31006WAT     H193260   1.528   2.844   0.641
31006WAT     H293261   1.534   2.929   0.780
31007WAT      O93262   3.931   3.972   1.724
31007WAT     H193263   4.027   3.979   1.695
31007WAT     H293264   3.892   4.063   1.734
31008WAT      O93265   0.952   5.175   9.003
31008WAT     H193266   1.043   5.154   8.967
31008WAT     H293267   0.913   5.252   8.952
31009WAT      O93268   8.212   6.894   4.835
31009WAT     H193269   8.202   6.975   4.776
31009WAT     H293270   8.124   6.874   4.878
31010WAT      O93271   4.686   6.226   9.289
31010WAT     H193272   4.588   6.244   9.288
31010WAT     H293273   4.720   6.221   9.195
31011WAT      O93274   6.444   5.121   3.985
31011WAT     H193275   6.543   5.139   3.979
31011WAT     H293276   6.426   5.025   3.965
31012WAT      O93277   2.311   7.697   2.695
31012WAT     H193278   2.389   7.759   2.683
31012WAT     H293279   2.337   7.623   2.757
31013WAT      O93280   7.995   3.392   0.480
31013WAT     H193281   8.093   3.414   0.489
31013WAT     H293282   7.941   3.468   0.516
31014WAT      O93283   2.637   6.814   1.266
31014WAT     H193284   2.564   6.882   1.257
31014WAT     H293285   2.609   6.729   1.222
31015WAT      O93286   1.993   9.576   5.339
31015WAT     H193287   1.921   9.541   5.280
31015WAT     H293288   2.037   9.501   5.388
31016WAT      O93289   8.485   1.198   4.666
31016WAT     H193290   8.549   1.122   4.668
31016WAT     H293291   8.470   1.231   4.759
31017WAT      O93292   0.873   7.458   7.170
31017WAT     H193293   0.874   7.496   7.077
31017WAT     H293294   0.967   7.451   7.204
31018WAT      O93295   6.052   7.490   0.878
31018WAT     H193296   5.991   7.565   0.850
31018WAT     H293297   6.060   7.425   0.802
31019WAT      O93298   4.033   9.168   9.460
31019WAT     H193299   4.039   9.089   9.521
31019WAT     H293300   4.124   9.189   9.424
31020WAT      O93301   3.231   2.020   0.873
31020WAT     H193302   3.252   2.090   0.805
31020WAT     H293303   3.149   2.047   0.924
31021WAT      O93304   9.463   3.993   0.726
31021WAT     H193305   9.368   3.985   0.755
31021WAT     H293306   9.499   4.081   0.758
31022WAT      O93307   1.674   7.454   2.283
31022WAT     H193308   1.773   7.438   2.279
31022WAT     H293309   1.634   7.400   2.357
31023WAT      O93310   3.420   4.769   5.258
31023WAT     H193311   3.362   4.806   5.329
31023WAT     H293312   3.410   4.823   5.174
31024WAT      O93313   9.816   0.311   5.687
31024WAT     H193314   9.806   0.407   5.710
31024WAT     H293315   9.845   0.260   5.768
31025WAT      O93316   1.961   0.321   9.830
31025WAT     H193317   2.034   0.274   9.779
31025WAT     H293318   1.986   0.324   9.927
31026WAT      O93319   3.946   1.343   9.278
31026WAT     H193320   3.945   1.250   9.243
31026WAT     H293321   3.892   1.349   9.361
31027WAT      O93322   7.790   8.102   9.457
31027WAT     H193323   7.803   8.005   9.478
31027WAT     H293324   7.855   8.130   9.386
31028WAT      O93325   7.107   2.336   0.542
31028WAT     H193326   7.131   2.241   0.522
31028WAT     H293327   7.183   2.396   0.515
31029WAT      O93328   8.054   3.486   8.066
31029WAT     H193329   8.063   3.452   7.972
31029WAT     H293330   8.130   3.453   8.121
31030WAT      O93331   7.250   2.319   7.115
31030WAT     H193332   7.300   2.295   7.032
31030WAT     H293333   7.271   2.414   7.140
31031WAT      O93334   0.453   5.706   1.855
31031WAT     H193335   0.362   5.746   1.844
31031WAT     H293336   0.446   5.617   1.901
31032WAT      O93337   7.890   5.293   9.516
31032WAT     H193338   7.865   5.389   9.526
31032WAT     H293339   7.968   5.285   9.455
31033WAT      O93340   2.665   6.466   2.374
31033WAT     H193341   2.747   6.429   2.332
31033WAT     H293342   2.585   6.443   2.317
31034WAT      O93343   6.361   4.696   8.413
31034WAT     H193344   6.430   4.692   8.485
31034WAT     H293345   6.305   4.614   8.417
31035WAT      O93346   0.632   3.798   4.479
31035WAT     H193347   0.696   3.870   4.507
31035WAT     H293348   0.548   3.840   4.445
31036WAT      O93349   8.312   0.493   6.667
31036WAT     H193350   8.354   0.496   6.576
31036WAT     H293351   8.363   0.428   6.724
31037WAT      O93352   6.593   0.523   9.082
31037WAT     H193353   6.543   0.585   9.142
31037WAT     H293354   6.548   0.520   8.992
31038WAT      O93355   1.758   9.474   0.312
31038WAT     H193356   1.672   9.421   0.314
31038WAT     H293357   1.737   9.571   0.301
31039WAT      O93358   8.886   3.861   5.182
31039WAT     H193359   8.892   3.845   5.280
31039WAT     H293360   8.971   3.834   5.137
31040WAT      O93361   1.461   0.226   9.190
31040WAT     H193362   1.446   0.273   9.103
31040WAT     H293363   1.526   0.151   9.177
31041WAT      O93364   8.906   2.030   3.452
31041WAT     H193365   8.890   2.124   3.482
31041WAT     H293366   8.831   1.972   3.483
31042WAT      O93367   3.135   6.023   8.532
31042WAT     H193368   3.132   5.973   8.619
31042WAT     H293369   3.192   6.104   8.543
31043WAT      O93370   2.697   1.666   9.645
31043WAT     H193371   2.651   1.610   9.714
31043WAT     H293372   2.657   1.647   9.555
31044WAT      O93373   8.317   2.002   3.389
31044WAT     H193374   8.291   1.907   3.403
31044WAT     H293375   8.236   2.061   3.400
31045WAT      O93376   1.635   7.719   6.127
31045WAT     H193377   1.638   7.775   6.209
31045WAT     H293378   1.540   7.694   6.107
31046WAT      O93379   1.712   7.878   4.035
31046WAT     H193380   1.687   7.781   4.039
31046WAT     H293381   1.810   7.886   4.017
31047WAT      O93382   8.588   8.650   1.306
31047WAT     H193383   8.667   8.628   1.362
31047WAT     H293384   8.617   8.709   1.230
31048WAT      O93385   4.717   6.628   4.006
31048WAT     H193386   4.734   6.727   4.015
31048WAT     H293387   4.627   6.607   4.045
31049WAT      O93388   7.896   1.963   5.051
31049WAT     H193389   7.961   1.967   5.127
31049WAT     H293390   7.878   2.055   5.017
31050WAT      O93391   5.660   8.909   0.053
31050WAT     H193392   5.737   8.961   0.089
31050WAT     H293393   5.675   8.891  -0.045
31051WAT      O93394   7.083   8.628   2.457
31051WAT     H193395   7.154   8.687   2.493
31051WAT     H293396   7.015   8.684   2.408
31052WAT      O93397   7.309   6.309   3.960
31052WAT     H193398   7.311   6.234   4.026
31052WAT     H293399   7.326   6.274   3.868
31053WAT      O93400   8.729   9.221   6.775
31053WAT     H193401   8.639   9.250   6.742
31053WAT     H293402   8.788   9.200   6.697
31054WAT      O93403   4.879   1.252   9.380
31054WAT     H193404   4.842   1.229   9.290
31054WAT     H293405   4.804   1.267   9.444
31055WAT      O93406   2.512   5.968   7.242
31055WAT     H193407   2.548   6.053   7.205
31055WAT     H293408   2.534   5.962   7.339
31056WAT      O93409   4.216   4.964   0.658
31056WAT     H193410   4.135   4.970   0.717
31056WAT     H293411   4.242   4.868   0.647
31057WAT      O93412   6.422   3.658   4.053
31057WAT     H193413   6.326   3.630   4.054
31057WAT     H293414   6.446   3.693   4.143
31058WAT      O93415   0.920   6.588   3.884
31058WAT     H193416   0.895   6.644   3.805
31058WAT     H293417   0.953   6.647   3.958
31059WAT      O93418   5.137   2.702   9.209
31059WAT     H193419   5.066   2.632   9.210
31059WAT     H293420   5.214   2.671   9.154
31060WAT      O93421   3.000   3.468   2.661
31060WAT     H193422   2.998   3.548   2.721
31060WAT     H293423   2.920   3.469   2.601
31061WAT      O93424   0.266   8.471   4.035
31061WAT     H193425   0.261   8.378   3.998
31061WAT     H293426   0.361   8.503   4.031
31062WAT      O93427   3.921   8.279   1.719
31062WAT     H193428   3.875   8.220   1.652
31062WAT     H293429   3.853   8.326   1.775
31063WAT      O93430   1.557   1.829   0.979
31063WAT     H193431   1.612   1.891   0.923
31063WAT     H293432   1.518   1.879   1.057
31064WAT      O93433   6.028   0.948   7.139
31064WAT     H193434   5.947   0.891   7.123
31064WAT     H293435   6.006   1.043   7.117
31065WAT      O93436   3.571   0.040   9.205
31065WAT     H193437   3.661   0.080   9.185
31065WAT     H293438   3.578  -0.016   9.288
31066WAT      O93439   4.712   5.102   8.972
31066WAT     H193440   4.718   5.174   9.041
31066WAT     H293441   4.796   5.100   8.918
31067WAT      O93442   8.617   0.240   2.011
31067WAT     H193443   8.607   0.317   1.948
31067WAT     H293444   8.578   0.264   2.100
31068WAT      O93445   4.182   4.612   5.521
31068WAT     H193446   4.099   4.574   5.562
31068WAT     H293447   4.263   4.575   5.567
31069WAT      O93448   4.650   9.459   8.621
31069WAT     H193449   4.559   9.422   8.601
31069WAT     H293450   4.716   9.420   8.558
31070WAT      O93451   2.609   2.429   0.519
31070WAT     H193452   2.513   2.432   0.489
31070WAT     H293453   2.659   2.362   0.463
31071WAT      O93454   5.289   7.774   9.526
31071WAT     H193455   5.302   7.680   9.557
31071WAT     H293456   5.279   7.775   9.427
31072WAT      O93457   3.728   0.327   6.009
31072WAT     H193458   3.740   0.228   6.013
31072WAT     H293459   3.817   0.371   5.997
31073WAT      O93460   0.522   5.210   1.577
31073WAT     H193461   0.600   5.220   1.516
31073WAT     H293462   0.443   5.256   1.538
31074WAT      O93463   2.738   2.143   6.315
31074WAT     H193464   2.819   2.085   6.317
31074WAT     H293465   2.658   2.089   6.289
31075WAT      O93466   3.425   7.366   0.627
31075WAT     H193467   3.347   7.376   0.565
31075WAT     H293468   3.401   7.403   0.716
31076WAT      O93469   0.333   9.503   3.524
31076WAT     H193470   0.259   9.570   3.512
31076WAT     H293471   0.294   9.411   3.522
31077WAT      O93472   7.765   1.871   1.150
31077WAT     H193473   7.746   1.835   1.241
31077WAT     H293474   7.818   1.956   1.158
31078WAT      O93475   3.053   3.566   8.334
31078WAT     H193476   2.986   3.548   8.406
31078WAT     H293477   3.043   3.661   8.303
31079WAT      O93478   2.070   9.021   5.079
31079WAT     H193479   2.053   9.052   5.173
31079WAT     H293480   2.026   9.084   5.015
31080WAT      O93481   9.155   9.402   3.614
31080WAT     H193482   9.158   9.369   3.519
31080WAT     H293483   9.138   9.325   3.675
31081WAT      O93484   8.051   8.747   7.735
31081WAT     H193485   8.125   8.794   7.686
31081WAT     H293486   8.081   8.655   7.760
31082WAT      O93487   0.597   8.937   8.786
31082WAT     H193488   0.557   8.864   8.731
31082WAT     H293489   0.677   8.902   8.836
31083WAT      O93490   4.753   7.325   6.495
31083WAT     H193491   4.843   7.340   6.536
31083WAT     H293492   4.763   7.314   6.397
31084WAT      O93493   4.188   1.093   9.380
31084WAT     H193494   4.111   1.116   9.322
31084WAT     H293495   4.225   1.004   9.354
31085WAT      O93496   8.798   7.883   3.343
31085WAT     H193497   8.746   7.800   3.322
31085WAT     H293498   8.888   7.878   3.298
31086WAT      O93499   8.157   0.206   2.816
31086WAT     H193500   8.107   0.182   2.899
31086WAT     H293501   8.231   0.141   2.801
31087WAT      O93502   0.541   2.000   3.025
31087WAT     H193503   0.515   1.909   3.058
31087WAT     H293504   0.541   2.001   2.925
31088WAT      O93505   3.942   3.413   7.976
31088WAT     H193506   3.868   3.355   7.940
31088WAT     H293507   3.993   3.453   7.900
31089WAT      O93508   3.845   7.213   4.928
31089WAT     H193509   3.802   7.139   4.980
31089WAT     H293510   3.944   7.201   4.927
31090WAT      O93511   4.612   0.027   4.673
31090WAT     H193512   4.544  -0.029   4.625
31090WAT     H293513   4.619   0.116   4.628
31091WAT      O93514   9.046   8.931   5.375
31091WAT     H193515   9.000   8.892   5.295
31091WAT     H293516   9.128   8.979   5.346
31092WAT      O93517   0.360   0.522   7.131
31092WAT     H193518   0.413   0.557   7.208
31092WAT     H293519   0.272   0.488   7.164
31093WAT      O93520   7.593   9.401   0.418
31093WAT     H193521   7.508   9.447   0.443
31093WAT     H293522   7.668   9.439   0.472
31094WAT      O93523   9.117   7.666   7.694
31094WAT     H193524   9.193   7.697   7.638
31094WAT     H293525   9.139   7.575   7.732
31095WAT      O93526   7.317   3.464   3.685
31095WAT     H193527   7.232   3.418   3.708
31095WAT     H293528   7.354   3.427   3.600
31096WAT      O93529   5.489   5.286   1.828
31096WAT     H193530   5.560   5.245   1.770
31096WAT     H293531   5.400   5.251   1.800
31097WAT      O93532   9.126   8.060   6.606
31097WAT     H193533   9.136   7.961   6.601
31097WAT     H293534   9.058   8.090   6.540
31098WAT      O93535   6.346   2.650   4.966
31098WAT     H193536   6.302   2.705   4.895
31098WAT     H293537   6.380   2.710   5.039
31099WAT      O93538   0.843   4.712   1.121
31099WAT     H193539   0.929   4.761   1.119
31099WAT     H293540   0.783   4.751   1.191
31100WAT      O93541   9.524   7.902   4.640
31100WAT     H193542   9.582   7.905   4.721
31100WAT     H293543   9.580   7.883   4.559
31101WAT      O93544   3.568   4.578   5.710
31101WAT     H193545   3.590   4.566   5.613
31101WAT     H293546   3.649   4.562   5.765
31102WAT      O93547   4.840   8.969   9.483
31102WAT     H193548   4.756   8.933   9.524
31102WAT     H293549   4.821   9.054   9.435
31103WAT      O93550   4.676   5.481   3.791
31103WAT     H193551   4.662   5.549   3.863
31103WAT     H293552   4.596   5.421   3.786
31104WAT      O93553   9.553   0.425   8.339
31104WAT     H193554   9.534   0.520   8.362
31104WAT     H293555   9.470   0.383   8.301
31105WAT      O93556   9.822   4.597   0.096
31105WAT     H193557   9.769   4.675   0.128
31105WAT     H293558   9.815   4.522   0.161
31106WAT      O93559   8.269   1.070   8.462
31106WAT     H193560   8.225   1.108   8.543
31106WAT     H293561   8.366   1.097   8.460
31107WAT      O93562   2.752   4.541   6.277
31107WAT     H193563   2.840   4.573   6.242
31107WAT     H293564   2.762   4.515   6.373
31108WAT      O93565   7.899   6.519   2.086
31108WAT     H193566   7.960   6.592   2.054
31108WAT     H293567   7.927   6.432   2.045
31109WAT      O93568   0.778   0.784   1.564
31109WAT     H193569   0.839   0.706   1.554
31109WAT     H293570   0.735   0.781   1.654
31110WAT      O93571   3.654   6.662   2.041
31110WAT     H193572   3.586   6.592   2.022
31110WAT     H293573   3.608   6.748   2.066
31111WAT      O93574   8.961   1.167   7.641
31111WAT     H193575   8.941   1.251   7.693
31111WAT     H293576   9.051   1.176   7.598
31112WAT      O93577   4.684   2.837   7.444
31112WAT     H193578   4.655   2.819   7.538
31112WAT     H293579   4.604   2.864   7.390
31113WAT      O93580   9.606   6.810   1.925
31113WAT     H193581   9.627   6.903   1.957
31113WAT     H293582   9.638   6.799   1.831
31114WAT      O93583   8.876   2.300   3.528
31114WAT     H193584   8.867   2.361   3.450
31114WAT     H293585   8.814   2.328   3.601
31115WAT      O93586   7.394   0.228   8.634
31115WAT     H193587   7.425   0.244   8.728
31115WAT     H293588   7.370   0.315   8.591
31116WAT      O93589   7.789   4.400   4.106
31116WAT     H193590   7.844   4.412   4.023
31116WAT     H293591   7.834   4.445   4.183
31117WAT      O93592   9.860   2.406   5.883
31117WAT     H193593   9.784   2.342   5.896
31117WAT     H293594   9.887   2.407   5.787
31118WAT      O93595   3.400   1.536   1.891
31118WAT     H193596   3.349   1.619   1.914
31118WAT     H293597   3.434   1.543   1.797
31119WAT      O93598   2.181   0.140   3.119
31119WAT     H193599   2.106   0.092   3.075
31119WAT     H293600   2.192   0.108   3.213
31120WAT      O93601   9.351   7.951   9.321
31120WAT     H193602   9.354   7.880   9.391
31120WAT     H293603   9.257   7.982   9.308
31121WAT      O93604   0.534   8.123   4.314
31121WAT     H193605   0.455   8.106   4.255
31121WAT     H293606   0.544   8.048   4.379
31122WAT      O93607   6.718   9.157   2.034
31122WAT     H193608   6.702   9.222   1.960
31122WAT     H293609   6.636   9.103   2.050
31123WAT      O93610   3.590   4.653   9.864
31123WAT     H193611   3.544   4.718   9.804
31123WAT     H293612   3.523   4.589   9.901
31124WAT      O93613   7.974   7.197   6.295
31124WAT     H193614   7.878   7.189   6.268
31124WAT     H293615   7.994   7.292   6.319
31125WAT      O93616   9.176   4.844   7.476
31125WAT     H193617   9.230   4.921   7.510
31125WAT     H293618   9.117   4.811   7.550
31126WAT      O93619   4.384   6.693   0.650
31126WAT     H193620   4.452   6.717   0.581
31126WAT     H293621   4.429   6.680   0.738
31127WAT      O93622   8.644   1.742   5.245
31127WAT     H193623   8.666   1.713   5.339
31127WAT     H293624   8.695   1.685   5.180
31128WAT      O93625   6.409   8.912   0.915
31128WAT     H193626   6.339   8.843   0.898
31128WAT     H293627   6.498   8.868   0.929
31129WAT      O93628   7.259   1.116   8.803
31129WAT     H193629   7.252   1.196   8.744
31129WAT     H293630   7.240   1.034   8.751
31130WAT      O93631   5.299   7.988   3.248
31130WAT     H193632   5.300   7.955   3.154
31130WAT     H293633   5.321   7.913   3.310
31131WAT      O93634   2.666   8.641   5.708
31131WAT     H193635   2.604   8.686   5.771
31131WAT     H293636   2.648   8.672   5.614
31132WAT      O93637   0.057   7.375   8.132
31132WAT     H193638   0.089   7.464   8.101
31132WAT     H293639   0.133   7.326   8.176
31133WAT      O93640   0.086   3.639   7.241
31133WAT     H193641   0.120   3.689   7.321
31133WAT     H293642  -0.014   3.631   7.247
31134WAT      O93643   2.816   6.243   9.518
31134WAT     H193644   2.737   6.223   9.461
31134WAT     H293645   2.789   6.302   9.594
31135WAT      O93646   9.585   0.640   6.114
31135WAT     H193647   9.590   0.554   6.163
31135WAT     H293648   9.676   0.680   6.105
31136WAT      O93649   4.424   4.544   7.800
31136WAT     H193650   4.413   4.539   7.700
31136WAT     H293651   4.483   4.621   7.823
31137WAT      O93652   0.142   5.134   8.609
31137WAT     H193653   0.069   5.067   8.596
31137WAT     H293654   0.203   5.131   8.529
31138WAT      O93655   7.306   0.534   7.925
31138WAT     H193656   7.311   0.519   7.826
31138WAT     H293657   7.354   0.619   7.948
31139WAT      O93658   0.212   9.516   6.077
31139WAT     H193659   0.273   9.544   6.151
31139WAT     H293660   0.134   9.466   6.116
31140WAT      O93661   3.941   7.488   4.705
31140WAT     H193662   3.993   7.404   4.688
31140WAT     H293663   4.002   7.567   4.703
31141WAT      O93664   0.389   6.311   9.414
31141WAT     H193665   0.320   6.272   9.475
31141WAT     H293666   0.346   6.335   9.327
31142WAT      O93667   8.688   7.879   9.557
31142WAT     H193668   8.778   7.841   9.574
31142WAT     H293669   8.688   7.977   9.579
31143WAT      O93670   8.372   3.886   7.989
31143WAT     H193671   8.335   3.936   7.910
31143WAT     H293672   8.296   3.857   8.048
31144WAT      O93673   2.362   0.459   2.609
31144WAT     H193674   2.407   0.432   2.694
31144WAT     H293675   2.278   0.509   2.630
31145WAT      O93676   7.664   8.316   9.665
31145WAT     H193677   7.705   8.317   9.756
31145WAT     H293678   7.716   8.255   9.606
31146WAT      O93679   8.207   2.855   6.449
31146WAT     H193680   8.268   2.797   6.503
31146WAT     H293681   8.262   2.922   6.398
31147WAT      O93682   6.840   6.911   3.373
31147WAT     H193683   6.758   6.853   3.368
31147WAT     H293684   6.849   6.963   3.288
31148WAT      O93685   9.629   6.985   8.989
31148WAT     H193686   9.678   6.917   8.934
31148WAT     H293687   9.662   6.981   9.084
31149WAT      O93688   2.016   6.126   4.451
31149WAT     H193689   2.054   6.139   4.542
31149WAT     H293690   2.012   6.028   4.430
31150WAT      O93691   5.019   5.918   8.560
31150WAT     H193692   4.994   5.823   8.581
31150WAT     H293693   5.036   5.968   8.644
31151WAT      O93694   7.337   2.985   9.363
31151WAT     H193695   7.411   2.992   9.297
31151WAT     H293696   7.278   3.066   9.357
31152WAT      O93697   7.800   3.548   7.703
31152WAT     H193698   7.785   3.615   7.630
31152WAT     H293699   7.804   3.595   7.791
31153WAT      O93700   6.370   6.793   1.525
31153WAT     H193701   6.300   6.812   1.594
31153WAT     H293702   6.456   6.770   1.570
31154WAT      O93703   2.941   7.903   7.724
31154WAT     H193704   2.946   7.956   7.639
31154WAT     H293705   2.956   7.964   7.801
31155WAT      O93706   3.737   3.001   2.551
31155WAT     H193707   3.668   3.057   2.506
31155WAT     H293708   3.724   3.006   2.650
31156WAT      O93709   3.772   0.584   6.278
31156WAT     H193710   3.835   0.558   6.205
31156WAT     H293711   3.750   0.503   6.333
31157WAT      O93712   2.635   3.995   1.775
31157WAT     H193713   2.656   3.942   1.858
31157WAT     H293714   2.567   4.065   1.796
31158WAT      O93715   7.474   0.285   7.786
31158WAT     H193716   7.451   0.218   7.856
31158WAT     H293717   7.548   0.343   7.819
31159WAT      O93718   2.347   3.853   1.782
31159WAT     H193719   2.251   3.827   1.766
31159WAT     H293720   2.360   3.948   1.753
31160WAT      O93721   5.582   4.805   7.326
31160WAT     H193722   5.506   4.851   7.281
31160WAT     H293723   5.569   4.706   7.320
31161WAT      O93724   4.496   0.272   1.047
31161WAT     H193725   4.595   0.282   1.044
31161WAT     H293726   4.469   0.190   0.996
31162WAT      O93727   0.963   5.325   7.849
31162WAT     H193728   1.028   5.390   7.890
31162WAT     H293729   0.874   5.336   7.892
31163WAT      O93730   1.969   8.495   5.430
31163WAT     H193731   1.900   8.560   5.398
31163WAT     H293732   1.993   8.432   5.356
31164WAT      O93733   7.635   9.303   9.166
31164WAT     H193734   7.564   9.266   9.226
31164WAT     H293735   7.597   9.374   9.108
31165WAT      O93736   5.046   3.497   6.637
31165WAT     H193737   4.958   3.517   6.680
31165WAT     H293738   5.074   3.575   6.580
31166WAT      O93739   6.706   1.970   1.183
31166WAT     H193740   6.615   1.974   1.144
31166WAT     H293741   6.770   1.930   1.116
31167WAT      O93742   9.227   4.811   4.415
31167WAT     H193743   9.178   4.898   4.406
31167WAT     H293744   9.169   4.737   4.382
31168WAT      O93745   6.356   7.361   4.076
31168WAT     H193746   6.370   7.345   4.174
31168WAT     H293747   6.436   7.409   4.038
31169WAT      O93748   2.910   5.728   4.381
31169WAT     H193749   2.893   5.670   4.462
31169WAT     H293750   2.966   5.806   4.407
31170WAT      O93751   4.841   1.284   6.627
31170WAT     H193752   4.864   1.350   6.556
31170WAT     H293753   4.776   1.326   6.691
31171WAT      O93754   9.862   7.759   7.732
31171WAT     H193755   9.786   7.703   7.764
31171WAT     H293756   9.945   7.734   7.782
31172WAT      O93757   8.385   9.380   7.734
31172WAT     H193758   8.390   9.282   7.756
31172WAT     H293759   8.312   9.395   7.668
31173WAT      O93760   1.380   8.324   5.121
31173WAT     H193761   1.436   8.386   5.065
31173WAT     H293762   1.298   8.372   5.152
31174WAT      O93763   6.698   5.550   1.017
31174WAT     H193764   6.673   5.647   1.009
31174WAT     H293765   6.741   5.519   0.932
31175WAT      O93766   0.804   9.705   4.461
31175WAT     H193767   0.749   9.715   4.378
31175WAT     H293768   0.748   9.663   4.533
31176WAT      O93769   2.297   4.190   9.653
31176WAT     H193770   2.390   4.173   9.620
31176WAT     H293771   2.300   4.219   9.748
31177WAT      O93772   2.185   1.676   0.163
31177WAT     H193773   2.260   1.630   0.210
31177WAT     H293774   2.127   1.608   0.118
31178WAT      O93775   3.590   0.881   2.885
31178WAT     H193776   3.574   0.858   2.981
31178WAT     H293777   3.570   0.802   2.827
31179WAT      O93778   9.247   8.551   4.017
31179WAT     H193779   9.183   8.516   3.949
31179WAT     H293780   9.221   8.643   4.043
31180WAT      O93781   6.368   6.951   2.586
31180WAT     H193782   6.415   6.903   2.660
31180WAT     H293783   6.336   7.040   2.618
31181WAT      O93784   1.524   4.029   6.614
31181WAT     H193785   1.535   4.053   6.710
31181WAT     H293786   1.427   4.024   6.592
31182WAT      O93787   5.333   2.708   7.732
31182WAT     H193788   5.281   2.623   7.724
31182WAT     H293789   5.290   2.778   7.675
31183WAT      O93790   5.824   4.287   6.874
31183WAT     H193791   5.918   4.261   6.851
31183WAT     H293792   5.803   4.255   6.967
31184WAT      O93793   6.280   4.134   5.043
31184WAT     H193794   6.306   4.046   5.003
31184WAT     H293795   6.256   4.198   4.969
31185WAT      O93796   3.563   8.268   9.743
31185WAT     H193797   3.506   8.244   9.664
31185WAT     H293798   3.578   8.187   9.799
31186WAT      O93799   8.503   2.978   4.026
31186WAT     H193800   8.591   2.960   4.070
31186WAT     H293801   8.488   2.912   3.953
31187WAT      O93802   4.409   1.059   3.913
31187WAT     H193803   4.422   1.155   3.892
31187WAT     H293804   4.434   1.003   3.834
31188WAT      O93805   5.238   8.717   8.664
31188WAT     H193806   5.216   8.623   8.691
31188WAT     H293807   5.279   8.717   8.573
31189WAT      O93808   5.690   8.375   1.535
31189WAT     H193809   5.763   8.308   1.522
31189WAT     H293810   5.623   8.340   1.600
31190WAT      O93811   5.441   4.050   0.573
31190WAT     H193812   5.377   4.094   0.636
31190WAT     H293813   5.400   4.045   0.482
31191WAT      O93814   0.889   2.648   0.683
31191WAT     H193815   0.841   2.621   0.599
31191WAT     H293816   0.948   2.726   0.664
31192WAT      O93817   3.288   9.174   0.028
31192WAT     H193818   3.302   9.094  -0.031
31192WAT     H293819   3.234   9.146   0.108
31193WAT      O93820   8.023   8.940   3.110
31193WAT     H193821   8.007   8.916   3.206
31193WAT     H293822   8.085   9.018   3.105
31194WAT      O93823   4.798   4.071   5.240
31194WAT     H193824   4.810   3.971   5.238
31194WAT     H293825   4.885   4.115   5.258
31195WAT      O93826   9.350   9.054   8.964
31195WAT     H193827   9.377   9.094   8.876
31195WAT     H293828   9.428   9.004   9.002
31196WAT      O93829   5.998   1.352   1.151
31196WAT     H193830   6.068   1.416   1.182
31196WAT     H293831   5.958   1.306   1.230
31197WAT      O93832   6.159   2.195   2.144
31197WAT     H193833   6.164   2.247   2.230
31197WAT     H293834   6.138   2.100   2.164
31198WAT      O93835   3.998   0.152   4.728
31198WAT     H193836   4.060   0.224   4.757
31198WAT     H293837   3.906   0.170   4.765
31199WAT      O93838   7.652   3.118   0.039
31199WAT     H193839   7.646   3.217   0.032
31199WAT     H293840   7.740   3.093   0.081
31200WAT      O93841   1.698   9.373   1.370
31200WAT     H193842   1.600   9.393   1.376
31200WAT     H293843   1.720   9.299   1.433
31201WAT      O93844   8.013   8.009   7.671
31201WAT     H193845   8.078   8.055   7.731
31201WAT     H293846   8.015   8.052   7.581
31202WAT      O93847   8.262   0.388   8.844
31202WAT     H193848   8.232   0.447   8.769
31202WAT     H293849   8.183   0.351   8.892
31203WAT      O93850   1.970   8.605   5.822
31203WAT     H193851   1.906   8.646   5.757
31203WAT     H293852   2.001   8.517   5.787
31204WAT      O93853   2.857   1.606   1.755
31204WAT     H193854   2.856   1.506   1.747
31204WAT     H293855   2.942   1.635   1.801
31205WAT      O93856   3.489   0.195   3.869
31205WAT     H193857   3.526   0.256   3.799
31205WAT     H293858   3.434   0.248   3.933
31206WAT      O93859   9.729   9.653   4.780
31206WAT     H193860   9.750   9.579   4.716
31206WAT     H293861   9.739   9.741   4.734
31207WAT      O93862   8.673   6.034   2.959
31207WAT     H193863   8.588   6.064   2.915
31207WAT     H293864   8.707   5.952   2.914
31208WAT      O93865   3.629   6.238   3.703
31208WAT     H193866   3.723   6.218   3.675
31208WAT     H293867   3.604   6.330   3.673
31209WAT      O93868   9.327   5.198   3.393
31209WAT     H193869   9.294   5.128   3.456
31209WAT     H293870   9.279   5.284   3.410
31210WAT      O93871   6.603   6.828   9.283
31210WAT     H193872   6.586   6.760   9.212
31210WAT     H293873   6.516   6.867   9.313
31211WAT      O93874   9.707   0.582   0.406
31211WAT     H193875   9.670   0.660   0.355
31211WAT     H293876   9.634   0.536   0.455
31212WAT      O93877   9.111   2.443   3.750
31212WAT     H193878   9.024   2.403   3.777
31212WAT     H293879   9.174   2.371   3.721
31213WAT      O93880   1.827   4.447   9.393
31213WAT     H193881   1.784   4.390   9.324
31213WAT     H293882   1.797   4.418   9.484
31214WAT      O93883   2.043   7.316   2.576
31214WAT     H193884   2.126   7.263   2.561
31214WAT     H293885   1.979   7.299   2.501
31215WAT      O93886   6.321   4.588   0.354
31215WAT     H193887   6.375   4.653   0.408
31215WAT     H293888   6.383   4.531   0.299
31216WAT      O93889   9.525   1.428   7.239
31216WAT     H193890   9.579   1.453   7.159
31216WAT     H293891   9.432   1.463   7.228
31217WAT      O93892   0.295   3.618   7.058
31217WAT     H193893   0.370   3.595   7.119
31217WAT     H293894   0.208   3.610   7.107
31218WAT      O93895   8.517   6.372   4.880
31218WAT     H193896   8.552   6.466   4.887
31218WAT     H293897   8.418   6.375   4.866
31219WAT      O93898   6.620   4.733   3.204
31219WAT     H193899   6.595   4.648   3.250
31219WAT     H293900   6.553   4.804   3.224
31220WAT      O93901   6.185   0.568   5.835
31220WAT     H193902   6.245   0.644   5.808
31220WAT     H293903   6.136   0.592   5.919
31221WAT      O93904   0.595   4.013   4.189
31221WAT     H193905   0.548   4.051   4.109
31221WAT     H293906   0.527   3.975   4.252
31222WAT      O93907   7.568   5.720   6.244
31222WAT     H193908   7.614   5.768   6.319
31222WAT     H293909   7.471   5.746   6.243
31223WAT      O93910   3.565   5.476   4.436
31223WAT     H193911   3.475   5.508   4.467
31223WAT     H293912   3.565   5.466   4.337
31224WAT      O93913   9.084   4.427   7.056
31224WAT     H193914   9.136   4.494   7.003
31224WAT     H293915   9.134   4.404   7.139
31225WAT      O93916   5.280   7.930   1.340
31225WAT     H193917   5.240   7.842   1.363
31225WAT     H293918   5.238   8.002   1.396
31226WAT      O93919   7.480   0.624   9.073
31226WAT     H193920   7.475   0.610   8.974
31226WAT     H293921   7.501   0.537   9.118
31227WAT      O93922   2.185   0.221   6.467
31227WAT     H193923   2.244   0.141   6.452
31227WAT     H293924   2.103   0.194   6.516
31228WAT      O93925   9.352   1.827   2.637
31228WAT     H193926   9.333   1.852   2.732
31228WAT     H293927   9.268   1.797   2.593
31229WAT      O93928   4.990   4.132   6.949
31229WAT     H193929   4.959   4.049   6.994
31229WAT     H293930   5.028   4.110   6.859
31230WAT      O93931   5.637   7.637   2.272
31230WAT     H193932   5.680   7.554   2.306
31230WAT     H293933   5.586   7.617   2.189
31231WAT      O93934   5.359   3.051   7.433
31231WAT     H193935   5.272   3.067   7.479
31231WAT     H293936   5.367   2.954   7.409
31232WAT      O93937   1.487   5.377   6.802
31232WAT     H193938   1.562   5.361   6.738
31232WAT     H293939   1.400   5.367   6.754
31233WAT      O93940   1.599   1.788   2.028
31233WAT     H193941   1.669   1.728   1.989
31233WAT     H293942   1.555   1.840   1.955
31234WAT      O93943   0.219   0.821   3.055
31234WAT     H193944   0.194   0.726   3.071
31234WAT     H293945   0.158   0.882   3.105
31235WAT      O93946   0.544   2.046   3.556
31235WAT     H193947   0.494   2.026   3.640
31235WAT     H293948   0.637   2.075   3.578
31236WAT      O93949   4.529   3.656   1.778
31236WAT     H193950   4.628   3.669   1.780
31236WAT     H293951   4.487   3.704   1.855
31237WAT      O93952   8.335   7.760   6.106
31237WAT     H193953   8.305   7.680   6.159
31237WAT     H293954   8.285   7.841   6.137
31238WAT      O93955   8.126   1.390   3.399
31238WAT     H193956   8.215   1.350   3.376
31238WAT     H293957   8.055   1.319   3.393
31239WAT      O93958   5.881   8.685   8.904
31239WAT     H193959   5.786   8.717   8.913
31239WAT     H293960   5.893   8.640   8.816
31240WAT      O93961   6.523   8.908   3.367
31240WAT     H193962   6.587   8.898   3.444
31240WAT     H293963   6.469   8.991   3.380
31241WAT      O93964   2.994   0.246   4.971
31241WAT     H193965   2.926   0.210   5.035
31241WAT     H293966   3.055   0.308   5.019
31242WAT      O93967   3.882   8.173   4.317
31242WAT     H193968   3.939   8.107   4.268
31242WAT     H293969   3.811   8.208   4.256
31243WAT      O93970   7.836   3.352   5.121
31243WAT     H193971   7.806   3.447   5.119
31243WAT     H293972   7.761   3.293   5.091
31244WAT      O93973   6.409   7.290   8.710
31244WAT     H193974   6.426   7.264   8.614
31244WAT     H293975   6.435   7.385   8.724
31245WAT      O93976   1.234   9.200   4.377
31245WAT     H193977   1.139   9.176   4.361
31245WAT     H293978   1.247   9.298   4.359
31246WAT      O93979   7.480   0.612   8.792
31246WAT     H193980   7.518   0.573   8.708
31246WAT     H293981   7.519   0.703   8.806
31247WAT      O93982   8.755   0.614   1.772
31247WAT     H193983   8.854   0.613   1.786
31247WAT     H293984   8.735   0.640   1.678
31248WAT      O93985   5.256   1.072   3.601
31248WAT     H193986   5.301   1.028   3.523
31248WAT     H293987   5.252   1.008   3.678
31249WAT      O93988   6.290   4.282   1.194
31249WAT     H193989   6.339   4.320   1.116
31249WAT     H293990   6.210   4.338   1.215
31250WAT      O93991   3.189   1.665   5.301
31250WAT     H193992   3.109   1.721   5.281
31250WAT     H293993   3.230   1.695   5.387
31251WAT      O93994   8.458   0.156   1.562
31251WAT     H193995   8.461   0.074   1.618
31251WAT     H293996   8.442   0.131   1.467
31252WAT      O93997   9.799   3.002   0.877
31252WAT     H193998   9.817   2.947   0.958
31252WAT     H293999   9.730   3.071   0.897
31253WAT      O94000   5.712   5.986   3.704
31253WAT     H194001   5.708   5.985   3.804
31253WAT     H294002   5.673   6.071   3.669
31254WAT      O94003   7.076   3.744   0.967
31254WAT     H194004   7.052   3.655   1.006
31254WAT     H294005   7.079   3.812   1.041
31255WAT      O94006   8.911   1.424   7.688
31255WAT     H194007   8.981   1.496   7.682
31255WAT     H294008   8.846   1.447   7.760
31256WAT      O94009   3.037   2.414   1.251
31256WAT     H194010   3.081   2.367   1.327
31256WAT     H294011   3.067   2.509   1.248
31257WAT      O94012   4.088   8.872   7.189
31257WAT     H194013   4.100   8.922   7.103
31257WAT     H294014   4.040   8.786   7.170
31258WAT      O94015   2.741   4.106   6.805
31258WAT     H194016   2.787   4.105   6.894
31258WAT     H294017   2.652   4.060   6.813
31259WAT      O94018   4.582   3.191   9.360
31259WAT     H194019   4.670   3.187   9.312
31259WAT     H294020   4.597   3.179   9.458
31260WAT      O94021   4.043   2.499   6.216
31260WAT     H194022   3.946   2.481   6.197
31260WAT     H294023   4.061   2.482   6.313
31261WAT      O94024   1.555   9.259   2.301
31261WAT     H194025   1.619   9.258   2.224
31261WAT     H294026   1.564   9.346   2.350
31262WAT      O94027   4.210   7.698   8.675
31262WAT     H194028   4.269   7.736   8.747
31262WAT     H294029   4.119   7.679   8.714
31263WAT      O94030   1.174   5.783   5.922
31263WAT     H194031   1.227   5.726   5.860
31263WAT     H294032   1.220   5.870   5.937
31264WAT      O94033   0.438   8.035   8.159
31264WAT     H194034   0.478   7.946   8.138
31264WAT     H294035   0.400   8.033   8.252
31265WAT      O94036   6.381   7.937   9.184
31265WAT     H194037   6.459   7.979   9.230
31265WAT     H294038   6.365   7.984   9.097
31266WAT      O94039   5.695   2.646   5.099
31266WAT     H194040   5.664   2.610   5.187
31266WAT     H294041   5.695   2.573   5.031
31267WAT      O94042   0.652   6.392   6.364
31267WAT     H194043   0.563   6.368   6.325
31267WAT     H294044   0.641   6.468   6.428
31268WAT      O94045   7.708   5.783   6.751
31268WAT     H194046   7.680   5.777   6.846
31268WAT     H294047   7.669   5.706   6.700
31269WAT      O94048   7.999   6.242   2.851
31269WAT     H194049   7.942   6.323   2.838
31269WAT     H294050   8.073   6.242   2.784
31270WAT      O94051   9.585   6.159   6.345
31270WAT     H194052   9.495   6.149   6.387
31270WAT     H294053   9.599   6.088   6.276
31271WAT      O94054   8.393   7.817   6.936
31271WAT     H194055   8.450   7.840   6.857
31271WAT     H294056   8.451   7.787   7.011
31272WAT      O94057   6.120   2.973   4.447
31272WAT     H194058   6.036   3.023   4.468
31272WAT     H294059   6.195   3.012   4.499
31273WAT      O94060   8.130   5.642   1.377
31273WAT     H194061   8.035   5.648   1.347
31273WAT     H294062   8.187   5.699   1.318
31274WAT      O94063   6.321   5.888   7.659
31274WAT     H194064   6.405   5.844   7.630
31274WAT     H294065   6.330   5.920   7.753
31275WAT      O94066   2.132   6.429   1.186
31275WAT     H194067   2.207   6.452   1.248
31275WAT     H294068   2.048   6.416   1.238
31276WAT      O94069   3.205   2.204   3.257
31276WAT     H194070   3.303   2.227   3.256
31276WAT     H294071   3.172   2.202   3.351
31277WAT      O94072   9.794   1.680   0.144
31277WAT     H194073   9.735   1.710   0.219
31277WAT     H294074   9.814   1.583   0.153
31278WAT      O94075   7.833   7.855   4.609
31278WAT     H194076   7.832   7.897   4.700
31278WAT     H294077   7.764   7.783   4.605
31279WAT      O94078   9.195   8.659   8.049
31279WAT     H194079   9.115   8.707   8.085
31279WAT     H294080   9.179   8.560   8.052
31280WAT      O94081   1.312   2.495   7.640
31280WAT     H194082   1.308   2.595   7.650
31280WAT     H294083   1.373   2.472   7.564
31281WAT      O94084   8.845   5.531   1.507
31281WAT     H194085   8.776   5.599   1.527
31281WAT     H294086   8.868   5.481   1.590
31282WAT      O94087   2.068   0.343   0.878
31282WAT     H194088   2.118   0.411   0.824
31282WAT     H294089   2.063   0.257   0.828
31283WAT      O94090   8.186   6.306   5.354
31283WAT     H194091   8.238   6.225   5.326
31283WAT     H294092   8.120   6.280   5.424
31284WAT      O94093   5.070   2.846   1.356
31284WAT     H194094   5.150   2.786   1.353
31284WAT     H294095   5.015   2.825   1.437
31285WAT      O94096   9.171   3.812   9.794
31285WAT     H194097   9.193   3.908   9.815
31285WAT     H294098   9.161   3.761   9.879
31286WAT      O94099   7.985   6.161   0.611
31286WAT     H194100   8.067   6.128   0.658
31286WAT     H294101   8.000   6.163   0.513
31287WAT      O94102   3.003   8.856   9.397
31287WAT     H194103   3.042   8.908   9.321
31287WAT     H294104   2.906   8.838   9.378
31288WAT      O94105   5.044   1.360   1.513
31288WAT     H194106   5.077   1.336   1.604
31288WAT     H294107   4.998   1.282   1.472
31289WAT      O94108   3.824   9.412   5.097
31289WAT     H194109   3.904   9.385   5.150
31289WAT     H294110   3.791   9.333   5.044
31290WAT      O94111   8.163   6.809   9.516
31290WAT     H194112   8.128   6.893   9.558
31290WAT     H294113   8.232   6.768   9.575
31291WAT      O94114   0.267   4.765   4.104
31291WAT     H194115   0.303   4.851   4.139
31291WAT     H294116   0.212   4.782   4.023
31292WAT      O94117   6.368   0.769   0.175
31292WAT     H194118   6.408   0.826   0.247
31292WAT     H294119   6.268   0.776   0.179
31293WAT      O94120   0.750   6.596   4.185
31293WAT     H194121   0.719   6.571   4.094
31293WAT     H294122   0.821   6.665   4.179
31294WAT      O94123   9.668   3.213   4.915
31294WAT     H194124   9.579   3.169   4.927
31294WAT     H294125   9.698   3.252   5.002
31295WAT      O94126   3.487   6.958   7.288
31295WAT     H194127   3.396   6.983   7.321
31295WAT     H294128   3.541   7.041   7.270
31296WAT      O94129   7.007   8.558   0.016
31296WAT     H194130   6.932   8.624   0.012
31296WAT     H294131   6.994   8.498   0.094
31297WAT      O94132   0.045   6.989   2.082
31297WAT     H194133  -0.042   7.014   2.038
31297WAT     H294134   0.036   6.899   2.125
31298WAT      O94135   8.256   1.593   0.202
31298WAT     H194136   8.280   1.504   0.239
31298WAT     H294137   8.204   1.581   0.117
31299WAT      O94138   2.167   1.679   7.991
31299WAT     H194139   2.073   1.713   7.995
31299WAT     H294140   2.229   1.755   7.973
31300WAT      O94141   7.187   0.663   2.810
31300WAT     H194142   7.281   0.689   2.831
31300WAT     H294143   7.132   0.745   2.795
31301WAT      O94144   1.259   5.006   5.238
31301WAT     H194145   1.176   4.960   5.208
31301WAT     H294146   1.248   5.039   5.331
31302WAT      O94147   3.532   5.198   5.161
31302WAT     H194148   3.592   5.267   5.121
31302WAT     H294149   3.571   5.166   5.248
31303WAT      O94150   2.221   2.315   3.397
31303WAT     H194151   2.276   2.235   3.375
31303WAT     H294152   2.195   2.312   3.494
31304WAT      O94153   7.339   8.362   3.175
31304WAT     H194154   7.301   8.429   3.238
31304WAT     H294155   7.434   8.385   3.155
31305WAT      O94156   2.419   8.302   8.060
31305WAT     H194157   2.353   8.319   8.133
31305WAT     H294158   2.497   8.251   8.097
31306WAT      O94159   7.541   9.696   9.538
31306WAT     H194160   7.578   9.604   9.525
31306WAT     H294161   7.614   9.758   9.567
31307WAT      O94162   5.368   9.440   5.679
31307WAT     H194163   5.274   9.438   5.646
31307WAT     H294164   5.429   9.469   5.605
31308WAT      O94165   3.118   5.824   6.994
31308WAT     H194166   3.023   5.853   6.992
31308WAT     H294167   3.155   5.823   6.901
31309WAT      O94168   8.749   3.484   3.265
31309WAT     H194169   8.691   3.432   3.328
31309WAT     H294170   8.798   3.421   3.205
31310WAT      O94171   0.012   3.095   5.821
31310WAT     H194172   0.105   3.066   5.797
31310WAT     H294173  -0.045   3.015   5.836
31311WAT      O94174   4.796   9.030   6.348
31311WAT     H194175   4.765   8.936   6.354
31311WAT     H294176   4.738   9.081   6.284
31312WAT      O94177   4.071   4.849   0.305
31312WAT     H194178   4.095   4.920   0.239
31312WAT     H294179   3.972   4.833   0.302
31313WAT      O94180   6.764   6.528   4.613
31313WAT     H194181   6.741   6.434   4.589
31313WAT     H294182   6.691   6.589   4.584
31314WAT      O94183   2.092   2.389   5.615
31314WAT     H194184   2.152   2.469   5.622
31314WAT     H294185   2.090   2.357   5.521
31315WAT      O94186   0.431   0.136   5.359
31315WAT     H194187   0.507   0.072   5.351
31315WAT     H294188   0.390   0.151   5.269
31316WAT      O94189   0.727   9.290   2.229
31316WAT     H194190   0.806   9.285   2.168
31316WAT     H294191   0.683   9.200   2.234
31317WAT      O94192   4.722   6.898   4.116
31317WAT     H194193   4.674   6.905   4.204
31317WAT     H294194   4.778   6.980   4.103
31318WAT      O94195   2.036   9.389   9.543
31318WAT     H194196   2.017   9.394   9.641
31318WAT     H294197   2.007   9.475   9.500
31319WAT      O94198   4.559   6.483   1.087
31319WAT     H194199   4.594   6.467   0.995
31319WAT     H294200   4.509   6.402   1.119
31320WAT      O94201   5.093   2.096   2.095
31320WAT     H194202   5.028   2.131   2.028
31320WAT     H294203   5.046   2.083   2.183
31321WAT      O94204   4.147   2.410   6.690
31321WAT     H194205   4.094   2.341   6.640
31321WAT     H294206   4.224   2.367   6.736
31322WAT      O94207   2.785   9.132   0.654
31322WAT     H194208   2.702   9.161   0.608
31322WAT     H294209   2.843   9.212   0.672
31323WAT      O94210   6.061   4.365   7.281
31323WAT     H194211   6.043   4.267   7.284
31323WAT     H294212   6.035   4.401   7.192
31324WAT      O94213   3.174   1.767   4.750
31324WAT     H194214   3.268   1.744   4.775
31324WAT     H294215   3.135   1.692   4.697
31325WAT      O94216   8.587   4.053   4.013
31325WAT     H194217   8.600   3.956   3.991
31325WAT     H294218   8.658   4.083   4.076
31326WAT      O94219   4.502   7.153   4.189
31326WAT     H194220   4.578   7.187   4.134
31326WAT     H294221   4.525   7.063   4.226
31327WAT      O94222   9.176   2.100   0.431
31327WAT     H194223   9.142   2.056   0.514
31327WAT     H294224   9.099   2.123   0.372
31328WAT      O94225   2.682   4.307   4.615
31328WAT     H194226   2.737   4.356   4.547
31328WAT     H294227   2.605   4.262   4.569
31329WAT      O94228   4.787   6.091   2.780
31329WAT     H194229   4.834   6.008   2.749
31329WAT     H294230   4.798   6.101   2.879
31330WAT      O94231   9.704   1.575   9.478
31330WAT     H194232   9.771   1.533   9.416
31330WAT     H294233   9.753   1.621   9.553
31331WAT      O94234   5.148   2.493   7.425
31331WAT     H194235   5.152   2.447   7.336
31331WAT     H294236   5.059   2.478   7.467
31332WAT      O94237   4.881   7.288   2.899
31332WAT     H194238   4.846   7.302   2.991
31332WAT     H294239   4.876   7.373   2.848
31333WAT      O94240   0.643   0.017   5.288
31333WAT     H194241   0.630  -0.066   5.233
31333WAT     H294242   0.735   0.015   5.329
31334WAT      O94243   2.547   6.278   1.621
31334WAT     H194244   2.532   6.321   1.532
31334WAT     H294245   2.600   6.194   1.609
31335WAT      O94246   2.397   9.044   4.226
31335WAT     H194247   2.429   8.966   4.278
31335WAT     H294248   2.429   9.129   4.269
31336WAT      O94249   0.737   0.958   1.337
31336WAT     H194250   0.644   0.928   1.316
31336WAT     H294251   0.780   0.894   1.401
31337WAT      O94252   7.038   3.411   9.884
31337WAT     H194253   7.081   3.427   9.973
31337WAT     H294254   7.033   3.313   9.866
31338WAT      O94255   9.844   2.069   5.900
31338WAT     H194256   9.872   1.974   5.893
31338WAT     H294257   9.883   2.122   5.825
31339WAT      O94258   6.470   7.424   2.114
31339WAT     H194259   6.530   7.385   2.044
31339WAT     H294260   6.510   7.409   2.205
31340WAT      O94261   4.926   1.451   6.401
31340WAT     H194262   5.022   1.474   6.383
31340WAT     H294263   4.872   1.467   6.318
31341WAT      O94264   2.410   6.323   0.667
31341WAT     H194265   2.451   6.236   0.695
31341WAT     H294266   2.480   6.393   0.662
31342WAT      O94267   5.303   0.638   1.706
31342WAT     H194268   5.214   0.599   1.682
31342WAT     H294269   5.366   0.566   1.734
31343WAT      O94270   7.211   2.207   1.754
31343WAT     H194271   7.296   2.182   1.707
31343WAT     H294272   7.134   2.157   1.714
31344WAT      O94273   3.041   8.847   6.399
31344WAT     H194274   2.982   8.861   6.321
31344WAT     H294275   3.019   8.761   6.444
31345WAT      O94276   0.835   9.210   0.114
31345WAT     H194277   0.828   9.190   0.016
31345WAT     H294278   0.849   9.308   0.127
31346WAT      O94279   2.776   3.109   6.736
31346WAT     H194280   2.794   3.071   6.645
31346WAT     H294281   2.767   3.208   6.729
31347WAT      O94282   1.935   8.407   0.315
31347WAT     H194283   1.836   8.413   0.328
31347WAT     H294284   1.973   8.499   0.304
31348WAT      O94285   5.067   0.463   1.723
31348WAT     H194286   5.111   0.380   1.755
31348WAT     H294287   4.990   0.486   1.783
31349WAT      O94288   2.883   4.564   2.993
31349WAT     H194289   2.914   4.512   2.914
31349WAT     H294290   2.825   4.640   2.963
31350WAT      O94291   1.296   9.427   3.891
31350WAT     H194292   1.214   9.483   3.882
31350WAT     H294293   1.376   9.482   3.866
31351WAT      O94294   2.674   1.752   4.647
31351WAT     H194295   2.595   1.744   4.586
31351WAT     H294296   2.740   1.815   4.606
31352WAT      O94297   4.814   8.130   7.752
31352WAT     H194298   4.830   8.228   7.758
31352WAT     H294299   4.716   8.113   7.741
31353WAT      O94300   9.687   7.396   3.767
31353WAT     H194301   9.636   7.311   3.781
31353WAT     H294302   9.729   7.395   3.676
31354WAT      O94303   9.192   5.453   9.852
31354WAT     H194304   9.150   5.363   9.853
31354WAT     H294305   9.194   5.489   9.759
31355WAT      O94306   5.613   2.870   6.031
31355WAT     H194307   5.685   2.844   6.096
31355WAT     H294308   5.582   2.789   5.982
31356WAT      O94309   1.170   7.544   1.204
31356WAT     H194310   1.091   7.526   1.144
31356WAT     H294311   1.213   7.630   1.176
31357WAT      O94312   8.800   3.852   0.702
31357WAT     H194313   8.862   3.778   0.731
31357WAT     H294314   8.827   3.937   0.746
31358WAT      O94315   4.943   2.247   5.064
31358WAT     H194316   5.021   2.210   5.115
31358WAT     H294317   4.975   2.315   4.998
31359WAT      O94318   7.984   8.145   7.415
31359WAT     H194319   7.999   8.236   7.453
31359WAT     H294320   7.952   8.154   7.320
31360WAT      O94321   8.175   8.772   5.405
31360WAT     H194322   8.174   8.870   5.424
31360WAT     H294323   8.188   8.722   5.491
31361WAT      O94324   1.057   0.052   7.662
31361WAT     H194325   1.134   0.024   7.719
31361WAT     H294326   0.971   0.018   7.702
31362WAT      O94327   3.800   0.851   4.174
31362WAT     H194328   3.895   0.854   4.143
31362WAT     H294329   3.739   0.870   4.098
31363WAT      O94330   1.862   9.120   8.296
31363WAT     H194331   1.819   9.131   8.206
31363WAT     H294332   1.961   9.136   8.287
31364WAT      O94333   5.203   0.811   1.910
31364WAT     H194334   5.263   0.764   1.846
31364WAT     H294335   5.135   0.863   1.860
31365WAT      O94336   5.540   8.480   4.357
31365WAT     H194337   5.616   8.448   4.415
31365WAT     H294338   5.474   8.407   4.346
31366WAT      O94339   6.973   8.905   2.635
31366WAT     H194340   6.956   8.985   2.692
31366WAT     H294341   7.065   8.869   2.654
31367WAT      O94342   4.014   8.134   5.928
31367WAT     H194343   4.024   8.136   6.028
31367WAT     H294344   3.999   8.040   5.898
31368WAT      O94345   3.749   6.850   1.621
31368WAT     H194346   3.784   6.772   1.672
31368WAT     H294347   3.764   6.836   1.523
31369WAT      O94348   8.340   7.537   0.915
31369WAT     H194349   8.402   7.614   0.929
31369WAT     H294350   8.375   7.478   0.843
31370WAT      O94351   5.399   6.544   8.999
31370WAT     H194352   5.489   6.587   8.995
31370WAT     H294353   5.349   6.563   8.914
31371WAT      O94354   7.057   8.372   5.352
31371WAT     H194355   7.027   8.373   5.256
31371WAT     H294356   7.006   8.302   5.402
31372WAT      O94357   3.055   4.614   5.757
31372WAT     H194358   3.149   4.647   5.751
31372WAT     H294359   3.022   4.627   5.851
31373WAT      O94360   2.652   4.362   8.704
31373WAT     H194361   2.645   4.284   8.641
31373WAT     H294362   2.610   4.338   8.792
31374WAT      O94363   5.592   4.557   1.219
31374WAT     H194364   5.574   4.473   1.168
31374WAT     H294365   5.530   4.629   1.188
31375WAT      O94366   3.831   0.582   5.848
31375WAT     H194367   3.850   0.574   5.750
31375WAT     H294368   3.752   0.641   5.862
31376WAT      O94369   0.744   7.859   2.463
31376WAT     H194370   0.823   7.918   2.485
31376WAT     H294371   0.709   7.883   2.373
31377WAT      O94372   7.653   9.458   9.558
31377WAT     H194373   7.729   9.504   9.605
31377WAT     H294374   7.628   9.376   9.609
31378WAT      O94375   2.614   1.479   9.123
31378WAT     H194376   2.542   1.413   9.101
31378WAT     H294377   2.703   1.433   9.121
31379WAT      O94378   5.915   7.732   1.212
31379WAT     H194379   5.964   7.776   1.136
31379WAT     H294380   5.831   7.690   1.178
31380WAT      O94381   1.878   1.709   6.301
31380WAT     H194382   1.808   1.773   6.333
31380WAT     H294383   1.895   1.725   6.204
31381WAT      O94384   9.480   0.365   4.679
31381WAT     H194385   9.475   0.464   4.690
31381WAT     H294386   9.576   0.337   4.676
31382WAT      O94387   9.809   2.638   5.128
31382WAT     H194388   9.784   2.735   5.128
31382WAT     H294389   9.823   2.607   5.222
31383WAT      O94390   9.645   5.619   1.292
31383WAT     H194391   9.645   5.649   1.387
31383WAT     H294392   9.719   5.665   1.243
31384WAT      O94393   2.388   0.608   3.986
31384WAT     H194394   2.350   0.603   3.894
31384WAT     H294395   2.440   0.693   3.996
31385WAT      O94396   0.880   0.256   7.517
31385WAT     H194397   0.970   0.292   7.540
31385WAT     H294398   0.860   0.176   7.574
31386WAT      O94399   4.725   6.125   2.067
31386WAT     H194400   4.644   6.121   2.009
31386WAT     H294401   4.756   6.219   2.074
31387WAT      O94402   7.845   3.599   6.049
31387WAT     H194403   7.824   3.533   6.121
31387WAT     H294404   7.821   3.691   6.081
31388WAT      O94405   2.213   7.378   0.326
31388WAT     H194406   2.133   7.437   0.314
31388WAT     H294407   2.246   7.385   0.421
31389WAT      O94408   0.450   9.514   5.099
31389WAT     H194409   0.540   9.527   5.142
31389WAT     H294410   0.381   9.502   5.171
31390WAT      O94411   1.037   4.396   3.980
31390WAT     H194412   1.030   4.495   3.978
31390WAT     H294413   1.130   4.369   4.004
31391WAT      O94414   9.184   4.627   0.648
31391WAT     H194415   9.199   4.549   0.709
31391WAT     H294416   9.226   4.709   0.686
31392WAT      O94417   4.029   0.146   0.917
31392WAT     H194418   4.032   0.105   1.008
31392WAT     H294419   4.122   0.172   0.890
31393WAT      O94420   6.217   8.478   6.218
31393WAT     H194421   6.136   8.426   6.189
31393WAT     H294422   6.259   8.521   6.138
31394WAT      O94423   7.525   4.782   4.888
31394WAT     H194424   7.442   4.800   4.941
31394WAT     H294425   7.577   4.708   4.932
31395WAT      O94426   1.299   4.393   4.086
31395WAT     H194427   1.317   4.339   4.168
31395WAT     H294428   1.385   4.407   4.036
31396WAT      O94429   3.633   9.414   9.879
31396WAT     H194430   3.621   9.436   9.976
31396WAT     H294431   3.571   9.470   9.824
31397WAT      O94432   2.446   0.484   5.498
31397WAT     H194433   2.511   0.495   5.423
31397WAT     H294434   2.478   0.410   5.558
31398WAT      O94435   7.989   2.649   9.300
31398WAT     H194436   8.076   2.623   9.341
31398WAT     H294437   8.003   2.727   9.239
31399WAT      O94438   7.347   2.769   4.694
31399WAT     H194439   7.290   2.839   4.736
31399WAT     H294440   7.405   2.809   4.623
31400WAT      O94441   1.141   6.875   0.333
31400WAT     H194442   1.185   6.897   0.420
31400WAT     H294443   1.071   6.944   0.313
31401WAT      O94444   1.581   6.442   5.733
31401WAT     H194445   1.645   6.490   5.672
31401WAT     H294446   1.615   6.351   5.753
31402WAT      O94447   9.148   9.604   2.326
31402WAT     H194448   9.177   9.612   2.421
31402WAT     H294449   9.088   9.525   2.316
31403WAT      O94450   9.455   1.606   5.398
31403WAT     H194451   9.486   1.685   5.345
31403WAT     H294452   9.528   1.577   5.460
31404WAT      O94453   4.984   4.624   8.556
31404WAT     H194454   4.920   4.695   8.583
31404WAT     H294455   5.015   4.641   8.462
31405WAT      O94456   1.856   5.252   5.166
31405WAT     H194457   1.800   5.334   5.179
31405WAT     H294458   1.953   5.276   5.179
31406WAT      O94459   3.161   4.877   4.615
31406WAT     H194460   3.202   4.807   4.557
31406WAT     H294461   3.121   4.833   4.696
31407WAT      O94462   6.860   4.381   7.722
31407WAT     H194463   6.814   4.299   7.687
31407WAT     H294464   6.937   4.353   7.779
31408WAT      O94465   5.422   7.972   8.413
31408WAT     H194466   5.441   8.054   8.468
31408WAT     H294467   5.398   7.897   8.474
31409WAT      O94468   1.810   8.399   9.559
31409WAT     H194469   1.739   8.440   9.502
31409WAT     H294470   1.885   8.465   9.571
31410WAT      O94471   6.390   9.415   6.145
31410WAT     H194472   6.473   9.407   6.090
31410WAT     H294473   6.313   9.442   6.087
31411WAT      O94474   0.236   1.921   7.672
31411WAT     H194475   0.197   1.831   7.654
31411WAT     H294476   0.320   1.912   7.725
31412WAT      O94477   1.482   7.524   3.961
31412WAT     H194478   1.469   7.487   4.053
31412WAT     H294479   1.395   7.561   3.928
31413WAT      O94480   6.270   1.003   3.721
31413WAT     H194481   6.228   0.931   3.776
31413WAT     H294482   6.220   1.013   3.635
31414WAT      O94483   4.511   3.006   8.012
31414WAT     H194484   4.491   2.962   7.924
31414WAT     H294485   4.467   2.955   8.086
31415WAT      O94486   8.166   3.213   8.688
31415WAT     H194487   8.145   3.115   8.694
31415WAT     H294488   8.092   3.260   8.641
31416WAT      O94489   5.000   5.736   8.253
31416WAT     H194490   4.915   5.745   8.202
31416WAT     H294491   5.023   5.823   8.295
31417WAT      O94492   4.866   8.052   9.382
31417WAT     H194493   4.813   7.990   9.324
31417WAT     H294494   4.833   8.146   9.370
31418WAT      O94495   3.100   8.430   3.634
31418WAT     H194496   3.179   8.396   3.685
31418WAT     H294497   3.107   8.530   3.625
31419WAT      O94498   1.520   7.970   6.888
31419WAT     H194499   1.601   7.978   6.829
31419WAT     H294500   1.440   7.951   6.831
31420WAT      O94501   1.257   2.481   2.353
31420WAT     H194502   1.331   2.423   2.320
31420WAT     H294503   1.171   2.453   2.309
31421WAT      O94504   5.485   7.189   6.219
31421WAT     H194505   5.578   7.155   6.230
31421WAT     H294506   5.427   7.149   6.290
31422WAT      O94507   9.511   6.634   9.172
31422WAT     H194508   9.591   6.689   9.197
31422WAT     H294509   9.457   6.615   9.254
31423WAT      O94510   7.201   9.612   8.403
31423WAT     H194511   7.124   9.558   8.370
31423WAT     H294512   7.179   9.710   8.395
31424WAT      O94513   1.609   4.762   7.345
31424WAT     H194514   1.607   4.861   7.355
31424WAT     H294515   1.565   4.736   7.258
31425WAT      O94516   0.288   7.145   2.463
31425WAT     H194517   0.383   7.115   2.472
31425WAT     H294518   0.275   7.231   2.511
31426WAT      O94519   3.483   0.347   1.744
31426WAT     H194520   3.514   0.441   1.755
31426WAT     H294521   3.556   0.292   1.704
31427WAT      O94522   0.059   6.239   3.817
31427WAT     H194523   0.100   6.180   3.747
31427WAT     H294524   0.130   6.269   3.881
31428WAT      O94525   0.220   0.326   3.694
31428WAT     H194526   0.152   0.387   3.735
31428WAT     H294527   0.302   0.378   3.671
31429WAT      O94528   0.302   8.689   8.311
31429WAT     H194529   0.255   8.610   8.272
31429WAT     H294530   0.301   8.683   8.410
31430WAT      O94531   4.227   3.999   8.268
31430WAT     H194532   4.317   4.018   8.229
31430WAT     H294533   4.200   4.074   8.329
31431WAT      O94534   4.782   9.407   8.379
31431WAT     H194535   4.736   9.330   8.335
31431WAT     H294536   4.789   9.483   8.315
31432WAT      O94537   9.638   7.511   0.578
31432WAT     H194538   9.538   7.502   0.577
31432WAT     H294539   9.663   7.603   0.547
31433WAT      O94540   2.776   8.267   6.177
31433WAT     H194541   2.846   8.331   6.210
31433WAT     H294542   2.717   8.313   6.111
31434WAT      O94543   9.125   4.215   4.046
31434WAT     H194544   9.072   4.233   4.129
31434WAT     H294545   9.213   4.173   4.070
31435WAT      O94546   3.734   9.259   6.796
31435WAT     H194547   3.739   9.358   6.805
31435WAT     H294548   3.653   9.233   6.744
31436WAT      O94549   4.726   6.487   9.139
31436WAT     H194550   4.732   6.395   9.099
31436WAT     H294551   4.697   6.552   9.070
31437WAT      O94552   7.055   6.897   4.437
31437WAT     H194553   7.042   6.862   4.344
31437WAT     H294554   7.014   6.832   4.502
31438WAT      O94555   1.396   5.455   7.412
31438WAT     H194556   1.307   5.468   7.370
31438WAT     H294557   1.458   5.412   7.346
31439WAT      O94558   4.446   1.855   3.414
31439WAT     H194559   4.490   1.906   3.340
31439WAT     H294560   4.351   1.886   3.424
31440WAT      O94561   3.382   5.010   8.956
31440WAT     H194562   3.331   4.926   8.978
31440WAT     H294563   3.321   5.073   8.908
31441WAT      O94564   8.787   1.805   0.168
31441WAT     H194565   8.865   1.863   0.145
31441WAT     H294566   8.776   1.802   0.267
31442WAT      O94567   5.823   6.456   6.633
31442WAT     H194568   5.870   6.542   6.652
31442WAT     H294569   5.834   6.394   6.710
31443WAT      O94570   2.770   4.915   7.358
31443WAT     H194571   2.754   4.840   7.422
31443WAT     H294572   2.683   4.953   7.329
31444WAT      O94573   0.383   1.353   7.998
31444WAT     H194574   0.312   1.418   8.025
31444WAT     H294575   0.467   1.373   8.048
31445WAT      O94576   1.788   2.606   9.490
31445WAT     H194577   1.874   2.637   9.449
31445WAT     H294578   1.739   2.549   9.425
31446WAT      O94579   5.648   9.568   9.114
31446WAT     H194580   5.629   9.616   9.199
31446WAT     H294581   5.565   9.565   9.058
31447WAT      O94582   4.258   4.766   1.076
31447WAT     H194583   4.263   4.717   1.163
31447WAT     H294584   4.339   4.743   1.021
31448WAT      O94585   6.177   6.635   6.442
31448WAT     H194586   6.153   6.714   6.499
31448WAT     H294587   6.111   6.627   6.368
31449WAT      O94588   2.713   0.078   6.005
31449WAT     H194589   2.653   0.155   6.027
31449WAT     H294590   2.782   0.068   6.078
31450WAT      O94591   2.906   8.221   5.572
31450WAT     H194592   2.862   8.290   5.630
31450WAT     H294593   2.993   8.194   5.612
31451WAT      O94594   7.287   9.715   4.458
31451WAT     H194595   7.258   9.782   4.525
31451WAT     H294596   7.230   9.633   4.466
31452WAT      O94597   9.005   7.630   2.954
31452WAT     H194598   9.041   7.628   3.047
31452WAT     H294599   8.905   7.639   2.956
31453WAT      O94600   9.300   7.737   3.737
31453WAT     H194601   9.391   7.695   3.729
31453WAT     H294602   9.309   7.836   3.730
31454WAT      O94603   2.548   1.010   6.051
31454WAT     H194604   2.516   0.979   6.140
31454WAT     H294605   2.472   1.051   6.000
31455WAT      O94606   3.511   1.311   4.399
31455WAT     H194607   3.514   1.218   4.364
31455WAT     H294608   3.431   1.358   4.362
31456WAT      O94609   2.729   6.360   4.332
31456WAT     H194610   2.728   6.460   4.325
31456WAT     H294611   2.647   6.323   4.290
31457WAT      O94612   4.900   4.528   5.143
31457WAT     H194613   4.859   4.615   5.116
31457WAT     H294614   4.974   4.505   5.081
31458WAT      O94615   7.334   3.644   0.180
31458WAT     H194616   7.375   3.589   0.107
31458WAT     H294617   7.315   3.586   0.259
31459WAT      O94618   5.676   0.365   6.819
31459WAT     H194619   5.615   0.308   6.765
31459WAT     H294620   5.769   0.327   6.818
31460WAT      O94621   9.517   3.072   2.980
31460WAT     H194622   9.480   3.151   2.933
31460WAT     H294623   9.596   3.100   3.036
31461WAT      O94624   6.584   0.086   1.820
31461WAT     H194625   6.553   0.178   1.844
31461WAT     H294626   6.506   0.026   1.807
31462WAT      O94627   7.709   2.370   8.325
31462WAT     H194628   7.663   2.395   8.240
31462WAT     H294629   7.713   2.270   8.332
31463WAT      O94630   4.909   7.915   8.687
31463WAT     H194631   4.915   7.856   8.768
31463WAT     H294632   4.995   7.963   8.675
31464WAT      O94633   3.032   4.828   3.922
31464WAT     H194634   3.118   4.807   3.969
31464WAT     H294635   3.042   4.812   3.824
31465WAT      O94636   2.600   3.494   3.424
31465WAT     H194637   2.691   3.455   3.440
31465WAT     H294638   2.585   3.571   3.486
31466WAT      O94639   1.777   2.638   3.987
31466WAT     H194640   1.699   2.692   4.021
31466WAT     H294641   1.771   2.632   3.888
31467WAT      O94642   7.725   1.343   6.895
31467WAT     H194643   7.799   1.293   6.850
31467WAT     H294644   7.642   1.287   6.894
31468WAT      O94645   1.593   3.308   2.448
31468WAT     H194646   1.564   3.386   2.391
31468WAT     H294647   1.686   3.282   2.423
31469WAT      O94648   9.574   3.775   6.501
31469WAT     H194649   9.566   3.756   6.403
31469WAT     H294650   9.663   3.814   6.520
31470WAT      O94651   9.699   2.446   2.695
31470WAT     H194652   9.629   2.511   2.726
31470WAT     H294653   9.715   2.378   2.766
31471WAT      O94654   1.528   8.886   8.645
31471WAT     H194655   1.439   8.929   8.658
31471WAT     H294656   1.557   8.842   8.731
31472WAT      O94657   2.463   2.122   8.801
31472WAT     H194658   2.498   2.029   8.793
31472WAT     H294659   2.538   2.187   8.788
31473WAT      O94660   9.303   5.492   6.858
31473WAT     H194661   9.295   5.512   6.956
31473WAT     H294662   9.355   5.565   6.813
31474WAT      O94663   6.912   3.911   2.111
31474WAT     H194664   6.907   3.841   2.182
31474WAT     H294665   6.981   3.979   2.136
31475WAT      O94666   0.791   0.631   5.541
31475WAT     H194667   0.748   0.694   5.606
31475WAT     H294668   0.729   0.615   5.464
31476WAT      O94669   2.739   2.609   9.303
31476WAT     H194670   2.642   2.614   9.281
31476WAT     H294671   2.750   2.574   9.396
31477WAT      O94672   0.349   2.324   7.603
31477WAT     H194673   0.269   2.309   7.662
31477WAT     H294674   0.352   2.253   7.533
31478WAT      O94675   9.680   0.560   3.923
31478WAT     H194676   9.679   0.615   4.006
31478WAT     H294677   9.588   0.560   3.882
31479WAT      O94678   6.622   6.526   2.705
31479WAT     H194679   6.616   6.588   2.627
31479WAT     H294680   6.548   6.460   2.701
31480WAT      O94681   3.208   1.601   6.137
31480WAT     H194682   3.238   1.588   6.042
31480WAT     H294683   3.134   1.536   6.157
31481WAT      O94684   7.057   6.328   9.468
31481WAT     H194685   7.073   6.251   9.407
31481WAT     H294686   6.970   6.372   9.444
31482WAT      O94687   8.202   7.325   7.406
31482WAT     H194688   8.104   7.323   7.387
31482WAT     H294689   8.233   7.420   7.411
31483WAT      O94690   7.610   8.697   7.913
31483WAT     H194691   7.682   8.707   7.844
31483WAT     H294692   7.591   8.785   7.955
31484WAT      O94693   9.360   5.124   6.701
31484WAT     H194694   9.275   5.163   6.738
31484WAT     H294695   9.396   5.186   6.631
31485WAT      O94696   2.119   5.487   5.331
31485WAT     H194697   2.213   5.513   5.357
31485WAT     H294698   2.054   5.547   5.378
31486WAT      O94699   4.181   8.680   1.959
31486WAT     H194700   4.105   8.624   1.991
31486WAT     H294701   4.146   8.754   1.901
31487WAT      O94702   7.927   5.653   1.785
31487WAT     H194703   7.874   5.702   1.716
31487WAT     H294704   7.870   5.633   1.864
31488WAT      O94705   7.752   7.400   1.928
31488WAT     H194706   7.780   7.482   1.977
31488WAT     H294707   7.743   7.324   1.992
31489WAT      O94708   9.238   1.083   1.396
31489WAT     H194709   9.192   1.168   1.369
31489WAT     H294710   9.246   1.024   1.316
31490WAT      O94711   3.972   5.019   6.815
31490WAT     H194712   4.060   5.067   6.815
31490WAT     H294713   3.951   4.987   6.722
31491WAT      O94714   7.910   3.903   2.348
31491WAT     H194715   7.822   3.899   2.300
31491WAT     H294716   7.907   3.974   2.418
31492WAT      O94717   8.862   7.242   5.971
31492WAT     H194718   8.820   7.250   5.881
31492WAT     H294719   8.933   7.171   5.969
31493WAT      O94720   2.760   2.582   7.707
31493WAT     H194721   2.675   2.535   7.733
31493WAT     H294722   2.753   2.609   7.611
31494WAT      O94723   7.239   5.813   2.226
31494WAT     H194724   7.183   5.793   2.146
31494WAT     H294725   7.276   5.728   2.263
31495WAT      O94726   9.696   6.179   4.154
31495WAT     H194727   9.728   6.240   4.227
31495WAT     H294728   9.600   6.197   4.136
31496WAT      O94729   8.468   3.647   0.403
31496WAT     H194730   8.496   3.663   0.497
31496WAT     H294731   8.549   3.642   0.344
31497WAT      O94732   3.248   1.550   5.649
31497WAT     H194733   3.162   1.584   5.610
31497WAT     H294734   3.307   1.518   5.575
31498WAT      O94735   0.491   7.124   0.891
31498WAT     H194736   0.531   7.196   0.948
31498WAT     H294737   0.563   7.081   0.837
31499WAT      O94738   0.570   1.773   2.413
31499WAT     H194739   0.602   1.678   2.410
31499WAT     H294740   0.494   1.785   2.349
31500WAT      O94741   4.445   0.248   6.271
31500WAT     H194742   4.393   0.275   6.353
31500WAT     H294743   4.382   0.237   6.194
31501WAT      O94744   4.955   6.778   7.661
31501WAT     H194745   4.899   6.699   7.636
31501WAT     H294746   5.034   6.747   7.714
31502WAT      O94747   4.002   3.011   8.038
31502WAT     H194748   3.974   3.102   8.009
31502WAT     H294749   4.000   3.006   8.138
31503WAT      O94750   8.981   2.941   3.226
31503WAT     H194751   9.058   3.002   3.242
31503WAT     H294752   9.013   2.858   3.180
31504WAT      O94753   9.378   0.501   7.748
31504WAT     H194754   9.433   0.440   7.805
31504WAT     H294755   9.284   0.502   7.781
31505WAT      O94756   5.025   4.835   2.035
31505WAT     H194757   4.950   4.898   2.052
31505WAT     H294758   5.095   4.881   1.980
31506WAT      O94759   7.330   1.036   6.374
31506WAT     H194760   7.382   0.951   6.370
31506WAT     H294761   7.299   1.061   6.282
31507WAT      O94762   7.774   2.191   6.394
31507WAT     H194763   7.811   2.099   6.381
31507WAT     H294764   7.748   2.203   6.490
31508WAT      O94765   0.571   0.784   4.803
31508WAT     H194766   0.649   0.789   4.741
31508WAT     H294767   0.491   0.749   4.753
31509WAT      O94768   7.705   8.013   1.741
31509WAT     H194769   7.651   7.928   1.737
31509WAT     H294770   7.654   8.082   1.791
31510WAT      O94771   1.836   0.132   5.998
31510WAT     H194772   1.905   0.154   6.068
31510WAT     H294773   1.747   0.119   6.042
31511WAT      O94774   9.300   4.045   6.752
31511WAT     H194775   9.296   4.127   6.696
31511WAT     H294776   9.313   3.965   6.693
31512WAT      O94777   7.138   3.873   5.717
31512WAT     H194778   7.103   3.868   5.810
31512WAT     H294779   7.201   3.950   5.709
31513WAT      O94780   3.213   5.858   4.847
31513WAT     H194781   3.127   5.840   4.895
31513WAT     H294782   3.196   5.864   4.749
31514WAT      O94783   8.603   8.972   5.184
31514WAT     H194784   8.570   9.058   5.223
31514WAT     H294785   8.581   8.897   5.246
31515WAT      O94786   5.227   9.104   8.919
31515WAT     H194787   5.257   9.150   8.836
31515WAT     H294788   5.216   9.172   8.992
31516WAT      O94789   3.823   2.890   9.568
31516WAT     H194790   3.848   2.987   9.576
31516WAT     H294791   3.831   2.846   9.658
31517WAT      O94792   3.373   8.007   9.844
31517WAT     H194793   3.465   8.023   9.882
31517WAT     H294794   3.354   7.909   9.844
31518WAT      O94795   8.782   5.690   5.820
31518WAT     H194796   8.811   5.727   5.908
31518WAT     H294797   8.796   5.759   5.748
31519WAT      O94798   3.789   5.013   9.715
31519WAT     H194799   3.789   4.931   9.772
31519WAT     H294800   3.831   5.089   9.765
31520WAT      O94801   1.769   9.050   8.608
31520WAT     H194802   1.781   9.027   8.705
31520WAT     H294803   1.681   9.014   8.577
31521WAT      O94804   5.923   2.462   5.601
31521WAT     H194805   5.957   2.546   5.559
31521WAT     H294806   5.843   2.483   5.656
31522WAT      O94807   1.994   5.130   1.233
31522WAT     H194808   1.901   5.165   1.241
31522WAT     H294809   2.042   5.180   1.160
31523WAT      O94810   4.443   3.495   6.706
31523WAT     H194811   4.455   3.396   6.699
31523WAT     H294812   4.481   3.539   6.625
31524WAT      O94813   5.436   6.307   2.007
31524WAT     H194814   5.446   6.260   1.920
31524WAT     H294815   5.339   6.308   2.034
31525WAT      O94816   3.408   2.890   5.642
31525WAT     H194817   3.447   2.927   5.558
31525WAT     H294818   3.431   2.950   5.719
31526WAT      O94819   7.925   0.929   7.627
31526WAT     H194820   7.953   0.956   7.535
31526WAT     H294821   7.951   1.000   7.692
31527WAT      O94822   2.798   9.108   3.470
31527WAT     H194823   2.876   9.113   3.531
31527WAT     H294824   2.826   9.066   3.383
31528WAT      O94825   9.349   2.007   5.276
31528WAT     H194826   9.338   1.954   5.191
31528WAT     H294827   9.399   1.952   5.343
31529WAT      O94828   1.799   4.601   4.125
31529WAT     H194829   1.851   4.663   4.184
31529WAT     H294830   1.733   4.654   4.071
31530WAT      O94831   9.470   4.645   4.936
31530WAT     H194832   9.499   4.558   4.895
31530WAT     H294833   9.424   4.628   5.023
31531WAT      O94834   9.412   7.215   6.680
31531WAT     H194835   9.385   7.284   6.612
31531WAT     H294836   9.330   7.172   6.717
31532WAT      O94837   6.286   6.101   8.440
31532WAT     H194838   6.256   6.006   8.448
31532WAT     H294839   6.271   6.134   8.347
31533WAT      O94840   8.621   4.128   9.332
31533WAT     H194841   8.579   4.072   9.403
31533WAT     H294842   8.713   4.093   9.312
31534WAT      O94843   3.926   5.902   4.114
31534WAT     H194844   3.916   5.808   4.147
31534WAT     H294845   3.882   5.910   4.024
31535WAT      O94846   4.271   3.549   1.007
31535WAT     H194847   4.180   3.573   0.973
31535WAT     H294848   4.279   3.450   1.015
31536WAT      O94849   1.926   9.352   0.508
31536WAT     H194850   1.867   9.427   0.479
31536WAT     H294851   1.942   9.357   0.607
31537WAT      O94852   0.462   7.643   2.416
31537WAT     H194853   0.521   7.569   2.447
31537WAT     H294854   0.371   7.607   2.394
31538WAT      O94855   2.781   1.044   7.807
31538WAT     H194856   2.791   1.138   7.840
31538WAT     H294857   2.871   1.000   7.802
31539WAT      O94858   7.828   2.123   1.680
31539WAT     H194859   7.855   2.047   1.738
31539WAT     H294860   7.814   2.205   1.735
31540WAT      O94861   2.566   9.257   3.491
31540WAT     H194862   2.556   9.341   3.545
31540WAT     H294863   2.659   9.222   3.502
31541WAT      O94864   2.688   0.729   2.011
31541WAT     H194865   2.607   0.683   1.975
31541WAT     H294866   2.687   0.825   1.982
31542WAT      O94867   3.363   3.292   9.461
31542WAT     H194868   3.417   3.215   9.426
31542WAT     H294869   3.332   3.349   9.384
31543WAT      O94870   7.923   2.109   1.094
31543WAT     H194871   8.021   2.125   1.101
31543WAT     H294872   7.900   2.082   1.001
31544WAT      O94873   6.562   3.624   2.393
31544WAT     H194874   6.552   3.694   2.464
31544WAT     H294875   6.484   3.561   2.397
31545WAT      O94876   7.615   2.134   2.273
31545WAT     H194877   7.664   2.194   2.336
31545WAT     H294878   7.673   2.055   2.252
31546WAT      O94879   8.161   1.132   8.707
31546WAT     H194880   8.141   1.230   8.699
31546WAT     H294881   8.099   1.091   8.775
31547WAT      O94882   6.315   9.513   1.669
31547WAT     H194883   6.284   9.426   1.708
31547WAT     H294884   6.376   9.495   1.592
31548WAT      O94885   9.597   5.828   6.418
31548WAT     H194886   9.588   5.876   6.331
31548WAT     H294887   9.527   5.861   6.482
31549WAT      O94888   4.290   2.574   0.912
31549WAT     H194889   4.206   2.576   0.858
31549WAT     H294890   4.327   2.666   0.922
31550WAT      O94891   2.820   6.971   1.150
31550WAT     H194892   2.758   6.912   1.201
31550WAT     H294893   2.808   7.066   1.180
31551WAT      O94894   6.353   5.598   5.304
31551WAT     H194895   6.353   5.554   5.214
31551WAT     H294896   6.261   5.592   5.343
31552WAT      O94897   1.853   4.583   5.150
31552WAT     H194898   1.817   4.490   5.138
31552WAT     H294899   1.902   4.589   5.236
31553WAT      O94900   5.935   2.618   6.618
31553WAT     H194901   5.881   2.676   6.679
31553WAT     H294902   6.016   2.585   6.667
31554WAT      O94903   4.804   0.353   9.510
31554WAT     H194904   4.798   0.447   9.545
31554WAT     H294905   4.712   0.320   9.488
31555WAT      O94906   8.704   8.273   2.845
31555WAT     H194907   8.640   8.286   2.921
31555WAT     H294908   8.720   8.360   2.799
31556WAT      O94909   4.685   8.208   6.581
31556WAT     H194910   4.778   8.223   6.617
31556WAT     H294911   4.685   8.223   6.482
31557WAT      O94912   4.057   0.732   8.831
31557WAT     H194913   3.978   0.678   8.804
31557WAT     H294914   4.041   0.828   8.808
31558WAT      O94915   6.090   7.257   2.953
31558WAT     H194916   6.171   7.293   2.999
31558WAT     H294917   6.010   7.312   2.977
31559WAT      O94918   7.228   0.414   5.058
31559WAT     H194919   7.277   0.332   5.088
31559WAT     H294920   7.141   0.421   5.107
31560WAT      O94921   6.074   3.269   1.652
31560WAT     H194922   6.103   3.246   1.559
31560WAT     H294923   6.151   3.258   1.715
31561WAT      O94924   1.048   6.542   6.849
31561WAT     H194925   1.101   6.461   6.875
31561WAT     H294926   0.977   6.558   6.917
31562WAT      O94927   9.264   2.645   3.016
31562WAT     H194928   9.166   2.639   3.001
31562WAT     H294929   9.288   2.740   3.039
31563WAT      O94930   5.854   2.054   3.983
31563WAT     H194931   5.760   2.089   3.987
31563WAT     H294932   5.880   2.038   3.888
31564WAT      O94933   0.910   3.695   0.293
31564WAT     H194934   0.834   3.748   0.330
31564WAT     H294935   0.954   3.746   0.219
31565WAT      O94936   3.812   8.576   9.131
31565WAT     H194937   3.843   8.548   9.040
31565WAT     H294938   3.712   8.587   9.130
31566WAT      O94939   1.726   4.056   1.246
31566WAT     H194940   1.742   4.144   1.291
31566WAT     H294941   1.630   4.031   1.253
31567WAT      O94942   0.192   0.534   8.850
31567WAT     H194943   0.189   0.531   8.950
31567WAT     H294944   0.149   0.451   8.813
31568WAT      O94945   4.716   6.054   3.422
31568WAT     H194946   4.622   6.028   3.403
31568WAT     H294947   4.722   6.153   3.432
31569WAT      O94948   6.166   7.465   8.347
31569WAT     H194949   6.179   7.560   8.320
31569WAT     H294950   6.118   7.462   8.434
31570WAT      O94951   6.075   8.092   8.915
31570WAT     H194952   6.034   8.087   9.006
31570WAT     H294953   6.048   8.178   8.871
31571WAT      O94954   1.986   4.649   1.352
31571WAT     H194955   2.007   4.735   1.305
31571WAT     H294956   2.071   4.598   1.366
31572WAT      O94957   3.646   9.046   1.852
31572WAT     H194958   3.700   8.967   1.879
31572WAT     H294959   3.582   9.069   1.926
31573WAT      O94960   8.338   4.346   0.372
31573WAT     H194961   8.425   4.329   0.326
31573WAT     H294962   8.313   4.443   0.361
31574WAT      O94963   8.511   2.812   4.435
31574WAT     H194964   8.421   2.853   4.447
31574WAT     H294965   8.576   2.882   4.406
31575WAT      O94966   1.972   8.237   3.131
31575WAT     H194967   1.984   8.211   3.035
31575WAT     H294968   2.041   8.190   3.187
31576WAT      O94969   8.016   0.664   7.661
31576WAT     H194970   7.959   0.588   7.631
31576WAT     H294971   7.960   0.747   7.671
31577WAT      O94972   2.622   1.660   0.369
31577WAT     H194973   2.696   1.698   0.314
31577WAT     H294974   2.657   1.630   0.457
31578WAT      O94975   4.863   4.882   2.343
31578WAT     H194976   4.950   4.834   2.333
31578WAT     H294977   4.789   4.825   2.308
31579WAT      O94978   6.836   2.799   5.255
31579WAT     H194979   6.804   2.821   5.347
31579WAT     H294980   6.789   2.717   5.222
31580WAT      O94981   2.461   7.773   7.144
31580WAT     H194982   2.387   7.707   7.131
31580WAT     H294983   2.466   7.834   7.065
31581WAT      O94984   3.998   0.748   4.594
31581WAT     H194985   3.909   0.714   4.564
31581WAT     H294986   4.030   0.693   4.671
31582WAT      O94987   2.786   2.428   1.366
31582WAT     H194988   2.771   2.525   1.382
31582WAT     H294989   2.878   2.415   1.329
31583WAT      O94990   7.522   9.505   9.050
31583WAT     H194991   7.452   9.525   9.120
31583WAT     H294992   7.575   9.587   9.032
31584WAT      O94993   6.684   4.635   5.975
31584WAT     H194994   6.700   4.541   5.946
31584WAT     H294995   6.587   4.657   5.963
31585WAT      O94996   1.653   4.193   0.877
31585WAT     H194997   1.709   4.247   0.815
31585WAT     H294998   1.611   4.253   0.945
31586WAT      O94999   5.637   9.643   2.984
31586WAT     H195000   5.616   9.728   2.935
31586WAT     H295001   5.735   9.637   3.001
31587WAT      O95002   1.766   9.468   5.255
31587WAT     H195003   1.753   9.377   5.216
31587WAT     H295004   1.678   9.504   5.287
31588WAT      O95005   4.498   8.002   6.451
31588WAT     H195006   4.585   8.016   6.497
31588WAT     H295007   4.459   7.914   6.478
31589WAT      O95008   7.858   9.316   7.534
31589WAT     H195009   7.946   9.362   7.549
31589WAT     H295010   7.843   9.249   7.607
31590WAT      O95011   6.871   7.358   0.748
31590WAT     H195012   6.846   7.372   0.652
31590WAT     H295013   6.899   7.264   0.762
31591WAT      O95014   4.813   3.533   3.190
31591WAT     H195015   4.830   3.631   3.201
31591WAT     H295016   4.782   3.516   3.096
31592WAT      O95017   3.253   6.293   3.543
31592WAT     H195018   3.300   6.381   3.542
31592WAT     H295019   3.210   6.279   3.632
31593WAT      O95020   0.018   8.525   2.027
31593WAT     H195021  -0.072   8.538   1.986
31593WAT     H295022   0.058   8.613   2.050
31594WAT      O95023   5.768   3.463   7.112
31594WAT     H195024   5.734   3.444   7.020
31594WAT     H295025   5.857   3.509   7.106
31595WAT      O95026   7.144   6.043   9.593
31595WAT     H195027   7.234   5.997   9.592
31595WAT     H295028   7.110   6.050   9.499
31596WAT      O95029   3.390   8.968   3.990
31596WAT     H195030   3.479   9.003   3.959
31596WAT     H295031   3.401   8.927   4.081
31597WAT      O95032   7.112   2.478   7.502
31597WAT     H195033   7.056   2.425   7.566
31597WAT     H295034   7.085   2.456   7.409
31598WAT      O95035   6.263   2.199   3.396
31598WAT     H195036   6.215   2.252   3.326
31598WAT     H295037   6.296   2.113   3.356
31599WAT      O95038   2.665   5.376   5.213
31599WAT     H195039   2.724   5.297   5.193
31599WAT     H295040   2.656   5.433   5.131
31600WAT      O95041   5.009   3.239   1.530
31600WAT     H195042   4.910   3.236   1.511
31600WAT     H295043   5.058   3.200   1.452
31601WAT      O95044   0.184   8.879   3.863
31601WAT     H195045   0.175   8.822   3.781
31601WAT     H295046   0.138   8.834   3.939
31602WAT      O95047   2.033   3.802   8.699
31602WAT     H195048   1.937   3.810   8.724
31602WAT     H295049   2.063   3.707   8.709
31603WAT      O95050   9.678   7.723   1.182
31603WAT     H195051   9.658   7.706   1.278
31603WAT     H295052   9.777   7.735   1.170
31604WAT      O95053   6.266   1.444   8.013
31604WAT     H195054   6.202   1.468   7.940
31604WAT     H295055   6.226   1.467   8.101
31605WAT      O95056   8.141   3.792   8.773
31605WAT     H195057   8.225   3.766   8.726
31605WAT     H295058   8.097   3.867   8.724
31606WAT      O95059   2.170   2.142   1.053
31606WAT     H195060   2.270   2.150   1.051
31606WAT     H295061   2.129   2.232   1.040
31607WAT      O95062   1.555   8.487   6.143
31607WAT     H195063   1.544   8.404   6.199
31607WAT     H295064   1.651   8.496   6.117
31608WAT      O95065   3.911   0.744   9.811
31608WAT     H195066   3.830   0.799   9.833
31608WAT     H295067   3.993   0.800   9.824
31609WAT      O95068   6.293   2.873   7.714
31609WAT     H195069   6.373   2.924   7.745
31609WAT     H295070   6.227   2.936   7.674
31610WAT      O95071   3.012   2.036   6.542
31610WAT     H195072   3.029   2.040   6.444
31610WAT     H295073   3.015   2.128   6.580
31611WAT      O95074   2.148   5.209   7.212
31611WAT     H195075   2.158   5.235   7.116
31611WAT     H295076   2.217   5.255   7.267
31612WAT      O95077   4.518   0.242   8.835
31612WAT     H195078   4.422   0.270   8.840
31612WAT     H295079   4.528   0.167   8.769
31613WAT      O95080   8.546   1.411   4.853
31613WAT     H195081   8.575   1.412   4.948
31613WAT     H295082   8.459   1.460   4.843
31614WAT      O95083   2.823   5.279   3.329
31614WAT     H195084   2.847   5.251   3.422
31614WAT     H295085   2.831   5.378   3.320
31615WAT      O95086   6.312   9.566   7.359
31615WAT     H195087   6.335   9.655   7.397
31615WAT     H295088   6.216   9.564   7.332
31616WAT      O95089   4.797   1.905   1.887
31616WAT     H195090   4.775   1.824   1.833
31616WAT     H295091   4.842   1.878   1.972
31617WAT      O95092   6.805   4.487   5.562
31617WAT     H195093   6.809   4.472   5.661
31617WAT     H295094   6.785   4.401   5.516
31618WAT      O95095   0.623   2.157   8.933
31618WAT     H195096   0.565   2.140   9.013
31618WAT     H295097   0.613   2.081   8.868
31619WAT      O95098   2.557   4.250   1.079
31619WAT     H195099   2.523   4.340   1.052
31619WAT     H295100   2.488   4.203   1.133
31620WAT      O95101   0.738   4.432   1.123
31620WAT     H195102   0.699   4.414   1.214
31620WAT     H295103   0.755   4.530   1.113
31621WAT      O95104   3.597   8.086   1.923
31621WAT     H195105   3.598   7.988   1.903
31621WAT     H295106   3.536   8.132   1.859
31622WAT      O95107   2.854   1.140   3.866
31622WAT     H195108   2.794   1.217   3.846
31622WAT     H295109   2.814   1.056   3.830
31623WAT      O95110   1.826   2.166   5.403
31623WAT     H195111   1.882   2.245   5.379
31623WAT     H295112   1.876   2.109   5.469
31624WAT      O95113   2.473   1.755   5.990
31624WAT     H195114   2.481   1.676   6.051
31624WAT     H295115   2.395   1.811   6.018
31625WAT      O95116   3.438   7.482   6.833
31625WAT     H195117   3.465   7.496   6.738
31625WAT     H295118   3.351   7.432   6.835
31626WAT      O95119   1.737   2.385   1.835
31626WAT     H195120   1.734   2.346   1.743
31626WAT     H295121   1.832   2.406   1.859
31627WAT      O95122   6.343   7.108   6.978
31627WAT     H195123   6.259   7.054   6.974
31627WAT     H295124   6.382   7.117   6.886
31628WAT      O95125   6.525   7.411   7.905
31628WAT     H195126   6.567   7.494   7.942
31628WAT     H295127   6.514   7.420   7.807
31629WAT      O95128   4.172   0.354   5.842
31629WAT     H195129   4.083   0.390   5.814
31629WAT     H295130   4.239   0.370   5.768
31630WAT      O95131   3.486   6.395   5.612
31630WAT     H195132   3.412   6.396   5.545
31630WAT     H295133   3.525   6.487   5.621
31631WAT      O95134   2.499   7.878   0.907
31631WAT     H195135   2.405   7.847   0.918
31631WAT     H295136   2.559   7.800   0.894
31632WAT      O95137   4.828   3.606   6.752
31632WAT     H195138   4.792   3.555   6.830
31632WAT     H295139   4.855   3.697   6.781
31633WAT      O95140   3.034   9.640   9.436
31633WAT     H195141   3.113   9.684   9.392
31633WAT     H295142   3.051   9.543   9.447
31634WAT      O95143   3.248   2.767   4.681
31634WAT     H195144   3.264   2.719   4.768
31634WAT     H295145   3.291   2.857   4.685
31635WAT      O95146   1.184   7.349   9.458
31635WAT     H195147   1.263   7.297   9.423
31635WAT     H295148   1.101   7.314   9.416
31636WAT      O95149   0.397   7.837   7.229
31636WAT     H195150   0.334   7.879   7.295
31636WAT     H295151   0.482   7.890   7.226
31637WAT      O95152   8.975   1.852   0.856
31637WAT     H195153   9.035   1.886   0.928
31637WAT     H295154   8.903   1.794   0.896
31638WAT      O95155   4.179   2.913   0.395
31638WAT     H195156   4.093   2.962   0.413
31638WAT     H295157   4.240   2.973   0.344
31639WAT      O95158   9.143   4.005   8.308
31639WAT     H195159   9.103   4.060   8.235
31639WAT     H295160   9.100   3.915   8.309
31640WAT      O95161   0.066   4.072   7.350
31640WAT     H195162   0.105   4.157   7.317
31640WAT     H295163   0.050   4.077   7.448
31641WAT      O95164   0.342   8.050   5.101
31641WAT     H195165   0.373   7.985   5.170
31641WAT     H295166   0.420   8.083   5.048
31642WAT      O95167   4.965   7.361   6.668
31642WAT     H195168   5.048   7.417   6.664
31642WAT     H295169   4.905   7.396   6.740
31643WAT      O95170   5.995   6.884   5.405
31643WAT     H195171   5.993   6.865   5.307
31643WAT     H295172   5.909   6.925   5.434
31644WAT      O95173   2.688   4.657   5.914
31644WAT     H195174   2.767   4.653   5.974
31644WAT     H295175   2.618   4.593   5.947
31645WAT      O95176   9.876   5.200   3.788
31645WAT     H195177   9.936   5.276   3.814
31645WAT     H295178   9.911   5.157   3.704
31646WAT      O95179   7.345   6.586   6.962
31646WAT     H195180   7.366   6.608   6.867
31646WAT     H295181   7.273   6.647   6.995
31647WAT      O95182   9.326   0.364   9.764
31647WAT     H195183   9.273   0.421   9.702
31647WAT     H295184   9.323   0.404   9.856
31648WAT      O95185   8.429   1.327   5.181
31648WAT     H195186   8.350   1.388   5.176
31648WAT     H295187   8.438   1.292   5.274
31649WAT      O95188   3.044   3.017   2.467
31649WAT     H195189   3.030   2.988   2.561
31649WAT     H295190   3.100   3.099   2.464
31650WAT      O95191   1.019   6.612   5.647
31650WAT     H195192   0.990   6.600   5.742
31650WAT     H295193   1.109   6.656   5.645
31651WAT      O95194   6.180   0.580   3.333
31651WAT     H195195   6.264   0.607   3.380
31651WAT     H295196   6.137   0.505   3.383
31652WAT      O95197   2.855   6.936   7.171
31652WAT     H195198   2.888   6.905   7.260
31652WAT     H295199   2.924   6.995   7.129
31653WAT      O95200   6.448   3.724   2.972
31653WAT     H195201   6.372   3.782   3.002
31653WAT     H295202   6.413   3.652   2.912
31654WAT      O95203   7.114   4.535   6.940
31654WAT     H195204   7.035   4.562   6.995
31654WAT     H295205   7.196   4.583   6.973
31655WAT      O95206   3.488   7.327   7.080
31655WAT     H195207   3.501   7.387   7.001
31655WAT     H295208   3.391   7.305   7.089
31656WAT      O95209   7.797   3.804   7.577
31656WAT     H195210   7.809   3.902   7.594
31656WAT     H295211   7.885   3.764   7.551
31657WAT      O95212   3.371   7.978   2.146
31657WAT     H195213   3.456   7.996   2.194
31657WAT     H295214   3.302   8.044   2.175
31658WAT      O95215   9.633   9.377   8.752
31658WAT     H195216   9.544   9.333   8.742
31658WAT     H295217   9.701   9.327   8.698
31659WAT      O95218   5.139   5.133   0.624
31659WAT     H195219   5.079   5.077   0.681
31659WAT     H295220   5.134   5.100   0.529
31660WAT      O95221   0.035   0.665   3.550
31660WAT     H195222   0.030   0.597   3.623
31660WAT     H295223   0.129   0.671   3.515
31661WAT      O95224   2.626   8.386   5.417
31661WAT     H195225   2.721   8.415   5.427
31661WAT     H295226   2.623   8.295   5.375
31662WAT      O95227   3.788   8.000   9.626
31662WAT     H195228   3.825   8.001   9.719
31662WAT     H295229   3.806   7.911   9.584
31663WAT      O95230   9.144   4.874   0.295
31663WAT     H195231   9.099   4.937   0.358
31663WAT     H295232   9.116   4.893   0.201
31664WAT      O95233   3.230   0.502   3.591
31664WAT     H195234   3.314   0.462   3.553
31664WAT     H295235   3.187   0.437   3.653
31665WAT      O95236   8.985   6.067   7.365
31665WAT     H195237   8.975   6.047   7.268
31665WAT     H295238   9.029   6.156   7.377
31666WAT      O95239   7.944   0.356   2.059
31666WAT     H195240   7.986   0.368   2.148
31666WAT     H295241   7.917   0.260   2.047
31667WAT      O95242   4.013   9.452   5.814
31667WAT     H195243   3.960   9.494   5.742
31667WAT     H295244   4.011   9.352   5.803
31668WAT      O95245   6.266   1.718   2.142
31668WAT     H195246   6.352   1.691   2.098
31668WAT     H295247   6.191   1.667   2.101
31669WAT      O95248   7.397   5.819   6.519
31669WAT     H195249   7.496   5.824   6.505
31669WAT     H295250   7.360   5.910   6.534
31670WAT      O95251   4.419   6.198   3.857
31670WAT     H195252   4.479   6.168   3.783
31670WAT     H295253   4.428   6.137   3.935
31671WAT      O95254   0.763   0.753   9.025
31671WAT     H195255   0.664   0.761   9.012
31671WAT     H295256   0.795   0.827   9.084
31672WAT      O95257   5.323   4.179   0.778
31672WAT     H195258   5.336   4.089   0.820
31672WAT     H295259   5.234   4.215   0.805
31673WAT      O95260   8.653   1.182   0.858
31673WAT     H195261   8.745   1.219   0.876
31673WAT     H295262   8.595   1.255   0.820
31674WAT      O95263   3.582   3.501   6.704
31674WAT     H195264   3.633   3.537   6.626
31674WAT     H295265   3.647   3.462   6.770
31675WAT      O95266   4.558   3.770   8.382
31675WAT     H195267   4.480   3.749   8.323
31675WAT     H295268   4.552   3.716   8.466
31676WAT      O95269   3.672   8.269   4.163
31676WAT     H195270   3.605   8.342   4.174
31676WAT     H295271   3.697   8.260   4.066
31677WAT      O95272   6.729   2.816   3.421
31677WAT     H195273   6.670   2.735   3.425
31677WAT     H295274   6.774   2.820   3.333
31678WAT      O95275   8.487   2.072   2.610
31678WAT     H195276   8.449   2.164   2.598
31678WAT     H295277   8.576   2.067   2.564
31679WAT      O95278   6.349   5.552   5.013
31679WAT     H195279   6.440   5.537   4.974
31679WAT     H295280   6.297   5.613   4.954
31680WAT      O95281   5.765   5.067   0.500
31680WAT     H195282   5.816   5.087   0.417
31680WAT     H295283   5.669   5.092   0.488
31681WAT      O95284   7.531   1.935   0.999
31681WAT     H195285   7.470   1.991   1.056
31681WAT     H295286   7.618   1.923   1.045
31682WAT      O95287   4.240   7.605   9.493
31682WAT     H195288   4.177   7.681   9.476
31682WAT     H295289   4.332   7.641   9.509
31683WAT      O95290   6.580   8.404   7.678
31683WAT     H195291   6.641   8.326   7.665
31683WAT     H295292   6.634   8.488   7.682
31684WAT      O95293   5.856   6.526   4.432
31684WAT     H195294   5.844   6.472   4.515
31684WAT     H295295   5.812   6.478   4.355
31685WAT      O95296   8.543   1.182   6.731
31685WAT     H195297   8.528   1.084   6.748
31685WAT     H295298   8.561   1.229   6.817
31686WAT      O95299   4.200   1.800   1.325
31686WAT     H195300   4.283   1.856   1.325
31686WAT     H295301   4.169   1.786   1.231
31687WAT      O95302   9.053   2.759   5.257
31687WAT     H195303   9.048   2.858   5.242
31687WAT     H295304   9.070   2.741   5.354
31688WAT      O95305   0.485   2.169   9.548
31688WAT     H195306   0.525   2.190   9.458
31688WAT     H295307   0.540   2.212   9.620
31689WAT      O95308   3.208   8.127   3.019
31689WAT     H195309   3.261   8.066   3.078
31689WAT     H295310   3.147   8.183   3.075
31690WAT      O95311   7.497   0.288   2.054
31690WAT     H195312   7.428   0.270   2.124
31690WAT     H295313   7.455   0.282   1.963
31691WAT      O95314   8.117   8.601   4.210
31691WAT     H195315   8.051   8.620   4.138
31691WAT     H295316   8.210   8.609   4.174
31692WAT      O95317   4.063   7.793   2.481
31692WAT     H195318   4.054   7.867   2.547
31692WAT     H295319   4.156   7.755   2.485
31693WAT      O95320   1.579   3.186   0.765
31693WAT     H195321   1.580   3.267   0.823
31693WAT     H295322   1.633   3.203   0.683
31694WAT      O95323   1.771   1.887   9.583
31694WAT     H195324   1.780   1.961   9.517
31694WAT     H295325   1.811   1.803   9.545
31695WAT      O95326   7.081   2.297   2.342
31695WAT     H195327   7.142   2.331   2.271
31695WAT     H295328   6.999   2.257   2.300
31696WAT      O95329   8.234   5.756   5.590
31696WAT     H195330   8.230   5.829   5.522
31696WAT     H295331   8.291   5.682   5.555
31697WAT      O95332   1.781   6.969   0.299
31697WAT     H195333   1.685   6.971   0.325
31697WAT     H295334   1.837   6.952   0.380
31698WAT      O95335   7.405   7.854   6.055
31698WAT     H195336   7.489   7.843   6.003
31698WAT     H295337   7.399   7.949   6.088
31699WAT      O95338   9.316   0.592   8.494
31699WAT     H195339   9.361   0.615   8.580
31699WAT     H295340   9.277   0.675   8.454
31700WAT      O95341   5.575   5.928   3.015
31700WAT     H195342   5.636   5.858   3.052
31700WAT     H295343   5.495   5.885   2.975
31701WAT      O95344   7.283   2.559   1.939
31701WAT     H195345   7.347   2.492   1.902
31701WAT     H295346   7.330   2.647   1.950
31702WAT      O95347   0.057   0.277   2.662
31702WAT     H195348   0.070   0.183   2.692
31702WAT     H295349   0.144   0.326   2.665
31703WAT      O95350   6.204   3.889   4.251
31703WAT     H195351   6.168   3.980   4.274
31703WAT     H295352   6.304   3.894   4.244
31704WAT      O95353   5.679   1.309   6.584
31704WAT     H195354   5.600   1.254   6.554
31704WAT     H295355   5.702   1.375   6.512
31705WAT      O95356   2.097   0.750   4.385
31705WAT     H195357   2.072   0.749   4.288
31705WAT     H295358   2.144   0.665   4.408
31706WAT      O95359   6.504   1.551   6.190
31706WAT     H195360   6.546   1.617   6.129
31706WAT     H295361   6.451   1.484   6.137
31707WAT      O95362   1.539   3.489   2.210
31707WAT     H195363   1.585   3.443   2.134
31707WAT     H295364   1.519   3.584   2.185
31708WAT      O95365   4.812   9.404   0.358
31708WAT     H195366   4.796   9.441   0.266
31708WAT     H295367   4.793   9.475   0.426
31709WAT      O95368   8.995   7.891   9.578
31709WAT     H195369   8.954   7.886   9.488
31709WAT     H295370   9.094   7.903   9.569
31710WAT      O95371   5.006   6.128   3.555
31710WAT     H195372   5.016   6.160   3.460
31710WAT     H295373   5.077   6.060   3.574
31711WAT      O95374   8.722   8.465   7.674
31711WAT     H195375   8.666   8.383   7.666
31711WAT     H295376   8.781   8.458   7.755
31712WAT      O95377   4.306   5.862   1.932
31712WAT     H195378   4.289   5.915   2.015
31712WAT     H295379   4.358   5.918   1.867
31713WAT      O95380   3.679   7.256   8.324
31713WAT     H195381   3.725   7.170   8.302
31713WAT     H295382   3.596   7.237   8.376
31714WAT      O95383   6.514   5.966   1.747
31714WAT     H195384   6.500   5.925   1.657
31714WAT     H295385   6.449   5.928   1.812
31715WAT      O95386   2.417   8.100   3.324
31715WAT     H195387   2.453   8.022   3.375
31715WAT     H295388   2.493   8.154   3.288
31716WAT      O95389   5.157   7.763   4.142
31716WAT     H195390   5.226   7.750   4.213
31716WAT     H295391   5.082   7.819   4.178
31717WAT      O95392   9.397   1.252   2.864
31717WAT     H195393   9.482   1.200   2.850
31717WAT     H295394   9.403   1.301   2.951
31718WAT      O95395   5.750   2.273   7.080
31718WAT     H195396   5.812   2.246   7.154
31718WAT     H295397   5.803   2.296   6.998
31719WAT      O95398   0.083   9.647   6.460
31719WAT     H195399   0.035   9.600   6.387
31719WAT     H295400   0.034   9.731   6.483
31720WAT      O95401   6.727   7.756   7.290
31720WAT     H195402   6.684   7.801   7.211
31720WAT     H295403   6.826   7.768   7.285
31721WAT      O95404   7.517   7.451   0.301
31721WAT     H195405   7.547   7.433   0.207
31721WAT     H295406   7.431   7.500   0.300
31722WAT      O95407   1.990   7.349   7.749
31722WAT     H195408   2.088   7.331   7.750
31722WAT     H295409   1.941   7.264   7.727
31723WAT      O95410  -0.000   3.043   5.452
31723WAT     H195411   0.021   3.048   5.354
31723WAT     H295412   0.062   3.102   5.502
31724WAT      O95413   8.135   6.184   0.997
31724WAT     H195414   8.110   6.275   1.031
31724WAT     H295415   8.214   6.151   1.048
31725WAT      O95416   2.432   0.145   4.038
31725WAT     H195417   2.386   0.060   4.064
31725WAT     H295418   2.517   0.155   4.091
31726WAT      O95419   1.129   8.857   2.819
31726WAT     H195420   1.182   8.833   2.739
31726WAT     H295421   1.180   8.923   2.875
31727WAT      O95422   3.468   0.360   5.903
31727WAT     H195423   3.419   0.385   5.986
31727WAT     H295424   3.567   0.363   5.921
31728WAT      O95425   2.926   2.601   3.228
31728WAT     H195426   2.957   2.657   3.305
31728WAT     H295427   2.835   2.631   3.199
31729WAT      O95428   1.221   7.653   3.608
31729WAT     H195429   1.252   7.724   3.670
31729WAT     H295430   1.134   7.681   3.566
31730WAT      O95431   9.095   2.749   7.133
31730WAT     H195432   9.094   2.849   7.126
31730WAT     H295433   9.102   2.709   7.042
31731WAT      O95434   6.418   1.695   4.455
31731WAT     H195435   6.365   1.681   4.371
31731WAT     H295436   6.510   1.727   4.432
31732WAT      O95437   9.873   7.773   5.440
31732WAT     H195438   9.881   7.721   5.355
31732WAT     H295439   9.868   7.871   5.419
31733WAT      O95440   7.108   9.169   6.367
31733WAT     H195441   7.046   9.179   6.444
31733WAT     H295442   7.202   9.190   6.395
31734WAT      O95443   1.973   3.239   5.971
31734WAT     H195444   1.932   3.148   5.982
31734WAT     H295445   2.064   3.229   5.933
31735WAT      O95446   9.589   3.024   6.164
31735WAT     H195447   9.541   2.941   6.136
31735WAT     H295448   9.680   3.000   6.197
31736WAT      O95449   8.047   8.999   6.839
31736WAT     H195450   8.107   9.076   6.863
31736WAT     H295451   8.081   8.916   6.883
31737WAT      O95452   7.929   4.959   2.465
31737WAT     H195453   7.918   4.873   2.416
31737WAT     H295454   7.942   4.942   2.563
31738WAT      O95455   3.943   9.405   6.264
31738WAT     H195456   3.936   9.478   6.333
31738WAT     H295457   3.898   9.323   6.298
31739WAT      O95458   1.493   4.931   2.539
31739WAT     H195459   1.470   4.997   2.468
31739WAT     H295460   1.525   4.979   2.620
31740WAT      O95461   6.055   0.718   3.122
31740WAT     H195462   6.099   0.660   3.191
31740WAT     H295463   6.105   0.804   3.114
31741WAT      O95464   7.820   1.307   4.666
31741WAT     H195465   7.815   1.385   4.728
31741WAT     H295466   7.801   1.338   4.573
31742WAT      O95467   8.907   2.603   8.430
31742WAT     H195468   8.990   2.624   8.483
31742WAT     H295469   8.863   2.522   8.469
31743WAT      O95470   7.668   7.710   0.184
31743WAT     H195471   7.642   7.736   0.277
31743WAT     H295472   7.718   7.624   0.186
31744WAT      O95473   8.282   5.879   2.757
31744WAT     H195474   8.185   5.867   2.739
31744WAT     H295475   8.335   5.813   2.703
31745WAT      O95476   8.760   2.063   2.462
31745WAT     H195477   8.756   1.977   2.411
31745WAT     H295478   8.791   2.136   2.401
31746WAT      O95479   9.655   9.422   6.011
31746WAT     H195480   9.565   9.460   6.034
31746WAT     H295481   9.654   9.323   6.028
31747WAT      O95482   4.567   8.470   1.802
31747WAT     H195483   4.591   8.377   1.828
31747WAT     H295484   4.646   8.513   1.756
31748WAT      O95485   0.271   0.786   3.776
31748WAT     H195486   0.177   0.769   3.808
31748WAT     H295487   0.285   0.884   3.764
31749WAT      O95488   1.225   4.801   1.050
31749WAT     H195489   1.254   4.708   1.024
31749WAT     H295490   1.200   4.852   0.967
31750WAT      O95491   5.541   3.840   1.946
31750WAT     H195492   5.620   3.799   1.991
31750WAT     H295493   5.485   3.887   2.014
31751WAT      O95494   5.962   8.008   5.614
31751WAT     H195495   6.017   7.947   5.557
31751WAT     H295496   6.013   8.093   5.629
31752WAT      O95497   6.602   5.859   1.097
31752WAT     H195498   6.534   5.851   1.170
31752WAT     H295499   6.670   5.928   1.122
31753WAT      O95500   4.424   6.250   7.267
31753WAT     H195501   4.338   6.292   7.298
31753WAT     H295502   4.496   6.271   7.333
31754WAT      O95503   4.987   8.994   4.213
31754WAT     H195504   4.992   9.025   4.119
31754WAT     H295505   5.079   8.967   4.244
31755WAT      O95506   5.189   8.338   0.191
31755WAT     H195507   5.274   8.382   0.217
31755WAT     H295508   5.181   8.250   0.237
31756WAT      O95509   7.387   7.393   2.872
31756WAT     H195510   7.289   7.412   2.870
31756WAT     H295511   7.404   7.300   2.839
31757WAT      O95512   4.224   5.270   6.196
31757WAT     H195513   4.301   5.220   6.236
31757WAT     H295514   4.257   5.359   6.163
31758WAT      O95515   0.442   2.903   6.422
31758WAT     H195516   0.426   2.843   6.501
31758WAT     H295517   0.537   2.933   6.422
31759WAT      O95518   0.166   0.261   2.992
31759WAT     H195519   0.158   0.293   2.898
31759WAT     H295520   0.122   0.327   3.053
31760WAT      O95521   4.700   3.774   2.972
31760WAT     H195522   4.660   3.682   2.970
31760WAT     H295523   4.723   3.799   3.066
31761WAT      O95524   6.073   3.876   3.672
31761WAT     H195525   6.033   3.905   3.759
31761WAT     H295526   6.168   3.908   3.666
31762WAT      O95527   9.365   5.677   2.937
31762WAT     H195528   9.274   5.642   2.959
31762WAT     H295529   9.428   5.600   2.925
31763WAT      O95530   7.032   2.489   6.008
31763WAT     H195531   7.127   2.480   5.979
31763WAT     H295532   6.989   2.399   6.008
31764WAT      O95533   2.353   4.144   2.602
31764WAT     H195534   2.333   4.240   2.622
31764WAT     H295535   2.270   4.089   2.615
31765WAT      O95536   4.417   6.167   9.252
31765WAT     H195537   4.367   6.238   9.201
31765WAT     H295538   4.394   6.077   9.215
31766WAT      O95539   5.544   9.316   1.814
31766WAT     H195540   5.447   9.322   1.790
31766WAT     H295541   5.591   9.398   1.781
31767WAT      O95542   9.321   5.690   5.920
31767WAT     H195543   9.307   5.778   5.965
31767WAT     H295544   9.268   5.687   5.835
31768WAT      O95545   9.483   9.685   2.438
31768WAT     H195546   9.556   9.686   2.507
31768WAT     H295547   9.398   9.654   2.480
31769WAT      O95548   6.977   1.889   0.574
31769WAT     H195549   7.066   1.854   0.605
31769WAT     H295550   6.943   1.956   0.640
31770WAT      O95551   5.828   4.986   4.244
31770WAT     H195552   5.768   4.908   4.226
31770WAT     H295553   5.895   4.960   4.314
31771WAT      O95554   3.331   4.349   3.715
31771WAT     H195555   3.245   4.325   3.668
31771WAT     H295556   3.322   4.330   3.812
31772WAT      O95557   5.648   1.245   9.534
31772WAT     H195558   5.705   1.311   9.486
31772WAT     H295559   5.631   1.166   9.475
31773WAT      O95560   4.061   1.566   4.381
31773WAT     H195561   4.152   1.537   4.412
31773WAT     H295562   3.992   1.531   4.445
31774WAT      O95563   6.332   4.787   9.384
31774WAT     H195564   6.292   4.768   9.294
31774WAT     H295565   6.357   4.884   9.389
31775WAT      O95566   6.660   6.233   8.219
31775WAT     H195567   6.719   6.314   8.225
31775WAT     H295568   6.677   6.174   8.298
31776WAT      O95569   5.496   7.642   5.384
31776WAT     H195570   5.411   7.592   5.367
31776WAT     H295571   5.555   7.588   5.444
31777WAT      O95572   0.295   2.185   0.428
31777WAT     H195573   0.331   2.093   0.445
31777WAT     H295574   0.276   2.229   0.516
31778WAT      O95575   1.319   5.833   4.876
31778WAT     H195576   1.362   5.859   4.790
31778WAT     H295577   1.382   5.777   4.930
31779WAT      O95578   4.770   6.730   1.782
31779WAT     H195579   4.727   6.699   1.867
31779WAT     H295580   4.865   6.756   1.800
31780WAT      O95581   2.627   4.273   0.744
31780WAT     H195582   2.594   4.189   0.788
31780WAT     H295583   2.726   4.280   0.758
31781WAT      O95584   4.547   4.791   4.664
31781WAT     H195585   4.585   4.850   4.592
31781WAT     H295586   4.585   4.699   4.655
31782WAT      O95587   6.738   5.859   9.148
31782WAT     H195588   6.715   5.762   9.152
31782WAT     H295589   6.789   5.877   9.063
31783WAT      O95590   8.257   8.910   2.276
31783WAT     H195591   8.166   8.869   2.275
31783WAT     H295592   8.275   8.946   2.368
31784WAT      O95593   8.457   5.923   9.094
31784WAT     H195594   8.390   5.873   9.148
31784WAT     H295595   8.542   5.933   9.147
31785WAT      O95596   5.283   6.022   4.006
31785WAT     H195597   5.214   6.013   4.077
31785WAT     H295598   5.334   5.936   3.998
31786WAT      O95599   7.441   8.027   2.902
31786WAT     H195600   7.433   7.941   2.852
31786WAT     H295601   7.391   8.099   2.853
31787WAT      O95602   1.259   5.751   0.895
31787WAT     H195603   1.224   5.833   0.940
31787WAT     H295604   1.251   5.673   0.957
31788WAT      O95605   1.421   3.092   4.372
31788WAT     H195606   1.383   3.006   4.339
31788WAT     H295607   1.347   3.153   4.401
31789WAT      O95608   7.327   0.870   8.399
31789WAT     H195609   7.253   0.815   8.360
31789WAT     H295610   7.415   0.829   8.375
31790WAT      O95611   8.363   9.143   1.110
31790WAT     H195612   8.452   9.136   1.066
31790WAT     H295613   8.309   9.062   1.088
31791WAT      O95614   6.660   9.126   5.840
31791WAT     H195615   6.562   9.107   5.829
31791WAT     H295616   6.709   9.041   5.858
31792WAT      O95617   5.113   7.663   1.409
31792WAT     H195618   5.025   7.651   1.363
31792WAT     H295619   5.166   7.579   1.401
31793WAT      O95620   7.282   2.714   9.316
31793WAT     H195621   7.364   2.661   9.339
31793WAT     H295622   7.296   2.810   9.343
31794WAT      O95623   0.480   4.199   1.047
31794WAT     H195624   0.461   4.239   1.136
31794WAT     H295625   0.493   4.272   0.980
31795WAT      O95626   6.398   9.185   3.847
31795WAT     H195627   6.324   9.207   3.910
31795WAT     H295628   6.486   9.210   3.888
31796WAT      O95629   5.966   7.632   1.933
31796WAT     H195630   5.978   7.709   1.871
31796WAT     H295631   5.956   7.665   2.027
31797WAT      O95632   1.250   9.640   5.212
31797WAT     H195633   1.212   9.721   5.256
31797WAT     H295634   1.220   9.558   5.261
31798WAT      O95635   2.739   3.232   9.563
31798WAT     H195636   2.743   3.183   9.475
31798WAT     H295637   2.651   3.280   9.569
31799WAT      O95638   0.175   8.527   1.013
31799WAT     H195639   0.112   8.491   0.945
31799WAT     H295640   0.126   8.587   1.076
31800WAT      O95641   7.861   7.875   7.987
31800WAT     H195642   7.817   7.964   7.976
31800WAT     H295643   7.944   7.886   8.042
31801WAT      O95644   3.058   9.762   8.544
31801WAT     H195645   2.982   9.784   8.482
31801WAT     H295646   3.027   9.773   8.639
31802WAT      O95647   1.916   1.146   0.768
31802WAT     H195648   1.897   1.055   0.731
31802WAT     H295649   1.941   1.138   0.865
31803WAT      O95650   4.120   9.241   4.830
31803WAT     H195651   4.028   9.279   4.830
31803WAT     H295652   4.170   9.274   4.910
31804WAT      O95653   0.945   0.879   7.971
31804WAT     H195654   0.947   0.930   8.058
31804WAT     H295655   0.850   0.864   7.944
31805WAT      O95656   3.657   8.449   3.807
31805WAT     H195657   3.615   8.474   3.719
31805WAT     H295658   3.674   8.532   3.860
31806WAT      O95659   0.451   9.406   0.745
31806WAT     H195660   0.423   9.423   0.839
31806WAT     H295661   0.445   9.308   0.725
31807WAT      O95662   9.619   2.219   4.567
31807WAT     H195663   9.632   2.232   4.666
31807WAT     H295664   9.673   2.287   4.517
31808WAT      O95665   4.553   0.061   4.078
31808WAT     H195666   4.516   0.016   4.159
31808WAT     H295667   4.632   0.116   4.103
31809WAT      O95668   0.175   4.784   4.391
31809WAT     H195669   0.246   4.804   4.322
31809WAT     H295670   0.216   4.786   4.482
31810WAT      O95671   1.475   0.212   4.711
31810WAT     H195672   1.459   0.201   4.613
31810WAT     H295673   1.563   0.170   4.735
31811WAT      O95674   6.762   8.278   5.539
31811WAT     H195675   6.816   8.196   5.520
31811WAT     H295676   6.741   8.325   5.453
31812WAT      O95677   7.353   4.731   6.000
31812WAT     H195678   7.281   4.736   6.069
31812WAT     H295679   7.311   4.720   5.910
31813WAT      O95680   0.696   6.933   1.635
31813WAT     H195681   0.763   7.007   1.633
31813WAT     H295682   0.605   6.972   1.652
31814WAT      O95683   0.753   8.622   8.156
31814WAT     H195684   0.787   8.556   8.089
31814WAT     H295685   0.800   8.710   8.142
31815WAT      O95686   6.385   2.366   9.201
31815WAT     H195687   6.466   2.424   9.208
31815WAT     H295688   6.398   2.283   9.256
31816WAT      O95689   0.441   4.324   7.193
31816WAT     H195690   0.522   4.309   7.248
31816WAT     H295691   0.451   4.409   7.141
31817WAT      O95692   9.043   4.726   7.242
31817WAT     H195693   9.100   4.739   7.161
31817WAT     H295694   9.083   4.774   7.319
31818WAT      O95695   9.868   7.957   8.158
31818WAT     H195696   9.898   8.014   8.081
31818WAT     H295697   9.851   8.015   8.238
31819WAT      O95698   4.346   1.122   0.674
31819WAT     H195699   4.378   1.048   0.614
31819WAT     H295700   4.421   1.187   0.689
31820WAT      O95701   3.238   5.435   3.767
31820WAT     H195702   3.199   5.527   3.773
31820WAT     H295703   3.184   5.381   3.703
31821WAT      O95704   1.670   8.575   4.368
31821WAT     H195705   1.588   8.523   4.345
31821WAT     H295706   1.751   8.520   4.347
31822WAT      O95707   4.492   3.559   1.317
31822WAT     H195708   4.526   3.519   1.232
31822WAT     H295709   4.469   3.655   1.302
31823WAT      O95710   0.730   5.542   6.776
31823WAT     H195711   0.780   5.509   6.856
31823WAT     H295712   0.752   5.638   6.760
31824WAT      O95713   8.451   3.534   8.762
31824WAT     H195714   8.452   3.518   8.861
31824WAT     H295715   8.450   3.632   8.744
31825WAT      O95716   7.694   0.469   7.156
31825WAT     H195717   7.710   0.373   7.180
31825WAT     H295718   7.732   0.528   7.227
31826WAT      O95719   7.842   9.338   1.058
31826WAT     H195720   7.792   9.355   0.973
31826WAT     H295721   7.891   9.421   1.085
31827WAT      O95722   8.375   8.887   9.803
31827WAT     H195723   8.420   8.901   9.714
31827WAT     H295724   8.356   8.789   9.815
31828WAT      O95725   6.849   7.517   4.843
31828WAT     H195726   6.859   7.492   4.940
31828WAT     H295727   6.879   7.612   4.830
31829WAT      O95728   3.721   8.961   0.990
31829WAT     H195729   3.666   9.033   0.948
31829WAT     H295730   3.738   8.983   1.086
31830WAT      O95731   5.750   4.505   7.577
31830WAT     H195732   5.801   4.454   7.645
31830WAT     H295733   5.675   4.555   7.621
31831WAT      O95734   3.281   2.228   4.961
31831WAT     H195735   3.199   2.177   4.987
31831WAT     H295736   3.260   2.290   4.886
31832WAT      O95737   2.510   2.634   0.691
31832WAT     H195738   2.528   2.538   0.673
31832WAT     H295739   2.571   2.690   0.635
31833WAT      O95740   9.606   6.018   3.430
31833WAT     H195741   9.512   6.023   3.462
31833WAT     H295742   9.620   6.085   3.356
31834WAT      O95743   1.735   2.428   1.207
31834WAT     H195744   1.642   2.440   1.173
31834WAT     H295745   1.794   2.498   1.168
31835WAT      O95746   1.255   5.411   2.738
31835WAT     H195747   1.224   5.340   2.801
31835WAT     H295748   1.272   5.370   2.648
31836WAT      O95749   7.321   7.586   8.851
31836WAT     H195750   7.233   7.585   8.898
31836WAT     H295751   7.373   7.504   8.875
31837WAT      O95752   7.272   2.726   7.790
31837WAT     H195753   7.348   2.786   7.812
31837WAT     H295754   7.276   2.701   7.693
31838WAT      O95755   3.696   1.232   1.946
31838WAT     H195756   3.627   1.276   1.889
31838WAT     H295757   3.748   1.303   1.995
31839WAT      O95758   3.753   7.664   6.514
31839WAT     H195759   3.849   7.636   6.516
31839WAT     H295760   3.712   7.645   6.603
31840WAT      O95761   4.665   3.531   8.256
31840WAT     H195762   4.671   3.593   8.334
31840WAT     H295763   4.742   3.548   8.194
31841WAT      O95764   5.219   0.405   2.316
31841WAT     H195765   5.264   0.488   2.283
31841WAT     H295766   5.227   0.400   2.416
31842WAT      O95767   5.747   9.817   0.329
31842WAT     H195768   5.776   9.866   0.246
31842WAT     H295769   5.713   9.727   0.303
31843WAT      O95770   9.170   3.331   3.310
31843WAT     H195771   9.146   3.407   3.370
31843WAT     H295772   9.166   3.361   3.215
31844WAT      O95773   3.171   9.411   2.064
31844WAT     H195774   3.260   9.432   2.103
31844WAT     H295775   3.182   9.371   1.973
31845WAT      O95776   9.660   1.277   8.984
31845WAT     H195777   9.599   1.323   9.049
31845WAT     H295778   9.754   1.307   9.001
31846WAT      O95779   4.789   0.687   1.364
31846WAT     H195780   4.861   0.681   1.433
31846WAT     H295781   4.702   0.707   1.409
31847WAT      O95782   1.179   7.297   0.222
31847WAT     H195783   1.132   7.382   0.244
31847WAT     H295784   1.129   7.250   0.149
31848WAT      O95785   0.903   1.760   9.266
31848WAT     H195786   0.834   1.807   9.322
31848WAT     H295787   0.878   1.663   9.258
31849WAT      O95788   9.801   4.697   2.710
31849WAT     H195789   9.753   4.698   2.798
31849WAT     H295790   9.858   4.779   2.703
31850WAT      O95791   3.766   5.232   3.758
31850WAT     H195792   3.791   5.136   3.774
31850WAT     H295793   3.667   5.242   3.770
31851WAT      O95794   3.840   7.486   5.086
31851WAT     H195795   3.887   7.510   5.001
31851WAT     H295796   3.741   7.490   5.071
31852WAT      O95797   4.545   6.583   7.730
31852WAT     H195798   4.558   6.682   7.741
31852WAT     H295799   4.466   6.567   7.671
31853WAT      O95800   9.786   4.539   0.509
31853WAT     H195801   9.761   4.492   0.425
31853WAT     H295802   9.708   4.540   0.572
31854WAT      O95803   9.473   0.798   3.531
31854WAT     H195804   9.388   0.799   3.478
31854WAT     H295805   9.545   0.754   3.477
31855WAT      O95806   0.402   3.926   7.822
31855WAT     H195807   0.475   3.858   7.826
31855WAT     H295808   0.336   3.900   7.751
31856WAT      O95809   3.204   2.079   0.064
31856WAT     H195810   3.273   2.151   0.057
31856WAT     H295811   3.244   2.000   0.111
31857WAT      O95812   4.957   7.185   4.434
31857WAT     H195813   4.939   7.284   4.434
31857WAT     H295814   5.019   7.162   4.509
31858WAT      O95815   7.035   0.979   5.333
31858WAT     H195816   7.024   0.906   5.400
31858WAT     H295817   7.054   0.940   5.243
31859WAT      O95818   0.364   1.641   3.783
31859WAT     H195819   0.459   1.619   3.808
31859WAT     H295820   0.329   1.710   3.846
31860WAT      O95821   0.025   4.225   1.806
31860WAT     H195822   0.047   4.275   1.722
31860WAT     H295823  -0.035   4.280   1.864
31861WAT      O95824   2.237   3.112   8.558
31861WAT     H195825   2.277   3.029   8.596
31861WAT     H295826   2.279   3.131   8.469
31862WAT      O95827   8.227   5.832   3.847
31862WAT     H195828   8.180   5.879   3.772
31862WAT     H295829   8.203   5.876   3.934
31863WAT      O95830   4.923   5.986   3.918
31863WAT     H195831   4.929   5.929   3.836
31863WAT     H295832   4.963   6.075   3.901
31864WAT      O95833   6.621   7.138   4.824
31864WAT     H195834   6.639   7.093   4.912
31864WAT     H295835   6.671   7.089   4.752
31865WAT      O95836   2.787   8.577   7.799
31865WAT     H195837   2.738   8.509   7.854
31865WAT     H295838   2.886   8.558   7.802
31866WAT      O95839   3.211   5.138   3.440
31866WAT     H195840   3.268   5.071   3.393
31866WAT     H295841   3.127   5.152   3.389
31867WAT      O95842   8.195   7.933   4.356
31867WAT     H195843   8.164   8.027   4.373
31867WAT     H295844   8.121   7.869   4.378
31868WAT      O95845   7.146   6.640   2.818
31868WAT     H195846   7.061   6.674   2.857
31868WAT     H295847   7.134   6.624   2.720
31869WAT      O95848   3.731   8.622   3.483
31869WAT     H195849   3.648   8.597   3.531
31869WAT     H295850   3.722   8.715   3.447
31870WAT      O95851   3.256   3.239   1.271
31870WAT     H195852   3.231   3.334   1.288
31870WAT     H295853   3.344   3.236   1.223
31871WAT      O95854   6.087   6.472   3.472
31871WAT     H195855   6.156   6.538   3.441
31871WAT     H295856   5.997   6.514   3.468
31872WAT      O95857   8.794   7.377   3.603
31872WAT     H195858   8.775   7.287   3.642
31872WAT     H295859   8.893   7.392   3.601
31873WAT      O95860   8.379   6.406   1.549
31873WAT     H195861   8.296   6.381   1.599
31873WAT     H295862   8.362   6.399   1.451
31874WAT      O95863   9.625   5.906   7.238
31874WAT     H195864   9.552   5.838   7.228
31874WAT     H295865   9.654   5.910   7.333
31875WAT      O95866   8.474   0.276   3.930
31875WAT     H195867   8.400   0.323   3.977
31875WAT     H295868   8.437   0.219   3.857
31876WAT      O95869   4.890   0.740   5.117
31876WAT     H195870   4.955   0.809   5.086
31876WAT     H295871   4.937   0.653   5.132
31877WAT      O95872   3.079   7.274   4.094
31877WAT     H195873   3.043   7.338   4.026
31877WAT     H295874   3.154   7.222   4.054
31878WAT      O95875   1.140   2.576   6.257
31878WAT     H195876   1.105   2.629   6.180
31878WAT     H295877   1.098   2.486   6.258
31879WAT      O95878   7.460   6.245   4.578
31879WAT     H195879   7.522   6.180   4.622
31879WAT     H295880   7.404   6.290   4.647
31880WAT      O95881   6.653   9.711   7.537
31880WAT     H195882   6.643   9.649   7.615
31880WAT     H295883   6.663   9.657   7.453
31881WAT      O95884   7.214   2.242   2.565
31881WAT     H195885   7.191   2.269   2.471
31881WAT     H295886   7.265   2.316   2.609
31882WAT      O95887   5.503   6.441   9.837
31882WAT     H195888   5.538   6.518   9.783
31882WAT     H295889   5.570   6.367   9.837
31883WAT      O95890   3.583   7.709   9.281
31883WAT     H195891   3.565   7.629   9.223
31883WAT     H295892   3.558   7.792   9.231
31884WAT      O95893   6.664   9.441   0.407
31884WAT     H195894   6.573   9.479   0.393
31884WAT     H295895   6.689   9.384   0.328
31885WAT      O95896   6.624   1.074   0.435
31885WAT     H195897   6.678   1.146   0.480
31885WAT     H295898   6.682   1.026   0.368
31886WAT      O95899   5.525   6.209   7.521
31886WAT     H195900   5.557   6.188   7.614
31886WAT     H295901   5.484   6.300   7.520
31887WAT      O95902   9.459   6.948   6.522
31887WAT     H195903   9.449   6.853   6.553
31887WAT     H295904   9.426   7.010   6.593
31888WAT      O95905   4.718   8.107   3.577
31888WAT     H195906   4.699   8.113   3.479
31888WAT     H295907   4.649   8.157   3.628
31889WAT      O95908   4.596   0.225   9.188
31889WAT     H195909   4.637   0.287   9.122
31889WAT     H295910   4.519   0.177   9.145
31890WAT      O95911   7.935   8.857   6.599
31890WAT     H195912   7.994   8.889   6.674
31890WAT     H295913   7.946   8.759   6.588
31891WAT      O95914   8.111   4.838   7.215
31891WAT     H195915   8.200   4.811   7.177
31891WAT     H295916   8.123   4.867   7.310
31892WAT      O95917   4.301   9.470   7.791
31892WAT     H195918   4.298   9.382   7.743
31892WAT     H295919   4.208   9.504   7.804
31893WAT      O95920   5.111   1.873   5.702
31893WAT     H195921   5.117   1.925   5.787
31893WAT     H295922   5.050   1.921   5.638
31894WAT      O95923   4.050   2.646   6.843
31894WAT     H195924   3.990   2.724   6.854
31894WAT     H295925   3.996   2.565   6.818
31895WAT      O95926   3.071   1.849   1.454
31895WAT     H195927   3.025   1.937   1.466
31895WAT     H295928   3.133   1.854   1.375
31896WAT      O95929   6.793   9.556   5.709
31896WAT     H195930   6.700   9.533   5.683
31896WAT     H295931   6.843   9.589   5.629
31897WAT      O95932   5.620   1.713   9.606
31897WAT     H195933   5.666   1.655   9.673
31897WAT     H295934   5.660   1.804   9.609
31898WAT      O95935   8.125   6.513   4.870
31898WAT     H195936   8.143   6.610   4.882
31898WAT     H295937   8.098   6.473   4.958
31899WAT      O95938   2.557   0.484   3.530
31899WAT     H195939   2.566   0.408   3.466
31899WAT     H295940   2.625   0.554   3.508
   9.88928    9.84380    9.89279 
