GROningen MAchine for Chemical Simulation
95940
    1G5    HO5'    1   7.065   5.889   6.354
    1G5     O5'    2   7.113   5.820   6.400
    1G5     C5'    3   7.232   5.797   6.327
    1G5     H5'    4   7.284   5.892   6.310
    1G5    H5''    5   7.213   5.758   6.228
    1G5     C4'    6   7.324   5.701   6.386
    1G5     H4'    7   7.386   5.677   6.299
    1G5     O4'    8   7.402   5.760   6.485
    1G5     C1'    9   7.395   5.678   6.609
    1G5     H1'   10   7.476   5.672   6.680
    1G5      N9   11   7.290   5.738   6.703
    1G5      C8   12   7.237   5.864   6.701
    1G5      H8   13   7.277   5.943   6.640
    1G5      N7   14   7.145   5.885   6.796
    1G5      C5   15   7.139   5.763   6.864
    1G5      C6   16   7.061   5.722   6.979
    1G5      O6   17   6.969   5.780   7.040
    1G5      N1   18   7.096   5.598   7.016
    1G5      H1   19   7.052   5.564   7.100
    1G5      C2   20   7.191   5.520   6.971
    1G5      N2   21   7.220   5.410   7.034
    1G5     H21   22   7.156   5.384   7.108
    1G5     H22   23   7.284   5.344   6.993
    1G5      N3   24   7.261   5.552   6.866
    1G5      C4   25   7.239   5.674   6.815
    1G5     C3'   26   7.264   5.574   6.440
    1G5     H3'   27   7.163   5.583   6.478
    1G5     C2'   28   7.354   5.537   6.558
    1G5     H2'   29   7.299   5.473   6.627
    1G5     O2'   30   7.478   5.478   6.517
    1G5    HO2'   31   7.456   5.410   6.453
    1G5     O3'   32   7.271   5.469   6.345
    2G        P   33   7.137   5.395   6.297
    2G      OP1   34   7.182   5.308   6.189
    2G      OP2   35   7.041   5.499   6.257
    2G      O5'   36   7.078   5.321   6.426
    2G      C5'   37   7.142   5.206   6.474
    2G      H5'   38   7.244   5.225   6.507
    2G     H5''   39   7.141   5.124   6.402
    2G      C4'   40   7.069   5.153   6.603
    2G      H4'   41   7.091   5.049   6.631
    2G      O4'   42   7.102   5.232   6.721
    2G      C1'   43   6.974   5.247   6.789
    2G      H1'   44   6.987   5.222   6.894
    2G       N9   45   6.927   5.389   6.781
    2G       C8   46   6.973   5.490   6.704
    2G       H8   47   7.054   5.490   6.633
    2G       N7   48   6.915   5.602   6.725
    2G       C5   49   6.808   5.567   6.799
    2G       C6   50   6.700   5.643   6.853
    2G       O6   51   6.663   5.750   6.821
    2G       N1   52   6.624   5.584   6.948
    2G       H1   53   6.541   5.637   6.970
    2G       C2   54   6.636   5.455   6.972
    2G       N2   55   6.546   5.402   7.047
    2G      H21   56   6.462   5.454   7.065
    2G      H22   57   6.547   5.302   7.063
    2G       N3   58   6.733   5.373   6.929
    2G       C4   59   6.817   5.440   6.841
    2G      C3'   60   6.919   5.154   6.579
    2G      H3'   61   6.870   5.239   6.531
    2G      C2'   62   6.869   5.159   6.725
    2G      H2'   63   6.767   5.196   6.727
    2G      O2'   64   6.869   5.038   6.785
    2G     HO2'   65   6.826   4.981   6.720
    2G      O3'   66   6.868   5.034   6.522
    3G        P   67   6.746   5.041   6.423
    3G      OP1   68   6.721   4.908   6.375
    3G      OP2   69   6.772   5.144   6.316
    3G      O5'   70   6.620   5.082   6.516
    3G      C5'   71   6.551   5.001   6.609
    3G      H5'   72   6.625   4.969   6.682
    3G     H5''   73   6.508   4.914   6.559
    3G      C4'   74   6.437   5.070   6.684
    3G      H4'   75   6.395   5.009   6.764
    3G      O4'   76   6.489   5.190   6.743
    3G      C1'   77   6.408   5.303   6.708
    3G      H1'   78   6.369   5.352   6.797
    3G       N9   79   6.488   5.406   6.637
    3G       C8   80   6.593   5.399   6.547
    3G       H8   81   6.641   5.307   6.518
    3G       N7   82   6.632   5.509   6.494
    3G       C5   83   6.551   5.604   6.561
    3G       C6   84   6.548   5.744   6.555
    3G       O6   85   6.619   5.825   6.499
    3G       N1   86   6.444   5.797   6.630
    3G       H1   87   6.410   5.891   6.617
    3G       C2   88   6.372   5.726   6.716
    3G       N2   89   6.288   5.798   6.787
    3G      H21   90   6.256   5.887   6.750
    3G      H22   91   6.220   5.742   6.836
    3G       N3   92   6.378   5.598   6.733
    3G       C4   93   6.459   5.535   6.642
    3G      C3'   94   6.332   5.108   6.588
    3G      H3'   95   6.380   5.129   6.492
    3G      C2'   96   6.288   5.251   6.627
    3G      H2'   97   6.273   5.318   6.542
    3G      O2'   98   6.173   5.258   6.704
    3G     HO2'   99   6.106   5.212   6.652
    3G      O3'  100   6.220   5.020   6.567
    4U        P  101   6.120   5.035   6.445
    4U      OP1  102   6.055   4.898   6.435
    4U      OP2  103   6.190   5.094   6.327
    4U      O5'  104   6.018   5.149   6.492
    4U      C5'  105   5.899   5.112   6.565
    4U      H5'  106   5.923   5.064   6.660
    4U     H5''  107   5.841   5.037   6.512
    4U      C4'  108   5.816   5.235   6.601
    4U      H4'  109   5.729   5.198   6.657
    4U      O4'  110   5.898   5.326   6.660
    4U      C1'  111   5.848   5.455   6.623
    4U      H1'  112   5.793   5.495   6.708
    4U       N1  113   5.960   5.545   6.586
    4U       C6  114   6.037   5.510   6.475
    4U       H6  115   6.048   5.408   6.442
    4U       C5  116   6.130   5.597   6.427
    4U       H5  117   6.194   5.577   6.342
    4U       C4  118   6.147   5.728   6.474
    4U       O4  119   6.223   5.813   6.424
    4U       N3  120   6.063   5.754   6.585
    4U       H3  121   6.038   5.851   6.598
    4U       C2  122   5.972   5.671   6.636
    4U       O2  123   5.892   5.715   6.724
    4U      C3'  124   5.770   5.302   6.475
    4U      H3'  125   5.854   5.316   6.408
    4U      C2'  126   5.743   5.447   6.516
    4U      H2'  127   5.756   5.516   6.432
    4U      O2'  128   5.619   5.464   6.589
    4U     HO2'  129   5.594   5.556   6.577
    4U      O3'  130   5.662   5.237   6.416
    5U        P  131   5.662   5.213   6.254
    5U      OP1  132   5.538   5.137   6.237
    5U      OP2  133   5.789   5.160   6.199
    5U      O5'  134   5.629   5.367   6.210
    5U      C5'  135   5.508   5.431   6.236
    5U      H5'  136   5.496   5.430   6.344
    5U     H5''  137   5.423   5.384   6.187
    5U      C4'  138   5.513   5.583   6.205
    5U      H4'  139   5.418   5.610   6.251
    5U      O4'  140   5.622   5.646   6.272
    5U      C1'  141   5.659   5.757   6.191
    5U      H1'  142   5.663   5.852   6.242
    5U       N1  143   5.805   5.735   6.145
    5U       C6  144   5.872   5.628   6.184
    5U       H6  145   5.826   5.553   6.247
    5U       C5  146   5.995   5.600   6.136
    5U       H5  147   6.042   5.506   6.161
    5U       C4  148   6.070   5.709   6.072
    5U       O4  149   6.192   5.712   6.042
    5U       N3  150   6.003   5.824   6.039
    5U       H3  151   6.056   5.900   6.000
    5U       C2  152   5.872   5.843   6.084
    5U       O2  153   5.823   5.953   6.068
    5U      C3'  154   5.523   5.618   6.062
    5U      H3'  155   5.605   5.571   6.008
    5U      C2'  156   5.559   5.764   6.082
    5U      H2'  157   5.600   5.806   5.990
    5U      O2'  158   5.454   5.849   6.126
    5U     HO2'  159   5.372   5.836   6.078
    5U      O3'  160   5.399   5.605   6.001
    6A        P  161   5.382   5.576   5.855
    6A      OP1  162   5.234   5.582   5.822
    6A      OP2  163   5.458   5.455   5.826
    6A      O5'  164   5.463   5.698   5.783
    6A      C5'  165   5.405   5.826   5.760
    6A      H5'  166   5.365   5.863   5.854
    6A     H5''  167   5.329   5.817   5.683
    6A      C4'  168   5.510   5.915   5.707
    6A      H4'  169   5.477   6.018   5.691
    6A      O4'  170   5.626   5.925   5.790
    6A      C1'  171   5.743   5.948   5.711
    6A      H1'  172   5.786   6.046   5.735
    6A       N9  173   5.844   5.842   5.727
    6A       C8  174   5.832   5.719   5.792
    6A       H8  175   5.745   5.681   5.844
    6A       N7  176   5.934   5.644   5.793
    6A       C5  177   6.021   5.712   5.703
    6A       C6  178   6.138   5.680   5.634
    6A       N6  179   6.198   5.565   5.656
    6A      H61  180   6.291   5.549   5.619
    6A      H62  181   6.162   5.505   5.729
    6A       N1  182   6.200   5.755   5.547
    6A       C2  183   6.145   5.871   5.530
    6A       H2  184   6.201   5.938   5.467
    6A       N3  185   6.031   5.925   5.581
    6A       C4  186   5.965   5.836   5.662
    6A      C3'  187   5.570   5.865   5.580
    6A      H3'  188   5.597   5.759   5.577
    6A      C2'  189   5.698   5.954   5.565
    6A      H2'  190   5.774   5.906   5.504
    6A      O2'  191   5.682   6.086   5.528
    6A     HO2'  192   5.601   6.091   5.476
    6A      O3'  193   5.481   5.909   5.474
    7G        P  194   5.436   5.795   5.367
    7G      OP1  195   5.339   5.852   5.272
    7G      OP2  196   5.398   5.673   5.446
    7G      O5'  197   5.572   5.749   5.292
    7G      C5'  198   5.645   5.849   5.215
    7G      H5'  199   5.643   5.951   5.253
    7G     H5''  200   5.597   5.847   5.117
    7G      C4'  201   5.793   5.815   5.190
    7G      H4'  202   5.836   5.898   5.133
    7G      O4'  203   5.859   5.784   5.308
    7G      C1'  204   5.966   5.696   5.272
    7G      H1'  205   6.055   5.750   5.304
    7G       N9  206   5.957   5.571   5.347
    7G       C8  207   5.864   5.534   5.446
    7G       H8  208   5.781   5.597   5.474
    7G       N7  209   5.893   5.419   5.508
    7G       C5  210   6.010   5.380   5.447
    7G       C6  211   6.095   5.269   5.468
    7G       O6  212   6.077   5.177   5.551
    7G       N1  213   6.208   5.267   5.395
    7G       H1  214   6.257   5.179   5.395
    7G       C2  215   6.240   5.359   5.301
    7G       N2  216   6.339   5.329   5.224
    7G      H21  217   6.391   5.242   5.228
    7G      H22  218   6.375   5.399   5.161
    7G       N3  219   6.164   5.463   5.273
    7G       C4  220   6.054   5.472   5.356
    7G      C3'  221   5.808   5.696   5.096
    7G      H3'  222   5.748   5.612   5.131
    7G      C2'  223   5.963   5.681   5.125
    7G      H2'  224   5.994   5.580   5.100
    7G      O2'  225   6.042   5.784   5.063
    7G     HO2'  226   6.011   5.785   4.972
    7G      O3'  227   5.791   5.727   4.961
    8G        P  228   5.743   5.617   4.855
    8G      OP1  229   5.726   5.686   4.726
    8G      OP2  230   5.623   5.547   4.910
    8G      O5'  231   5.854   5.515   4.838
    8G      C5'  232   5.964   5.528   4.744
    8G      H5'  233   6.000   5.630   4.750
    8G     H5''  234   5.908   5.516   4.651
    8G      C4'  235   6.071   5.426   4.756
    8G      H4'  236   6.150   5.464   4.692
    8G      O4'  237   6.118   5.410   4.890
    8G      C1'  238   6.128   5.272   4.924
    8G      H1'  239   6.224   5.246   4.968
    8G       N9  240   6.024   5.229   5.022
    8G       C8  241   5.923   5.308   5.077
    8G       H8  242   5.904   5.401   5.026
    8G       N7  243   5.862   5.271   5.185
    8G       C5  244   5.919   5.146   5.207
    8G       C6  245   5.887   5.043   5.307
    8G       O6  246   5.810   5.048   5.404
    8G       N1  247   5.953   4.934   5.285
    8G       H1  248   5.940   4.868   5.360
    8G       C2  249   6.044   4.916   5.188
    8G       N2  250   6.091   4.793   5.170
    8G      H21  251   6.060   4.726   5.240
    8G      H22  252   6.150   4.766   5.093
    8G       N3  253   6.083   5.002   5.094
    8G       C4  254   6.013   5.119   5.108
    8G      C3'  255   6.023   5.285   4.706
    8G      H3'  256   5.924   5.271   4.749
    8G      C2'  257   6.121   5.199   4.790
    8G      H2'  258   6.082   5.098   4.802
    8G      O2'  259   6.252   5.180   4.735
    8G     HO2'  260   6.248   5.112   4.668
    8G      O3'  261   6.035   5.272   4.565
    9G        P  262   5.909   5.200   4.484
    9G      OP1  263   5.957   5.172   4.347
    9G      OP2  264   5.781   5.262   4.501
    9G      O5'  265   5.899   5.060   4.565
    9G      C5'  266   5.992   4.953   4.534
    9G      H5'  267   6.093   4.996   4.538
    9G     H5''  268   5.978   4.911   4.435
    9G      C4'  269   5.969   4.834   4.635
    9G      H4'  270   6.027   4.745   4.608
    9G      O4'  271   5.987   4.862   4.774
    9G      C1'  272   5.897   4.783   4.851
    9G      H1'  273   5.941   4.719   4.927
    9G       N9  274   5.815   4.884   4.911
    9G       C8  275   5.791   5.016   4.871
    9G       H8  276   5.834   5.055   4.779
    9G       N7  277   5.719   5.086   4.955
    9G       C5  278   5.678   4.992   5.052
    9G       C6  279   5.602   5.011   5.172
    9G       O6  280   5.548   5.114   5.214
    9G       N1  281   5.591   4.893   5.245
    9G       H1  282   5.535   4.894   5.329
    9G       C2  283   5.650   4.778   5.203
    9G       N2  284   5.623   4.670   5.273
    9G      H21  285   5.565   4.655   5.355
    9G      H22  286   5.666   4.584   5.242
    9G       N3  287   5.710   4.752   5.083
    9G       C4  288   5.722   4.865   5.013
    9G      C3'  289   5.825   4.791   4.618
    9G      H3'  290   5.764   4.881   4.625
    9G      C2'  291   5.812   4.704   4.748
    9G      H2'  292   5.705   4.705   4.766
    9G      O2'  293   5.861   4.573   4.722
    9G     HO2'  294   5.829   4.548   4.635
    9G      O3'  295   5.807   4.729   4.491
   10U        P  296   5.668   4.728   4.418
   10U      OP1  297   5.687   4.669   4.280
   10U      OP2  298   5.599   4.860   4.429
   10U      O5'  299   5.584   4.632   4.509
   10U      C5'  300   5.613   4.490   4.525
   10U      H5'  301   5.719   4.476   4.545
   10U     H5''  302   5.589   4.441   4.431
   10U      C4'  303   5.522   4.426   4.635
   10U      H4'  304   5.546   4.319   4.635
   10U      O4'  305   5.560   4.460   4.762
   10U      C1'  306   5.443   4.476   4.844
   10U      H1'  307   5.448   4.417   4.936
   10U       N1  308   5.417   4.620   4.889
   10U       C6  309   5.418   4.726   4.805
   10U       H6  310   5.454   4.706   4.705
   10U       C5  311   5.398   4.854   4.850
   10U       H5  312   5.407   4.936   4.780
   10U       C4  313   5.353   4.882   4.984
   10U       O4  314   5.331   4.991   5.034
   10U       N3  315   5.347   4.771   5.058
   10U       H3  316   5.327   4.795   5.154
   10U       C2  317   5.372   4.639   5.020
   10U       O2  318   5.336   4.549   5.098
   10U      C3'  319   5.371   4.441   4.619
   10U      H3'  320   5.340   4.540   4.585
   10U      C2'  321   5.325   4.427   4.765
   10U      H2'  322   5.242   4.496   4.779
   10U      O2'  323   5.290   4.293   4.797
   10U     HO2'  324   5.286   4.252   4.711
   10U      O3'  325   5.319   4.334   4.537
   11U        P  326   5.169   4.346   4.477
   11U      OP1  327   5.183   4.323   4.332
   11U      OP2  328   5.101   4.462   4.535
   11U      O5'  329   5.109   4.215   4.545
   11U      C5'  330   5.158   4.082   4.532
   11U      H5'  331   5.266   4.085   4.540
   11U     H5''  332   5.130   4.045   4.433
   11U      C4'  333   5.095   3.983   4.631
   11U      H4'  334   5.120   3.880   4.606
   11U      O4'  335   5.126   4.012   4.767
   11U      C1'  336   5.018   3.966   4.853
   11U      H1'  337   5.044   3.879   4.913
   11U       N1  338   4.963   4.078   4.940
   11U       C6  339   4.989   4.206   4.917
   11U       H6  340   5.041   4.233   4.827
   11U       C5  341   4.939   4.305   4.992
   11U       H5  342   4.957   4.410   4.972
   11U       C4  343   4.879   4.273   5.117
   11U       O4  344   4.821   4.353   5.200
   11U       N3  345   4.862   4.135   5.140
   11U       H3  346   4.824   4.111   5.231
   11U       C2  347   4.902   4.032   5.057
   11U       O2  348   4.877   3.915   5.087
   11U      C3'  349   4.948   3.997   4.626
   11U      H3'  350   4.933   4.104   4.643
   11U      C2'  351   4.901   3.932   4.757
   11U      H2'  352   4.804   3.970   4.789
   11U      O2'  353   4.910   3.788   4.736
   11U     HO2'  354   4.892   3.766   4.644
   11U      O3'  355   4.882   3.940   4.516
   12A        P  356   4.753   4.000   4.464
   12A      OP1  357   4.702   3.919   4.353
   12A      OP2  358   4.775   4.146   4.433
   12A      O5'  359   4.649   3.978   4.573
   12A      C5'  360   4.579   3.849   4.587
   12A      H5'  361   4.647   3.770   4.620
   12A     H5''  362   4.534   3.832   4.489
   12A      C4'  363   4.470   3.861   4.691
   12A      H4'  364   4.419   3.765   4.702
   12A      O4'  365   4.532   3.899   4.812
   12A      C1'  366   4.443   3.976   4.883
   12A      H1'  367   4.407   3.922   4.970
   12A       N9  368   4.509   4.097   4.930
   12A       C8  369   4.608   4.172   4.872
   12A       H8  370   4.650   4.141   4.778
   12A       N7  371   4.633   4.287   4.930
   12A       C5  372   4.545   4.288   5.034
   12A       C6  373   4.505   4.383   5.132
   12A       N6  374   4.561   4.499   5.151
   12A      H61  375   4.524   4.562   5.220
   12A      H62  376   4.647   4.511   5.101
   12A       N1  377   4.414   4.357   5.225
   12A       C2  378   4.359   4.240   5.218
   12A       H2  379   4.297   4.219   5.304
   12A       N3  380   4.369   4.142   5.125
   12A       C4  381   4.468   4.172   5.041
   12A      C3'  382   4.370   3.972   4.658
   12A      H3'  383   4.426   4.061   4.630
   12A      C2'  384   4.315   4.001   4.796
   12A      H2'  385   4.281   4.103   4.810
   12A      O2'  386   4.219   3.898   4.833
   12A     HO2'  387   4.167   3.918   4.911
   12A      O3'  388   4.279   3.941   4.554
   13G        P  389   4.200   4.061   4.479
   13G      OP1  390   4.089   4.009   4.396
   13G      OP2  391   4.305   4.154   4.417
   13G      O5'  392   4.131   4.136   4.605
   13G      C5'  393   4.009   4.088   4.655
   13G      H5'  394   4.034   3.985   4.677
   13G     H5''  395   3.932   4.079   4.578
   13G      C4'  396   3.960   4.171   4.772
   13G      H4'  397   3.881   4.123   4.830
   13G      O4'  398   4.068   4.204   4.862
   13G      C1'  399   4.043   4.332   4.923
   13G      H1'  400   4.037   4.330   5.032
   13G       N9  401   4.156   4.425   4.884
   13G       C8  402   4.263   4.400   4.797
   13G       H8  403   4.271   4.309   4.740
   13G       N7  404   4.352   4.495   4.795
   13G       C5  405   4.308   4.585   4.889
   13G       C6  406   4.366   4.708   4.944
   13G       O6  407   4.475   4.759   4.924
   13G       N1  408   4.282   4.777   5.027
   13G       H1  409   4.338   4.836   5.086
   13G       C2  410   4.158   4.726   5.061
   13G       N2  411   4.107   4.802   5.147
   13G      H21  412   4.147   4.895   5.156
   13G      H22  413   4.018   4.778   5.188
   13G       N3  414   4.095   4.619   5.020
   13G       C4  415   4.180   4.548   4.935
   13G      C3'  416   3.918   4.306   4.725
   13G      H3'  417   3.995   4.352   4.663
   13G      C2'  418   3.908   4.377   4.856
   13G      H2'  419   3.910   4.486   4.847
   13G      O2'  420   3.795   4.330   4.930
   13G     HO2'  421   3.726   4.299   4.870
   13G      O3'  422   3.791   4.304   4.655
   14G        P  423   3.777   4.403   4.541
   14G      OP1  424   3.643   4.378   4.483
   14G      OP2  425   3.895   4.400   4.448
   14G      O5'  426   3.780   4.544   4.606
   14G      C5'  427   3.669   4.594   4.677
   14G      H5'  428   3.644   4.525   4.759
   14G     H5''  429   3.583   4.603   4.611
   14G      C4'  430   3.691   4.735   4.747
   14G      H4'  431   3.614   4.757   4.821
   14G      O4'  432   3.807   4.720   4.838
   14G      C1'  433   3.886   4.843   4.836
   14G      H1'  434   3.896   4.887   4.935
   14G       N9  435   4.018   4.830   4.768
   14G       C8  436   4.061   4.728   4.685
   14G       H8  437   3.999   4.645   4.655
   14G       N7  438   4.184   4.743   4.645
   14G       C5  439   4.222   4.868   4.697
   14G       C6  440   4.338   4.952   4.676
   14G       O6  441   4.434   4.941   4.599
   14G       N1  442   4.331   5.072   4.742
   14G       H1  443   4.399   5.146   4.727
   14G       C2  444   4.227   5.112   4.822
   14G       N2  445   4.230   5.235   4.868
   14G      H21  446   4.318   5.285   4.874
   14G      H22  447   4.143   5.279   4.891
   14G       N3  448   4.118   5.042   4.837
   14G       C4  449   4.119   4.922   4.780
   14G      C3'  450   3.720   4.856   4.658
   14G      H3'  451   3.789   4.822   4.580
   14G      C2'  452   3.791   4.938   4.763
   14G      H2'  453   3.853   5.016   4.719
   14G      O2'  454   3.701   4.984   4.863
   14G     HO2'  455   3.630   5.031   4.819
   14G      O3'  456   3.609   4.918   4.608
   15G        P  457   3.594   4.925   4.458
   15G      OP1  458   3.452   4.946   4.439
   15G      OP2  459   3.658   4.808   4.398
   15G      O5'  460   3.679   5.054   4.426
   15G      C5'  461   3.638   5.184   4.463
   15G      H5'  462   3.636   5.190   4.572
   15G     H5''  463   3.545   5.195   4.406
   15G      C4'  464   3.745   5.282   4.422
   15G      H4'  465   3.699   5.381   4.429
   15G      O4'  466   3.854   5.278   4.512
   15G      C1'  467   3.968   5.301   4.428
   15G      H1'  468   4.027   5.369   4.489
   15G       N9  469   4.045   5.171   4.404
   15G       C8  470   4.036   5.044   4.449
   15G       H8  471   3.956   5.010   4.513
   15G       N7  472   4.128   4.965   4.412
   15G       C5  473   4.213   5.041   4.339
   15G       C6  474   4.328   5.006   4.262
   15G       O6  475   4.376   4.899   4.239
   15G       N1  476   4.384   5.118   4.199
   15G       H1  477   4.478   5.112   4.163
   15G       C2  478   4.336   5.242   4.207
   15G       N2  479   4.390   5.335   4.129
   15G      H21  480   4.459   5.313   4.059
   15G      H22  481   4.343   5.424   4.131
   15G       N3  482   4.225   5.276   4.276
   15G       C4  483   4.169   5.169   4.340
   15G      C3'  484   3.795   5.288   4.277
   15G      H3'  485   3.818   5.187   4.243
   15G      C2'  486   3.915   5.373   4.308
   15G      H2'  487   3.989   5.367   4.229
   15G      O2'  488   3.894   5.511   4.341
   15G     HO2'  489   3.866   5.548   4.257
   15G      O3'  490   3.705   5.350   4.182
   16U        P  491   3.690   5.296   4.035
   16U      OP1  492   3.606   5.382   3.961
   16U      OP2  493   3.643   5.159   4.045
   16U      O5'  494   3.830   5.282   3.981
   16U      C5'  495   3.900   5.397   3.941
   16U      H5'  496   3.921   5.466   4.022
   16U     H5''  497   3.834   5.440   3.865
   16U      C4'  498   4.028   5.366   3.873
   16U      H4'  499   4.079   5.457   3.839
   16U      O4'  500   4.122   5.309   3.960
   16U      C1'  501   4.201   5.214   3.883
   16U      H1'  502   4.308   5.232   3.886
   16U       N1  503   4.181   5.072   3.928
   16U       C6  504   4.077   5.043   4.015
   16U       H6  505   4.007   5.122   4.041
   16U       C5  506   4.062   4.923   4.076
   16U       H5  507   3.991   4.899   4.154
   16U       C4  508   4.159   4.819   4.040
   16U       O4  509   4.167   4.708   4.093
   16U       N3  510   4.255   4.853   3.947
   16U       H3  511   4.327   4.785   3.929
   16U       C2  512   4.274   4.975   3.894
   16U       O2  513   4.372   4.998   3.817
   16U      C3'  514   4.006   5.277   3.746
   16U      H3'  515   3.945   5.192   3.776
   16U      C2'  516   4.157   5.235   3.737
   16U      H2'  517   4.148   5.136   3.692
   16U      O2'  518   4.236   5.327   3.668
   16U     HO2'  519   4.184   5.339   3.588
   16U      O3'  520   3.960   5.345   3.630
   17U        P  521   3.845   5.273   3.533
   17U      OP1  522   3.830   5.368   3.429
   17U      OP2  523   3.733   5.219   3.607
   17U      O5'  524   3.936   5.152   3.477
   17U      C5'  525   4.038   5.178   3.381
   17U      H5'  526   4.110   5.241   3.431
   17U     H5''  527   3.988   5.220   3.294
   17U      C4'  528   4.100   5.039   3.348
   17U      H4'  529   4.156   5.055   3.255
   17U      O4'  530   4.183   4.991   3.453
   17U      C1'  531   4.180   4.846   3.451
   17U      H1'  532   4.281   4.805   3.444
   17U       N1  533   4.120   4.796   3.579
   17U       C6  534   4.011   4.859   3.636
   17U       H6  535   3.978   4.952   3.591
   17U       C5  536   3.947   4.801   3.749
   17U       H5  537   3.864   4.851   3.796
   17U       C4  538   3.989   4.679   3.810
   17U       O4  539   3.928   4.623   3.899
   17U       N3  540   4.097   4.628   3.752
   17U       H3  541   4.134   4.548   3.801
   17U       C2  542   4.164   4.680   3.639
   17U       O2  543   4.260   4.615   3.599
   17U      C3'  544   3.999   4.927   3.309
   17U      H3'  545   3.912   4.932   3.375
   17U      C2'  546   4.079   4.804   3.337
   17U      H2'  547   4.015   4.723   3.372
   17U      O2'  548   4.157   4.768   3.224
   17U     HO2'  549   4.127   4.809   3.143
   17U      O3'  550   3.950   4.939   3.173
   18A        P  551   3.793   4.929   3.135
   18A      OP1  552   3.782   4.988   2.993
   18A      OP2  553   3.718   4.986   3.247
   18A      O5'  554   3.783   4.777   3.130
   18A      C5'  555   3.796   4.693   3.018
   18A      H5'  556   3.897   4.705   2.978
   18A     H5''  557   3.720   4.714   2.943
   18A      C4'  558   3.774   4.546   3.059
   18A      H4'  559   3.777   4.487   2.967
   18A      O4'  560   3.883   4.504   3.140
   18A      C1'  561   3.842   4.383   3.205
   18A      H1'  562   3.888   4.293   3.166
   18A       N9  563   3.857   4.403   3.351
   18A       C8  564   3.834   4.521   3.420
   18A       H8  565   3.814   4.613   3.366
   18A       N7  566   3.847   4.512   3.547
   18A       C5  567   3.891   4.376   3.564
   18A       C6  568   3.923   4.289   3.669
   18A       N6  569   3.934   4.324   3.794
   18A      H61  570   3.929   4.254   3.866
   18A      H62  571   3.911   4.419   3.820
   18A       N1  572   3.949   4.159   3.656
   18A       C2  573   3.939   4.113   3.529
   18A       H2  574   3.970   4.010   3.526
   18A       N3  575   3.916   4.173   3.416
   18A       C4  576   3.886   4.305   3.442
   18A      C3'  577   3.645   4.504   3.121
   18A      H3'  578   3.617   4.581   3.192
   18A      C2'  579   3.695   4.367   3.170
   18A      H2'  580   3.639   4.354   3.263
   18A      O2'  581   3.673   4.259   3.083
   18A     HO2'  582   3.600   4.295   3.031
   18A      O3'  583   3.534   4.494   3.031
   19G        P  584   3.380   4.495   3.074
   19G      OP1  585   3.290   4.489   2.956
   19G      OP2  586   3.373   4.615   3.157
   19G      O5'  587   3.367   4.365   3.165
   19G      C5'  588   3.332   4.237   3.115
   19G      H5'  589   3.406   4.188   3.052
   19G     H5''  590   3.233   4.238   3.070
   19G      C4'  591   3.324   4.144   3.233
   19G      H4'  592   3.284   4.053   3.188
   19G      O4'  593   3.457   4.119   3.286
   19G      C1'  594   3.450   4.094   3.428
   19G      H1'  595   3.486   3.996   3.460
   19G       N9  596   3.514   4.201   3.512
   19G       C8  597   3.508   4.338   3.492
   19G       H8  598   3.470   4.376   3.398
   19G       N7  599   3.555   4.408   3.593
   19G       C5  600   3.587   4.315   3.692
   19G       C6  601   3.635   4.328   3.828
   19G       O6  602   3.674   4.439   3.879
   19G       N1  603   3.631   4.207   3.897
   19G       H1  604   3.663   4.198   3.992
   19G       C2  605   3.599   4.094   3.831
   19G       N2  606   3.605   4.004   3.924
   19G      H21  607   3.616   4.044   4.016
   19G      H22  608   3.587   3.907   3.904
   19G       N3  609   3.552   4.073   3.712
   19G       C4  610   3.556   4.187   3.641
   19G      C3'  611   3.235   4.174   3.355
   19G      H3'  612   3.255   4.275   3.390
   19G      C2'  613   3.296   4.069   3.453
   19G      H2'  614   3.262   4.096   3.554
   19G      O2'  615   3.279   3.930   3.429
   19G     HO2'  616   3.191   3.917   3.394
   19G      O3'  617   3.101   4.161   3.322
   20G        P  618   2.991   4.237   3.411
   20G      OP1  619   2.861   4.196   3.368
   20G      OP2  620   3.022   4.380   3.424
   20G      O5'  621   3.020   4.176   3.554
   20G      C5'  622   2.974   4.040   3.587
   20G      H5'  623   3.002   3.964   3.514
   20G     H5''  624   2.866   4.044   3.579
   20G      C4'  625   3.008   4.008   3.733
   20G      H4'  626   2.986   3.905   3.760
   20G      O4'  627   3.146   4.038   3.754
   20G      C1'  628   3.168   4.081   3.887
   20G      H1'  629   3.236   4.024   3.951
   20G       N9  630   3.218   4.226   3.881
   20G       C8  631   3.246   4.310   3.770
   20G       H8  632   3.209   4.280   3.673
   20G       N7  633   3.309   4.420   3.804
   20G       C5  634   3.336   4.416   3.935
   20G       C6  635   3.411   4.511   4.020
   20G       O6  636   3.457   4.625   4.005
   20G       N1  637   3.436   4.450   4.143
   20G       H1  638   3.497   4.504   4.202
   20G       C2  639   3.393   4.329   4.180
   20G       N2  640   3.428   4.285   4.298
   20G      H21  641   3.494   4.340   4.349
   20G      H22  642   3.393   4.194   4.324
   20G       N3  643   3.321   4.243   4.102
   20G       C4  644   3.300   4.290   3.981
   20G      C3'  645   2.937   4.096   3.839
   20G      H3'  646   2.932   4.197   3.800
   20G      C2'  647   3.029   4.081   3.956
   20G      H2'  648   3.015   4.160   4.030
   20G      O2'  649   2.999   3.956   4.011
   20G     HO2'  650   2.908   3.934   3.990
   20G      O3'  651   2.810   4.041   3.858
   21G3       P  652   2.688   4.136   3.891
   21G3     OP1  653   2.566   4.050   3.921
   21G3     OP2  654   2.670   4.243   3.796
   21G3     O5'  655   2.736   4.196   4.026
   21G3     C5'  656   2.714   4.135   4.154
   21G3     H5'  657   2.744   4.031   4.148
   21G3    H5''  658   2.608   4.147   4.180
   21G3     C4'  659   2.786   4.194   4.273
   21G3     H4'  660   2.772   4.128   4.359
   21G3     O4'  661   2.921   4.212   4.247
   21G3     C1'  662   2.983   4.315   4.324
   21G3     H1'  663   3.058   4.264   4.386
   21G3      N9  664   3.036   4.429   4.242
   21G3      C8  665   3.009   4.453   4.105
   21G3      H8  666   2.946   4.397   4.038
   21G3      N7  667   3.074   4.552   4.061
   21G3      C5  668   3.146   4.604   4.174
   21G3      C6  669   3.213   4.726   4.196
   21G3      O6  670   3.218   4.819   4.119
   21G3      N1  671   3.282   4.733   4.318
   21G3      H1  672   3.332   4.818   4.339
   21G3      C2  673   3.277   4.634   4.411
   21G3      N2  674   3.347   4.652   4.519
   21G3     H21  675   3.423   4.716   4.502
   21G3     H22  676   3.354   4.574   4.583
   21G3      N3  677   3.204   4.521   4.402
   21G3      C4  678   3.137   4.520   4.280
   21G3     C3'  679   2.748   4.334   4.318
   21G3     H3'  680   2.741   4.400   4.231
   21G3     C2'  681   2.866   4.372   4.404
   21G3     H2'  682   2.869   4.481   4.404
   21G3     O2'  683   2.873   4.325   4.538
   21G3    HO2'  684   2.931   4.384   4.587
   21G3     O3'  685   2.626   4.326   4.389
   21G3    HO3'  686   2.585   4.413   4.399
   22Cl-    Cl-  687   1.242   8.506   6.612
   23Cl-    Cl-  688   2.811   2.404   1.328
   24Cl-    Cl-  689   3.712   3.642   5.168
   25Cl-    Cl-  690   6.488   8.014   0.671
   26Cl-    Cl-  691   5.283   2.057   1.886
   27Cl-    Cl-  692   5.840   6.223   7.603
   28Cl-    Cl-  693   0.203   5.382   6.495
   29Cl-    Cl-  694   9.538   5.719   8.823
   30Cl-    Cl-  695   3.884   1.070   9.835
   31Cl-    Cl-  696   6.093   7.636   6.894
   32Cl-    Cl-  697   0.848   7.813   0.256
   33Cl-    Cl-  698   4.925   0.427   1.019
   34Cl-    Cl-  699   2.600   8.744   1.556
   35Cl-    Cl-  700   8.343   2.921   5.529
   36Cl-    Cl-  701   8.776   5.101   1.252
   37Cl-    Cl-  702   3.254   2.073   3.080
   38Cl-    Cl-  703   1.197   0.664   8.741
   39Cl-    Cl-  704   7.437   6.159   1.110
   40Cl-    Cl-  705   9.014   6.264   8.761
   41Cl-    Cl-  706   9.641   0.732   4.189
   42Cl-    Cl-  707   6.532   3.918   5.718
   43Cl-    Cl-  708   8.687   1.699   0.022
   44Cl-    Cl-  709   7.243   8.343   7.369
   45Cl-    Cl-  710   5.734   7.193   2.467
   46Cl-    Cl-  711   6.459   6.114   4.542
   47Cl-    Cl-  712   1.251   5.178   8.438
   48Cl-    Cl-  713   1.189   0.288   9.882
   49Cl-    Cl-  714   3.688   4.713   7.599
   50Cl-    Cl-  715   2.831   2.954   6.079
   51Cl-    Cl-  716   3.727   8.097   2.582
   52Cl-    Cl-  717   2.086   1.235   4.974
   53Cl-    Cl-  718   7.276   0.239   7.555
   54Cl-    Cl-  719   5.459   6.495   8.236
   55Cl-    Cl-  720   7.931   2.018   7.940
   56Cl-    Cl-  721   6.858   0.271   9.874
   57Cl-    Cl-  722   3.689   0.581   2.836
   58Cl-    Cl-  723   0.893   3.835   3.398
   59Cl-    Cl-  724   8.892   4.736   1.579
   60Cl-    Cl-  725   2.339   7.660   9.500
   61Cl-    Cl-  726   4.585   8.701   2.724
   62Cl-    Cl-  727   4.647   7.445   9.109
   63Cl-    Cl-  728   0.195   0.647   0.818
   64Cl-    Cl-  729   3.531   7.322   7.083
   65Cl-    Cl-  730   5.917   1.305   5.974
   66Cl-    Cl-  731   3.149   9.268   5.835
   67Cl-    Cl-  732   3.417   1.772   7.670
   68Cl-    Cl-  733   7.325   3.713   4.837
   69Cl-    Cl-  734   0.439   3.034   5.311
   70Cl-    Cl-  735   1.859   4.590   0.969
   71Cl-    Cl-  736   9.237   1.605   8.388
   72Cl-    Cl-  737   1.407   5.712   5.450
   73Cl-    Cl-  738   4.364   8.702   8.299
   74Cl-    Cl-  739   5.526   9.045   2.058
   75Cl-    Cl-  740   7.746   1.706   4.095
   76Cl-    Cl-  741   5.774   0.268   4.760
   77Cl-    Cl-  742   0.654   6.421   6.241
   78Cl-    Cl-  743   8.596   5.940   3.532
   79Cl-    Cl-  744   4.343   1.063   7.513
   80Cl-    Cl-  745   8.857   7.637   4.530
   81Cl-    Cl-  746   3.154   0.112   1.554
   82Cl-    Cl-  747   0.708   0.329   0.632
   83Cl-    Cl-  748   6.039   0.892   7.399
   84Cl-    Cl-  749   7.624   7.190   7.854
   85Cl-    Cl-  750   7.678   1.803   6.326
   86Cl-    Cl-  751   0.398   9.332   8.200
   87Cl-    Cl-  752   5.774   6.081   0.897
   88Cl-    Cl-  753   0.198   3.755   0.878
   89Cl-    Cl-  754   3.193   5.233   1.987
   90Cl-    Cl-  755   7.207   3.631   3.814
   91Cl-    Cl-  756   9.428   6.659   3.258
   92Cl-    Cl-  757   6.268   1.074   0.767
   93Cl-    Cl-  758   3.863   1.353   5.228
   94Cl-    Cl-  759   9.437   2.044   9.831
   95Cl-    Cl-  760   4.003   5.511   5.729
   96Cl-    Cl-  761   8.374   3.227   0.222
   97Cl-    Cl-  762   2.725   0.957   5.146
   98Cl-    Cl-  763   8.019   7.797   0.344
   99Cl-    Cl-  764   6.647   0.252   3.782
  100Cl-    Cl-  765   9.506   2.881   2.853
  101Cl-    Cl-  766   3.112   6.812   8.882
  102Cl-    Cl-  767   6.759   1.236   8.565
  103Cl-    Cl-  768   1.653   0.142   4.256
  104Cl-    Cl-  769   3.692   4.952   0.406
  105Cl-    Cl-  770   4.188   7.401   7.675
  106Cl-    Cl-  771   7.649   1.223   8.028
  107K+      K+  772   8.566   4.157   5.018
  108K+      K+  773   5.226   4.692   3.378
  109K+      K+  774   4.964   3.515   8.135
  110K+      K+  775   3.440   4.866   3.872
  111K+      K+  776   7.219   1.778   1.850
  112K+      K+  777   3.960   0.979   1.509
  113K+      K+  778   9.060   1.443   9.867
  114K+      K+  779   5.788   0.676   3.969
  115K+      K+  780   0.490   0.174   1.535
  116K+      K+  781   3.458   2.918   4.406
  117K+      K+  782   7.115   2.572   9.820
  118K+      K+  783   6.944   5.577   5.205
  119K+      K+  784   0.802   4.239   6.939
  120K+      K+  785   1.264   0.800   1.426
  121K+      K+  786   5.628   5.270   5.453
  122K+      K+  787   8.901   7.761   9.260
  123K+      K+  788   1.619   5.021   9.650
  124K+      K+  789   4.403   9.039   0.910
  125K+      K+  790   9.381   5.281   3.893
  126K+      K+  791   2.430   8.537   6.010
  127K+      K+  792   4.191   4.700   4.364
  128K+      K+  793   6.728   6.471   7.982
  129K+      K+  794   7.881   4.588   5.893
  130K+      K+  795   7.569   5.099   2.316
  131K+      K+  796   1.524   6.118   6.704
  132K+      K+  797   1.787   6.296   0.816
  133K+      K+  798   8.023   9.680   0.234
  134K+      K+  799   1.856   6.455   9.854
  135K+      K+  800   3.579   6.158   2.371
  136K+      K+  801   4.359   2.037   0.353
  137K+      K+  802   3.170   4.781   1.785
  138K+      K+  803   6.563   6.019   6.320
  139K+      K+  804   6.332   2.462   3.314
  140K+      K+  805   3.006   9.088   1.320
  141K+      K+  806   8.286   7.286   9.732
  142K+      K+  807   6.846   9.624   6.935
  143K+      K+  808   6.493   8.254   4.204
  144K+      K+  809   1.498   3.890   2.341
  145K+      K+  810   3.374   6.318   9.622
  146K+      K+  811   5.929   5.287   5.785
  147K+      K+  812   4.350   1.571   4.857
  148K+      K+  813   9.830   8.220   5.963
  149K+      K+  814   4.628   4.496   4.745
  150K+      K+  815   1.495   8.453   5.224
  151K+      K+  816   6.195   5.691   7.183
  152K+      K+  817   0.408   2.881   3.459
  153K+      K+  818   0.763   4.490   3.606
  154K+      K+  819   1.606   7.445   1.944
  155K+      K+  820   4.589   8.170   1.022
  156K+      K+  821   6.887   5.853   6.584
  157K+      K+  822   4.668   1.137   6.782
  158K+      K+  823   5.590   9.782   0.075
  159K+      K+  824   3.728   4.648   4.049
  160K+      K+  825   7.022   0.796   6.666
  161K+      K+  826   4.306   9.236   8.854
  162K+      K+  827   4.433   0.998   1.758
  163K+      K+  828   8.468   6.313   2.881
  164K+      K+  829   5.652   5.502   4.526
  165K+      K+  830   1.698   1.095   8.655
  166K+      K+  831   5.577   5.330   5.028
  167K+      K+  832   2.979   4.133   5.132
  168K+      K+  833   9.641   1.977   1.205
  169K+      K+  834   9.401   0.786   0.595
  170K+      K+  835   9.418   8.831   2.720
  171K+      K+  836   1.995   8.654   0.745
  172K+      K+  837   2.678   8.906   9.454
  173K+      K+  838   3.125   4.798   2.273
  174K+      K+  839   6.088   2.037   8.883
  175K+      K+  840   5.899   6.531   8.054
  176K+      K+  841   8.475   2.419   4.860
  177K+      K+  842   3.825   6.169   6.561
  178K+      K+  843   2.911   9.570   4.603
  179K+      K+  844   0.264   0.514   7.727
  180K+      K+  845   3.353   4.651   3.614
  181K+      K+  846   3.970   4.273   5.844
  182K+      K+  847   3.726   2.408   7.891
  183K+      K+  848   7.162   9.074   8.234
  184K+      K+  849   7.692   3.340   4.475
  185K+      K+  850   8.024   3.234   9.767
  186K+      K+  851   0.276   2.111   0.374
  187K+      K+  852   7.438   1.158   5.210
  188K+      K+  853   0.795   9.444   2.632
  189K+      K+  854   0.922   4.975   0.342
  190K+      K+  855   4.038   3.723   1.114
  191K+      K+  856   7.304   2.311   7.683
  192K+      K+  857   5.397   5.487   1.557
  193K+      K+  858   6.270   7.561   6.119
  194K+      K+  859   2.543   9.722   9.213
  195K+      K+  860   6.418   3.740   0.336
  196K+      K+  861   9.305   6.790   2.066
  197K+      K+  862   8.647   3.021   6.548
  198K+      K+  863   3.788   4.576   5.090
  199K+      K+  864   4.311   0.189   2.755
  200K+      K+  865   7.944   5.170   9.892
  201K+      K+  866   3.798   4.408   6.273
  202K+      K+  867   7.983   6.026   3.274
  203K+      K+  868   0.964   1.265   5.805
  204K+      K+  869   9.306   8.758   9.408
  205K+      K+  870   1.810   2.423   6.600
  206K+      K+  871   7.029   2.114   6.200
  207K+      K+  872   3.856   0.810   9.394
  208K+      K+  873   3.000   3.658   8.672
  209K+      K+  874   3.364   1.167   5.012
  210K+      K+  875   2.061   6.895   6.900
  211K+      K+  876   9.726   7.753   1.567
  212WAT      O  877   2.053   1.011   7.674
  212WAT     H1  878   2.075   1.092   7.728
  212WAT     H2  879   2.125   0.995   7.606
  213WAT      O  880   4.206   1.450   2.386
  213WAT     H1  881   4.136   1.379   2.383
  213WAT     H2  882   4.162   1.540   2.398
  214WAT      O  883   3.275   7.198   8.760
  214WAT     H1  884   3.233   7.188   8.670
  214WAT     H2  885   3.374   7.202   8.751
  215WAT      O  886   4.747   4.070   0.072
  215WAT     H1  887   4.664   4.088   0.126
  215WAT     H2  888   4.757   3.972   0.058
  216WAT      O  889   8.767   6.058   8.745
  216WAT     H1  890   8.846   6.118   8.731
  216WAT     H2  891   8.686   6.099   8.703
  217WAT      O  892   6.922   4.962   9.372
  217WAT     H1  893   6.984   4.996   9.301
  217WAT     H2  894   6.879   5.039   9.419
  218WAT      O  895   4.574   1.691   4.774
  218WAT     H1  896   4.659   1.737   4.747
  218WAT     H2  897   4.551   1.621   4.707
  219WAT      O  898   5.908   6.651   3.646
  219WAT     H1  899   5.986   6.715   3.646
  219WAT     H2  900   5.836   6.688   3.705
  220WAT      O  901   9.661   0.251   4.330
  220WAT     H1  902   9.581   0.276   4.383
  220WAT     H2  903   9.668   0.151   4.324
  221WAT      O  904   3.847   2.653   4.634
  221WAT     H1  905   3.921   2.657   4.567
  221WAT     H2  906   3.761   2.637   4.587
  222WAT      O  907   3.966   3.485   2.574
  222WAT     H1  908   3.924   3.495   2.484
  222WAT     H2  909   3.894   3.482   2.644
  223WAT      O  910   6.893   9.314   4.231
  223WAT     H1  911   6.898   9.220   4.265
  223WAT     H2  912   6.963   9.328   4.162
  224WAT      O  913   2.863   2.619   5.667
  224WAT     H1  914   2.788   2.585   5.724
  224WAT     H2  915   2.923   2.542   5.644
  225WAT      O  916   7.160   0.269   3.401
  225WAT     H1  917   7.194   0.184   3.361
  225WAT     H2  918   7.146   0.337   3.328
  226WAT      O  919   2.511   1.011   2.516
  226WAT     H1  920   2.600   1.051   2.493
  226WAT     H2  921   2.480   1.045   2.605
  227WAT      O  922   0.914   6.627   2.114
  227WAT     H1  923   0.815   6.634   2.103
  227WAT     H2  924   0.945   6.696   2.181
  228WAT      O  925   0.278   8.322   7.340
  228WAT     H1  926   0.375   8.345   7.351
  228WAT     H2  927   0.243   8.285   7.426
  229WAT      O  928   9.724   7.000   0.124
  229WAT     H1  929   9.724   7.012   0.025
  229WAT     H2  930   9.762   6.910   0.147
  230WAT      O  931   9.587   5.389   1.741
  230WAT     H1  932   9.537   5.309   1.773
  230WAT     H2  933   9.646   5.424   1.813
  231WAT      O  934   7.679   6.337   1.185
  231WAT     H1  935   7.597   6.290   1.150
  231WAT     H2  936   7.676   6.339   1.285
  232WAT      O  937   6.285   9.085   4.102
  232WAT     H1  938   6.336   9.003   4.076
  232WAT     H2  939   6.208   9.059   4.161
  233WAT      O  940   0.836   3.766   7.786
  233WAT     H1  941   0.850   3.667   7.784
  233WAT     H2  942   0.854   3.800   7.878
  234WAT      O  943   4.163   3.727   0.539
  234WAT     H1  944   4.237   3.793   0.553
  234WAT     H2  945   4.131   3.732   0.445
  235WAT      O  946   3.914   4.729   4.345
  235WAT     H1  947   3.826   4.754   4.384
  235WAT     H2  948   3.903   4.647   4.289
  236WAT      O  949   3.400   0.651   6.268
  236WAT     H1  950   3.417   0.553   6.265
  236WAT     H2  951   3.404   0.683   6.363
  237WAT      O  952   0.757   6.537   7.759
  237WAT     H1  953   0.814   6.505   7.834
  237WAT     H2  954   0.736   6.461   7.697
  238WAT      O  955   0.315   4.648   5.442
  238WAT     H1  956   0.352   4.733   5.405
  238WAT     H2  957   0.249   4.669   5.515
  239WAT      O  958   9.451   9.826   3.393
  239WAT     H1  959   9.510   9.886   3.447
  239WAT     H2  960   9.503   9.747   3.362
  240WAT      O  961   9.800   5.300   0.668
  240WAT     H1  962   9.725   5.287   0.733
  240WAT     H2  963   9.888   5.288   0.714
  241WAT      O  964   7.030   2.063   0.092
  241WAT     H1  965   7.067   2.086   0.182
  241WAT     H2  966   7.037   1.965   0.077
  242WAT      O  967   8.712   1.967   1.931
  242WAT     H1  968   8.663   1.930   2.011
  242WAT     H2  969   8.670   1.932   1.847
  243WAT      O  970   0.674   0.792   1.331
  243WAT     H1  971   0.606   0.737   1.284
  243WAT     H2  972   0.763   0.747   1.325
  244WAT      O  973   7.816   1.207   3.281
  244WAT     H1  974   7.744   1.276   3.276
  244WAT     H2  975   7.806   1.155   3.366
  245WAT      O  976   9.419   0.573   5.147
  245WAT     H1  977   9.361   0.506   5.102
  245WAT     H2  978   9.510   0.571   5.107
  246WAT      O  979   7.071   4.656   2.870
  246WAT     H1  980   7.068   4.745   2.825
  246WAT     H2  981   6.983   4.609   2.857
  247WAT      O  982   3.073   0.594   0.612
  247WAT     H1  983   3.116   0.506   0.634
  247WAT     H2  984   2.982   0.598   0.652
  248WAT      O  985   1.302   6.654   1.611
  248WAT     H1  986   1.295   6.586   1.538
  248WAT     H2  987   1.285   6.610   1.699
  249WAT      O  988   0.287   3.815   8.215
  249WAT     H1  989   0.331   3.831   8.303
  249WAT     H2  990   0.212   3.750   8.226
  250WAT      O  991   1.952   0.352   7.864
  250WAT     H1  992   2.051   0.334   7.858
  250WAT     H2  993   1.924   0.349   7.960
  251WAT      O  994   4.686   1.553   5.178
  251WAT     H1  995   4.681   1.503   5.265
  251WAT     H2  996   4.679   1.651   5.195
  252WAT      O  997   9.035   7.976   3.194
  252WAT     H1  998   8.944   7.936   3.203
  252WAT     H2  999   9.100   7.922   3.247
  253WAT      O 1000   0.649   6.981   8.416
  253WAT     H1 1001   0.747   6.999   8.426
  253WAT     H2 1002   0.611   7.037   8.343
  254WAT      O 1003   0.575   1.350   7.517
  254WAT     H1 1004   0.478   1.355   7.544
  254WAT     H2 1005   0.582   1.302   7.430
  255WAT      O 1006   9.289   5.445   7.162
  255WAT     H1 1007   9.242   5.533   7.153
  255WAT     H2 1008   9.325   5.436   7.255
  256WAT      O 1009   8.110   1.774   1.903
  256WAT     H1 1010   8.138   1.700   1.842
  256WAT     H2 1011   8.191   1.817   1.943
  257WAT      O 1012   2.917   3.033   5.761
  257WAT     H1 1013   2.935   3.030   5.860
  257WAT     H2 1014   2.966   2.957   5.717
  258WAT      O 1015   2.848   6.825   5.862
  258WAT     H1 1016   2.783   6.866   5.798
  258WAT     H2 1017   2.799   6.771   5.929
  259WAT      O 1018   5.693   6.702   2.864
  259WAT     H1 1019   5.744   6.749   2.791
  259WAT     H2 1020   5.630   6.766   2.908
  260WAT      O 1021   5.039   8.913   8.329
  260WAT     H1 1022   4.963   8.932   8.268
  260WAT     H2 1023   5.039   8.817   8.355
  261WAT      O 1024   4.643   9.597   4.791
  261WAT     H1 1025   4.720   9.591   4.854
  261WAT     H2 1026   4.665   9.547   4.707
  262WAT      O 1027   4.966   8.476   6.172
  262WAT     H1 1028   5.065   8.469   6.166
  262WAT     H2 1029   4.929   8.394   6.216
  263WAT      O 1030   0.984   4.139   5.358
  263WAT     H1 1031   0.921   4.097   5.293
  263WAT     H2 1032   1.069   4.087   5.360
  264WAT      O 1033   2.563   8.008   0.395
  264WAT     H1 1034   2.481   8.064   0.390
  264WAT     H2 1035   2.555   7.930   0.333
  265WAT      O 1036   9.764   3.483   1.012
  265WAT     H1 1037   9.668   3.478   1.037
  265WAT     H2 1038   9.799   3.574   1.032
  266WAT      O 1039   1.490   6.034   5.898
  266WAT     H1 1040   1.414   6.084   5.940
  266WAT     H2 1041   1.465   5.938   5.887
  267WAT      O 1042   0.304   8.450   5.770
  267WAT     H1 1043   0.345   8.372   5.722
  267WAT     H2 1044   0.351   8.464   5.857
  268WAT      O 1045   8.957   3.884   4.268
  268WAT     H1 1046   8.924   3.967   4.223
  268WAT     H2 1047   8.969   3.901   4.365
  269WAT      O 1048   8.988   7.107   3.651
  269WAT     H1 1049   8.929   7.035   3.614
  269WAT     H2 1050   9.061   7.127   3.585
  270WAT      O 1051   3.078   2.699   7.666
  270WAT     H1 1052   3.096   2.782   7.612
  270WAT     H2 1053   2.980   2.691   7.684
  271WAT      O 1054   3.851   4.635   2.371
  271WAT     H1 1055   3.926   4.684   2.415
  271WAT     H2 1056   3.863   4.536   2.383
  272WAT      O 1057   8.355   8.846   5.784
  272WAT     H1 1058   8.355   8.942   5.756
  272WAT     H2 1059   8.347   8.839   5.883
  273WAT      O 1060   2.053   3.384   8.920
  273WAT     H1 1061   2.115   3.306   8.910
  273WAT     H2 1062   1.997   3.373   9.002
  274WAT      O 1063   1.427   2.911   9.064
  274WAT     H1 1064   1.394   2.831   9.115
  274WAT     H2 1065   1.477   2.880   8.983
  275WAT      O 1066   8.578   6.898   9.350
  275WAT     H1 1067   8.607   6.876   9.443
  275WAT     H2 1068   8.596   6.820   9.289
  276WAT      O 1069   0.559   4.144   9.063
  276WAT     H1 1070   0.589   4.167   9.155
  276WAT     H2 1071   0.605   4.060   9.033
  277WAT      O 1072   3.912   2.147   0.428
  277WAT     H1 1073   3.884   2.239   0.402
  277WAT     H2 1074   3.832   2.087   0.431
  278WAT      O 1075   0.100   6.847   6.941
  278WAT     H1 1076   0.133   6.764   6.895
  278WAT     H2 1077   0.161   6.924   6.918
  279WAT      O 1078   3.305   8.371   2.208
  279WAT     H1 1079   3.237   8.419   2.152
  279WAT     H2 1080   3.370   8.437   2.245
  280WAT      O 1081   6.387   0.642   9.171
  280WAT     H1 1082   6.398   0.578   9.247
  280WAT     H2 1083   6.350   0.594   9.091
  281WAT      O 1084   1.522   9.818   7.867
  281WAT     H1 1085   1.543   9.911   7.898
  281WAT     H2 1086   1.558   9.805   7.774
  282WAT      O 1087   7.288   3.700   6.121
  282WAT     H1 1088   7.357   3.676   6.052
  282WAT     H2 1089   7.273   3.622   6.181
  283WAT      O 1090   9.734   4.813   8.547
  283WAT     H1 1091   9.660   4.801   8.614
  283WAT     H2 1092   9.776   4.903   8.559
  284WAT      O 1093   9.804   3.718   5.957
  284WAT     H1 1094   9.840   3.662   6.032
  284WAT     H2 1095   9.844   3.687   5.871
  285WAT      O 1096   5.952   9.658   1.313
  285WAT     H1 1097   5.922   9.601   1.390
  285WAT     H2 1098   6.039   9.622   1.278
  286WAT      O 1099   7.656   2.530   9.362
  286WAT     H1 1100   7.734   2.581   9.399
  286WAT     H2 1101   7.673   2.432   9.372
  287WAT      O 1102   0.339   5.104   0.119
  287WAT     H1 1103   0.277   5.069   0.189
  287WAT     H2 1104   0.304   5.191   0.084
  288WAT      O 1105   4.315   0.435   6.826
  288WAT     H1 1106   4.245   0.378   6.870
  288WAT     H2 1107   4.376   0.377   6.772
  289WAT      O 1108   1.639   0.491   0.033
  289WAT     H1 1109   1.703   0.567   0.018
  289WAT     H2 1110   1.690   0.406   0.041
  290WAT      O 1111   5.035   8.285   6.852
  290WAT     H1 1112   5.084   8.222   6.913
  290WAT     H2 1113   5.050   8.258   6.757
  291WAT      O 1114   9.894   6.573   8.781
  291WAT     H1 1115   9.803   6.561   8.822
  291WAT     H2 1116   9.902   6.667   8.747
  292WAT      O 1117   6.860   5.780   0.118
  292WAT     H1 1118   6.901   5.829   0.041
  292WAT     H2 1119   6.767   5.813   0.133
  293WAT      O 1120   3.271   1.148   5.471
  293WAT     H1 1121   3.261   1.186   5.379
  293WAT     H2 1122   3.222   1.061   5.477
  294WAT      O 1123   1.533   4.531   7.745
  294WAT     H1 1124   1.558   4.514   7.650
  294WAT     H2 1125   1.612   4.512   7.804
  295WAT      O 1126   4.130   1.470   3.739
  295WAT     H1 1127   4.058   1.401   3.740
  295WAT     H2 1128   4.123   1.524   3.655
  296WAT      O 1129   5.796   8.400   5.940
  296WAT     H1 1130   5.729   8.395   5.866
  296WAT     H2 1131   5.886   8.375   5.904
  297WAT      O 1132   1.907   0.966   4.550
  297WAT     H1 1133   1.981   1.008   4.497
  297WAT     H2 1134   1.929   0.968   4.647
  298WAT      O 1135   5.555   9.684   8.947
  298WAT     H1 1136   5.513   9.597   8.973
  298WAT     H2 1137   5.501   9.726   8.873
  299WAT      O 1138   7.471   8.634   6.559
  299WAT     H1 1139   7.511   8.559   6.507
  299WAT     H2 1140   7.380   8.655   6.524
  300WAT      O 1141   8.719   3.265   5.655
  300WAT     H1 1142   8.791   3.225   5.598
  300WAT     H2 1143   8.629   3.233   5.623
  301WAT      O 1144   1.653   9.563   1.585
  301WAT     H1 1145   1.638   9.617   1.501
  301WAT     H2 1146   1.708   9.483   1.564
  302WAT      O 1147   1.523   1.492   4.496
  302WAT     H1 1148   1.555   1.435   4.420
  302WAT     H2 1149   1.504   1.435   4.575
  303WAT      O 1150   5.832   6.920   9.618
  303WAT     H1 1151   5.745   6.875   9.598
  303WAT     H2 1152   5.824   6.973   9.703
  304WAT      O 1153   4.131   1.108   6.050
  304WAT     H1 1154   4.129   1.029   5.988
  304WAT     H2 1155   4.104   1.190   6.000
  305WAT      O 1156   6.817   0.831   3.976
  305WAT     H1 1157   6.821   0.913   3.918
  305WAT     H2 1158   6.786   0.753   3.921
  306WAT      O 1159   6.140   6.319   1.367
  306WAT     H1 1160   6.098   6.362   1.287
  306WAT     H2 1161   6.239   6.328   1.361
  307WAT      O 1162   2.572   2.229   0.119
  307WAT     H1 1163   2.662   2.232   0.077
  307WAT     H2 1164   2.546   2.134   0.136
  308WAT      O 1165   4.553   9.268   0.832
  308WAT     H1 1166   4.619   9.317   0.774
  308WAT     H2 1167   4.565   9.295   0.927
  309WAT      O 1168   2.289   8.142   3.208
  309WAT     H1 1169   2.362   8.099   3.260
  309WAT     H2 1170   2.207   8.149   3.265
  310WAT      O 1171   8.148   9.280   8.601
  310WAT     H1 1172   8.153   9.304   8.504
  310WAT     H2 1173   8.102   9.191   8.611
  311WAT      O 1174   8.994   2.501   2.397
  311WAT     H1 1175   9.056   2.547   2.461
  311WAT     H2 1176   9.047   2.465   2.320
  312WAT      O 1177   8.365   9.705   7.422
  312WAT     H1 1178   8.304   9.741   7.351
  312WAT     H2 1179   8.314   9.640   7.479
  313WAT      O 1180   5.226   5.454   9.104
  313WAT     H1 1181   5.235   5.542   9.057
  313WAT     H2 1182   5.255   5.380   9.042
  314WAT      O 1183   4.242   8.857   5.832
  314WAT     H1 1184   4.176   8.916   5.879
  314WAT     H2 1185   4.244   8.767   5.876
  315WAT      O 1186   0.194   3.977   2.830
  315WAT     H1 1187   0.130   4.011   2.760
  315WAT     H2 1188   0.288   3.986   2.797
  316WAT      O 1189   5.619   7.606   1.186
  316WAT     H1 1190   5.715   7.633   1.182
  316WAT     H2 1191   5.565   7.681   1.226
  317WAT      O 1192   5.152   1.294   7.915
  317WAT     H1 1193   5.249   1.316   7.900
  317WAT     H2 1194   5.121   1.334   8.001
  318WAT      O 1195   8.773   8.215   3.758
  318WAT     H1 1196   8.763   8.118   3.736
  318WAT     H2 1197   8.856   8.228   3.813
  319WAT      O 1198   5.857   6.957   5.275
  319WAT     H1 1199   5.947   6.988   5.244
  319WAT     H2 1200   5.835   6.869   5.231
  320WAT      O 1201   9.272   8.114   4.734
  320WAT     H1 1202   9.313   8.086   4.647
  320WAT     H2 1203   9.263   8.034   4.793
  321WAT      O 1204   6.494   0.614   2.675
  321WAT     H1 1205   6.462   0.592   2.766
  321WAT     H2 1206   6.459   0.547   2.609
  322WAT      O 1207   4.896   1.898   9.757
  322WAT     H1 1208   4.858   1.965   9.820
  322WAT     H2 1209   4.983   1.933   9.720
  323WAT      O 1210   2.762   7.427   3.226
  323WAT     H1 1211   2.735   7.456   3.318
  323WAT     H2 1212   2.846   7.474   3.200
  324WAT      O 1213   8.148   6.491   8.720
  324WAT     H1 1214   8.058   6.463   8.752
  324WAT     H2 1215   8.140   6.537   8.632
  325WAT      O 1216   6.136   7.359   7.987
  325WAT     H1 1217   6.151   7.353   7.888
  325WAT     H2 1218   6.157   7.271   8.030
  326WAT      O 1219   2.645   5.475   0.783
  326WAT     H1 1220   2.742   5.499   0.782
  326WAT     H2 1221   2.608   5.480   0.690
  327WAT      O 1222   0.008   9.428   0.868
  327WAT     H1 1223  -0.012   9.419   0.770
  327WAT     H2 1224   0.068   9.507   0.882
  328WAT      O 1225   6.784   0.851   6.920
  328WAT     H1 1226   6.863   0.822   6.975
  328WAT     H2 1227   6.730   0.916   6.972
  329WAT      O 1228   1.529   8.629   0.728
  329WAT     H1 1229   1.527   8.665   0.822
  329WAT     H2 1230   1.437   8.626   0.691
  330WAT      O 1231   0.094   5.097   2.329
  330WAT     H1 1232   0.076   4.999   2.339
  330WAT     H2 1233   0.067   5.144   2.413
  331WAT      O 1234   1.354   6.595   4.486
  331WAT     H1 1235   1.254   6.585   4.478
  331WAT     H2 1236   1.385   6.546   4.567
  332WAT      O 1237   3.888   1.364   0.004
  332WAT     H1 1238   3.900   1.275  -0.040
  332WAT     H2 1239   3.793   1.374   0.032
  333WAT      O 1240   2.265   7.368   6.689
  333WAT     H1 1241   2.322   7.398   6.613
  333WAT     H2 1242   2.186   7.317   6.654
  334WAT      O 1243   6.133   5.423   2.829
  334WAT     H1 1244   6.141   5.437   2.730
  334WAT     H2 1245   6.221   5.443   2.872
  335WAT      O 1246   6.359   4.354   3.961
  335WAT     H1 1247   6.315   4.285   4.018
  335WAT     H2 1248   6.458   4.353   3.978
  336WAT      O 1249   4.499   9.054   8.930
  336WAT     H1 1250   4.498   8.961   8.894
  336WAT     H2 1251   4.584   9.070   8.980
  337WAT      O 1252   9.303   5.330   6.248
  337WAT     H1 1253   9.229   5.381   6.203
  337WAT     H2 1254   9.293   5.337   6.347
  338WAT      O 1255   0.559   3.726   1.400
  338WAT     H1 1256   0.480   3.714   1.460
  338WAT     H2 1257   0.527   3.749   1.308
  339WAT      O 1258   1.862   3.412   5.012
  339WAT     H1 1259   1.881   3.330   5.066
  339WAT     H2 1260   1.842   3.385   4.917
  340WAT      O 1261   4.581   1.990   9.164
  340WAT     H1 1262   4.649   2.029   9.226
  340WAT     H2 1263   4.628   1.947   9.086
  341WAT      O 1264   2.712   3.942   7.646
  341WAT     H1 1265   2.701   3.892   7.561
  341WAT     H2 1266   2.766   4.025   7.629
  342WAT      O 1267   5.703   0.795   8.269
  342WAT     H1 1268   5.798   0.768   8.285
  342WAT     H2 1269   5.660   0.730   8.207
  343WAT      O 1270   3.135   4.459   9.124
  343WAT     H1 1271   3.168   4.374   9.082
  343WAT     H2 1272   3.083   4.511   9.055
  344WAT      O 1273   2.282   2.711   0.515
  344WAT     H1 1274   2.300   2.660   0.431
  344WAT     H2 1275   2.216   2.661   0.571
  345WAT      O 1276   3.605   8.440   5.384
  345WAT     H1 1277   3.701   8.421   5.365
  345WAT     H2 1278   3.598   8.503   5.462
  346WAT      O 1279   4.235   7.890   2.637
  346WAT     H1 1280   4.168   7.964   2.644
  346WAT     H2 1281   4.276   7.873   2.726
  347WAT      O 1282   7.873   5.449   7.435
  347WAT     H1 1283   7.803   5.511   7.471
  347WAT     H2 1284   7.875   5.366   7.490
  348WAT      O 1285   5.677   8.825   0.436
  348WAT     H1 1286   5.757   8.772   0.407
  348WAT     H2 1287   5.684   8.918   0.401
  349WAT      O 1288   4.233   2.183   9.773
  349WAT     H1 1289   4.233   2.115   9.845
  349WAT     H2 1290   4.274   2.268   9.807
  350WAT      O 1291   7.844   6.789   9.645
  350WAT     H1 1292   7.769   6.817   9.705
  350WAT     H2 1293   7.859   6.860   9.576
  351WAT      O 1294   8.282   1.957   2.013
  351WAT     H1 1295   8.224   2.039   2.013
  351WAT     H2 1296   8.370   1.979   1.971
  352WAT      O 1297   1.478   5.595   0.439
  352WAT     H1 1298   1.446   5.503   0.414
  352WAT     H2 1299   1.558   5.619   0.384
  353WAT      O 1300   7.047   5.233   2.048
  353WAT     H1 1301   7.110   5.303   2.015
  353WAT     H2 1302   7.098   5.150   2.071
  354WAT      O 1303   8.774   4.668   9.543
  354WAT     H1 1304   8.711   4.590   9.555
  354WAT     H2 1305   8.820   4.686   9.630
  355WAT      O 1306   9.283   5.180   6.744
  355WAT     H1 1307   9.202   5.122   6.743
  355WAT     H2 1308   9.297   5.215   6.837
  356WAT      O 1309   3.597   0.349   8.672
  356WAT     H1 1310   3.577   0.263   8.719
  356WAT     H2 1311   3.518   0.409   8.679
  357WAT      O 1312   1.197   3.635   9.544
  357WAT     H1 1313   1.222   3.703   9.475
  357WAT     H2 1314   1.100   3.644   9.567
  358WAT      O 1315   0.678   5.550   4.922
  358WAT     H1 1316   0.678   5.497   4.837
  358WAT     H2 1317   0.737   5.505   4.989
  359WAT      O 1318   4.571   6.797   4.214
  359WAT     H1 1319   4.633   6.773   4.289
  359WAT     H2 1320   4.514   6.874   4.242
  360WAT      O 1321   8.655   8.487   1.601
  360WAT     H1 1322   8.733   8.499   1.661
  360WAT     H2 1323   8.618   8.395   1.612
  361WAT      O 1324   9.144   5.553   6.186
  361WAT     H1 1325   9.140   5.642   6.140
  361WAT     H2 1326   9.216   5.556   6.255
  362WAT      O 1327   9.608   9.803   4.758
  362WAT     H1 1328   9.647   9.817   4.849
  362WAT     H2 1329   9.525   9.859   4.749
  363WAT      O 1330   4.742   7.629   1.515
  363WAT     H1 1331   4.812   7.692   1.549
  363WAT     H2 1332   4.659   7.637   1.571
  364WAT      O 1333   2.103   9.771   6.816
  364WAT     H1 1334   2.178   9.707   6.799
  364WAT     H2 1335   2.135   9.846   6.873
  365WAT      O 1336   0.694   1.330   3.408
  365WAT     H1 1337   0.733   1.375   3.488
  365WAT     H2 1338   0.636   1.396   3.359
  366WAT      O 1339   5.072   8.716   5.666
  366WAT     H1 1340   5.153   8.690   5.718
  366WAT     H2 1341   5.026   8.634   5.633
  367WAT      O 1342   6.244   8.827   2.477
  367WAT     H1 1343   6.258   8.902   2.412
  367WAT     H2 1344   6.168   8.850   2.538
  368WAT      O 1345   5.015   5.805   4.687
  368WAT     H1 1346   5.114   5.789   4.693
  368WAT     H2 1347   4.977   5.749   4.613
  369WAT      O 1348   4.009   0.071   4.678
  369WAT     H1 1349   4.062   0.116   4.750
  369WAT     H2 1350   4.052  -0.015   4.653
  370WAT      O 1351   4.808   0.230   7.113
  370WAT     H1 1352   4.820   0.284   7.196
  370WAT     H2 1353   4.894   0.226   7.062
  371WAT      O 1354   3.358   9.529   5.828
  371WAT     H1 1355   3.297   9.454   5.855
  371WAT     H2 1356   3.403   9.505   5.742
  372WAT      O 1357   5.174   3.092   1.191
  372WAT     H1 1358   5.129   3.181   1.202
  372WAT     H2 1359   5.109   3.026   1.153
  373WAT      O 1360   4.420   7.929   7.526
  373WAT     H1 1361   4.339   7.921   7.468
  373WAT     H2 1362   4.473   7.844   7.520
  374WAT      O 1363   4.182   6.377   8.791
  374WAT     H1 1364   4.199   6.423   8.878
  374WAT     H2 1365   4.193   6.278   8.802
  375WAT      O 1366   5.588   6.279   2.396
  375WAT     H1 1367   5.676   6.235   2.411
  375WAT     H2 1368   5.565   6.334   2.476
  376WAT      O 1369   2.930   5.557   1.862
  376WAT     H1 1370   2.847   5.541   1.917
  376WAT     H2 1371   2.931   5.651   1.830
  377WAT      O 1372   6.897   1.819   4.079
  377WAT     H1 1373   6.939   1.831   3.988
  377WAT     H2 1374   6.798   1.811   4.069
  378WAT      O 1375   3.758   4.407   7.537
  378WAT     H1 1376   3.731   4.501   7.558
  378WAT     H2 1377   3.685   4.344   7.565
  379WAT      O 1378   8.039   6.345   3.335
  379WAT     H1 1379   8.021   6.285   3.412
  379WAT     H2 1380   8.137   6.365   3.330
  380WAT      O 1381   6.717   9.445   0.838
  380WAT     H1 1382   6.713   9.428   0.739
  380WAT     H2 1383   6.625   9.467   0.872
  381WAT      O 1384   5.120   7.630   8.955
  381WAT     H1 1385   5.168   7.717   8.946
  381WAT     H2 1386   5.070   7.611   8.870
  382WAT      O 1387   0.332   2.688   0.742
  382WAT     H1 1388   0.354   2.594   0.768
  382WAT     H2 1389   0.415   2.743   0.744
  383WAT      O 1390   9.590   3.516   2.484
  383WAT     H1 1391   9.598   3.580   2.561
  383WAT     H2 1392   9.540   3.435   2.513
  384WAT      O 1393   8.226   5.924   7.370
  384WAT     H1 1394   8.217   5.943   7.467
  384WAT     H2 1395   8.218   6.010   7.318
  385WAT      O 1396   1.527   7.764   4.686
  385WAT     H1 1397   1.567   7.822   4.615
  385WAT     H2 1398   1.594   7.695   4.715
  386WAT      O 1399   1.170   8.394   9.767
  386WAT     H1 1400   1.117   8.440   9.839
  386WAT     H2 1401   1.175   8.453   9.687
  387WAT      O 1402   1.772   0.412   7.215
  387WAT     H1 1403   1.712   0.452   7.285
  387WAT     H2 1404   1.862   0.456   7.219
  388WAT      O 1405   8.758   0.146   0.221
  388WAT     H1 1406   8.699   0.081   0.173
  388WAT     H2 1407   8.851   0.141   0.184
  389WAT      O 1408   0.829   2.979   8.796
  389WAT     H1 1409   0.911   2.926   8.813
  389WAT     H2 1410   0.843   3.038   8.716
  390WAT      O 1411   3.290   0.595   0.026
  390WAT     H1 1412   3.313   0.578   0.122
  390WAT     H2 1413   3.354   0.545  -0.033
  391WAT      O 1414   6.391   3.943   3.457
  391WAT     H1 1415   6.332   3.963   3.536
  391WAT     H2 1416   6.344   3.968   3.373
  392WAT      O 1417   7.977   2.757   1.205
  392WAT     H1 1418   7.995   2.856   1.210
  392WAT     H2 1419   7.878   2.741   1.210
  393WAT      O 1420   0.809   9.475   4.504
  393WAT     H1 1421   0.757   9.498   4.586
  393WAT     H2 1422   0.780   9.385   4.470
  394WAT      O 1423   9.418   9.411   5.426
  394WAT     H1 1424   9.511   9.440   5.406
  394WAT     H2 1425   9.399   9.324   5.379
  395WAT      O 1426   2.112   4.571   3.315
  395WAT     H1 1427   2.201   4.526   3.318
  395WAT     H2 1428   2.123   4.668   3.336
  396WAT      O 1429   8.237   4.519   6.480
  396WAT     H1 1430   8.209   4.606   6.520
  396WAT     H2 1431   8.182   4.501   6.398
  397WAT      O 1432   4.295   6.872   8.480
  397WAT     H1 1433   4.383   6.869   8.432
  397WAT     H2 1434   4.222   6.857   8.414
  398WAT      O 1435   6.084   4.873   6.004
  398WAT     H1 1436   6.027   4.945   5.966
  398WAT     H2 1437   6.180   4.902   6.004
  399WAT      O 1438   1.892   5.930   6.041
  399WAT     H1 1439   1.814   5.982   6.075
  399WAT     H2 1440   1.890   5.928   5.941
  400WAT      O 1441   4.617   8.831   0.009
  400WAT     H1 1442   4.575   8.921  -0.005
  400WAT     H2 1443   4.599   8.800   0.103
  401WAT      O 1444   3.339   7.790   2.052
  401WAT     H1 1445   3.254   7.841   2.056
  401WAT     H2 1446   3.411   7.848   2.013
  402WAT      O 1447   5.458   5.556   2.774
  402WAT     H1 1448   5.547   5.595   2.798
  402WAT     H2 1449   5.460   5.526   2.678
  403WAT      O 1450   0.048   9.588   2.921
  403WAT     H1 1451  -0.035   9.552   2.878
  403WAT     H2 1452   0.113   9.513   2.935
  404WAT      O 1453   3.268   9.014   6.656
  404WAT     H1 1454   3.329   8.941   6.688
  404WAT     H2 1455   3.273   9.092   6.718
  405WAT      O 1456   1.421   2.085   8.779
  405WAT     H1 1457   1.520   2.092   8.784
  405WAT     H2 1458   1.380   2.135   8.855
  406WAT      O 1459   1.436   4.106   3.737
  406WAT     H1 1460   1.510   4.042   3.713
  406WAT     H2 1461   1.348   4.066   3.711
  407WAT      O 1462   3.553   2.176   4.284
  407WAT     H1 1463   3.634   2.220   4.244
  407WAT     H2 1464   3.581   2.115   4.358
  408WAT      O 1465   0.296   0.957   4.593
  408WAT     H1 1466   0.314   0.858   4.593
  408WAT     H2 1467   0.206   0.974   4.633
  409WAT      O 1468   4.611   2.570   1.226
  409WAT     H1 1469   4.543   2.512   1.182
  409WAT     H2 1470   4.592   2.577   1.323
  410WAT      O 1471   1.637   5.047   9.192
  410WAT     H1 1472   1.585   5.004   9.118
  410WAT     H2 1473   1.653   5.143   9.170
  411WAT      O 1474   7.277   2.779   0.410
  411WAT     H1 1475   7.342   2.819   0.474
  411WAT     H2 1476   7.266   2.682   0.429
  412WAT      O 1477   1.792   2.942   6.318
  412WAT     H1 1478   1.779   2.882   6.239
  412WAT     H2 1479   1.779   3.037   6.290
  413WAT      O 1480   3.081   6.375   7.719
  413WAT     H1 1481   3.160   6.432   7.740
  413WAT     H2 1482   3.010   6.431   7.677
  414WAT      O 1483   9.308   3.208   0.569
  414WAT     H1 1484   9.235   3.188   0.505
  414WAT     H2 1485   9.377   3.135   0.565
  415WAT      O 1486   2.686   6.540   1.381
  415WAT     H1 1487   2.713   6.462   1.438
  415WAT     H2 1488   2.631   6.603   1.436
  416WAT      O 1489   9.469   4.230   6.075
  416WAT     H1 1490   9.381   4.257   6.037
  416WAT     H2 1491   9.528   4.311   6.083
  417WAT      O 1492   9.707   0.665   0.144
  417WAT     H1 1493   9.785   0.630   0.093
  417WAT     H2 1494   9.710   0.630   0.238
  418WAT      O 1495   6.091   5.620   8.494
  418WAT     H1 1496   6.159   5.550   8.476
  418WAT     H2 1497   6.094   5.690   8.423
  419WAT      O 1498   5.333   6.071   8.411
  419WAT     H1 1499   5.286   6.044   8.495
  419WAT     H2 1500   5.348   5.991   8.354
  420WAT      O 1501   8.304   2.021   1.717
  420WAT     H1 1502   8.250   1.955   1.664
  420WAT     H2 1503   8.243   2.090   1.756
  421WAT      O 1504   3.900   8.621   8.118
  421WAT     H1 1505   3.969   8.549   8.115
  421WAT     H2 1506   3.826   8.593   8.180
  422WAT      O 1507   3.381   2.552   5.965
  422WAT     H1 1508   3.385   2.616   6.042
  422WAT     H2 1509   3.325   2.472   5.990
  423WAT      O 1510   6.851   6.843   2.247
  423WAT     H1 1511   6.894   6.776   2.307
  423WAT     H2 1512   6.869   6.818   2.152
  424WAT      O 1513   0.147   3.192   8.413
  424WAT     H1 1514   0.228   3.174   8.469
  424WAT     H2 1515   0.073   3.132   8.441
  425WAT      O 1516   6.098   2.905   1.967
  425WAT     H1 1517   6.004   2.932   1.943
  425WAT     H2 1518   6.158   2.985   1.958
  426WAT      O 1519   9.047   6.429   1.821
  426WAT     H1 1520   8.967   6.408   1.765
  426WAT     H2 1521   9.086   6.345   1.857
  427WAT      O 1522   0.652   6.181   3.711
  427WAT     H1 1523   0.729   6.223   3.759
  427WAT     H2 1524   0.680   6.153   3.620
  428WAT      O 1525   5.518   4.330   6.277
  428WAT     H1 1526   5.490   4.372   6.364
  428WAT     H2 1527   5.576   4.250   6.296
  429WAT      O 1528   7.856   8.526   3.184
  429WAT     H1 1529   7.901   8.550   3.269
  429WAT     H2 1530   7.764   8.491   3.203
  430WAT      O 1531   0.858   9.420   1.829
  430WAT     H1 1532   0.776   9.406   1.883
  430WAT     H2 1533   0.836   9.476   1.749
  431WAT      O 1534   0.392   4.754   1.648
  431WAT     H1 1535   0.312   4.779   1.595
  431WAT     H2 1536   0.475   4.783   1.600
  432WAT      O 1537   6.550   5.218   3.720
  432WAT     H1 1538   6.642   5.245   3.694
  432WAT     H2 1539   6.554   5.165   3.805
  433WAT      O 1540   8.819   0.675   0.376
  433WAT     H1 1541   8.785   0.769   0.385
  433WAT     H2 1542   8.867   0.665   0.289
  434WAT      O 1543   5.481   9.566   3.862
  434WAT     H1 1544   5.554   9.508   3.824
  434WAT     H2 1545   5.394   9.519   3.854
  435WAT      O 1546   8.744   2.755   8.085
  435WAT     H1 1547   8.734   2.790   7.992
  435WAT     H2 1548   8.654   2.749   8.128
  436WAT      O 1549   1.850   0.426   8.792
  436WAT     H1 1550   1.799   0.511   8.809
  436WAT     H2 1551   1.840   0.400   8.696
  437WAT      O 1552   8.421   6.760   9.006
  437WAT     H1 1553   8.393   6.856   9.009
  437WAT     H2 1554   8.487   6.742   9.079
  438WAT      O 1555   4.440   9.209   0.452
  438WAT     H1 1556   4.524   9.193   0.399
  438WAT     H2 1557   4.362   9.214   0.390
  439WAT      O 1558   9.114   2.663   6.148
  439WAT     H1 1559   9.090   2.596   6.219
  439WAT     H2 1560   9.182   2.727   6.185
  440WAT      O 1561   3.663   3.944   0.941
  440WAT     H1 1562   3.627   3.852   0.954
  440WAT     H2 1563   3.603   3.994   0.877
  441WAT      O 1564   2.874   4.594   8.318
  441WAT     H1 1565   2.831   4.517   8.271
  441WAT     H2 1566   2.816   4.675   8.309
  442WAT      O 1567   6.745   0.990   9.235
  442WAT     H1 1568   6.732   0.895   9.265
  442WAT     H2 1569   6.656   1.033   9.222
  443WAT      O 1570   4.781   6.750   0.217
  443WAT     H1 1571   4.682   6.739   0.227
  443WAT     H2 1572   4.826   6.662   0.234
  444WAT      O 1573   1.330   4.162   1.483
  444WAT     H1 1574   1.269   4.205   1.416
  444WAT     H2 1575   1.384   4.091   1.438
  445WAT      O 1576   9.765   2.516   3.953
  445WAT     H1 1577   9.842   2.538   3.893
  445WAT     H2 1578   9.740   2.420   3.941
  446WAT      O 1579   4.316   5.550   8.167
  446WAT     H1 1580   4.259   5.544   8.085
  446WAT     H2 1581   4.294   5.474   8.228
  447WAT      O 1582   0.830   8.644   3.813
  447WAT     H1 1583   0.801   8.614   3.903
  447WAT     H2 1584   0.793   8.583   3.743
  448WAT      O 1585   0.889   1.475   3.293
  448WAT     H1 1586   0.935   1.521   3.369
  448WAT     H2 1587   0.835   1.398   3.327
  449WAT      O 1588   0.119   6.301   2.573
  449WAT     H1 1589   0.188   6.237   2.606
  449WAT     H2 1590   0.058   6.254   2.510
  450WAT      O 1591   8.338   6.248   4.981
  450WAT     H1 1592   8.265   6.230   5.046
  450WAT     H2 1593   8.424   6.210   5.015
  451WAT      O 1594   9.331   4.017   8.740
  451WAT     H1 1595   9.332   3.919   8.723
  451WAT     H2 1596   9.274   4.036   8.820
  452WAT      O 1597   4.235   6.712   4.716
  452WAT     H1 1598   4.283   6.648   4.657
  452WAT     H2 1599   4.294   6.790   4.736
  453WAT      O 1600   7.360   2.223   5.005
  453WAT     H1 1601   7.371   2.307   5.058
  453WAT     H2 1602   7.331   2.149   5.066
  454WAT      O 1603   7.979   4.732   6.753
  454WAT     H1 1604   7.941   4.791   6.823
  454WAT     H2 1605   7.905   4.692   6.699
  455WAT      O 1606   4.380   7.204   4.741
  455WAT     H1 1607   4.478   7.194   4.759
  455WAT     H2 1608   4.363   7.193   4.643
  456WAT      O 1609   0.515   6.220   5.299
  456WAT     H1 1610   0.504   6.307   5.251
  456WAT     H2 1611   0.598   6.224   5.355
  457WAT      O 1612   2.792   3.470   7.508
  457WAT     H1 1613   2.715   3.406   7.512
  457WAT     H2 1614   2.825   3.476   7.414
  458WAT      O 1615   6.966   5.354   0.054
  458WAT     H1 1616   6.988   5.301   0.136
  458WAT     H2 1617   6.982   5.451   0.071
  459WAT      O 1618   9.591   6.869   4.262
  459WAT     H1 1619   9.534   6.950   4.273
  459WAT     H2 1620   9.534   6.792   4.234
  460WAT      O 1621   7.091   3.948   0.671
  460WAT     H1 1622   7.083   4.039   0.631
  460WAT     H2 1623   7.105   3.881   0.598
  461WAT      O 1624   4.547   3.504   5.786
  461WAT     H1 1625   4.610   3.462   5.721
  461WAT     H2 1626   4.599   3.553   5.856
  462WAT      O 1627   7.593   4.631   6.916
  462WAT     H1 1628   7.553   4.689   6.844
  462WAT     H2 1629   7.649   4.560   6.873
  463WAT      O 1630   9.529   3.972   5.377
  463WAT     H1 1631   9.494   4.063   5.355
  463WAT     H2 1632   9.624   3.980   5.408
  464WAT      O 1633   4.982   2.907   4.593
  464WAT     H1 1634   4.899   2.919   4.539
  464WAT     H2 1635   4.961   2.925   4.689
  465WAT      O 1636   1.792   9.568   7.851
  465WAT     H1 1637   1.804   9.559   7.950
  465WAT     H2 1638   1.710   9.519   7.823
  466WAT      O 1639   8.077   5.028   8.986
  466WAT     H1 1640   8.163   5.032   9.036
  466WAT     H2 1641   8.066   5.109   8.929
  467WAT      O 1642   4.023   1.797   2.125
  467WAT     H1 1643   4.115   1.812   2.087
  467WAT     H2 1644   3.957   1.791   2.050
  468WAT      O 1645   7.244   4.652   9.255
  468WAT     H1 1646   7.340   4.640   9.231
  468WAT     H2 1647   7.234   4.651   9.355
  469WAT      O 1648   0.403   8.168   0.303
  469WAT     H1 1649   0.384   8.164   0.401
  469WAT     H2 1650   0.425   8.076   0.270
  470WAT      O 1651   8.862   8.976   0.781
  470WAT     H1 1652   8.843   8.913   0.707
  470WAT     H2 1653   8.957   8.967   0.810
  471WAT      O 1654   1.925   8.204   6.330
  471WAT     H1 1655   1.984   8.274   6.289
  471WAT     H2 1656   1.890   8.143   6.259
  472WAT      O 1657   2.474   7.123   4.826
  472WAT     H1 1658   2.561   7.108   4.872
  472WAT     H2 1659   2.436   7.210   4.855
  473WAT      O 1660   7.561   1.652   9.507
  473WAT     H1 1661   7.476   1.704   9.518
  473WAT     H2 1662   7.634   1.713   9.476
  474WAT      O 1663   1.482   5.314   3.024
  474WAT     H1 1664   1.464   5.291   2.929
  474WAT     H2 1665   1.578   5.338   3.036
  475WAT      O 1666   8.085   5.026   5.453
  475WAT     H1 1667   8.053   4.931   5.448
  475WAT     H2 1668   8.174   5.029   5.499
  476WAT      O 1669   7.231   4.208   3.774
  476WAT     H1 1670   7.320   4.239   3.742
  476WAT     H2 1671   7.240   4.163   3.863
  477WAT      O 1672   8.745   7.198   4.819
  477WAT     H1 1673   8.795   7.128   4.769
  477WAT     H2 1674   8.790   7.215   4.906
  478WAT      O 1675   2.304   0.826   4.972
  478WAT     H1 1676   2.288   0.905   5.031
  478WAT     H2 1677   2.397   0.831   4.935
  479WAT      O 1678   7.672   7.119   1.650
  479WAT     H1 1679   7.580   7.092   1.678
  479WAT     H2 1680   7.737   7.094   1.722
  480WAT      O 1681   5.997   2.485   0.465
  480WAT     H1 1682   6.033   2.559   0.407
  480WAT     H2 1683   5.926   2.436   0.415
  481WAT      O 1684   5.215   9.433   5.086
  481WAT     H1 1685   5.282   9.397   5.021
  481WAT     H2 1686   5.174   9.516   5.048
  482WAT      O 1687   5.338   6.554   6.365
  482WAT     H1 1688   5.248   6.581   6.331
  482WAT     H2 1689   5.334   6.461   6.401
  483WAT      O 1690   2.439   3.397   2.744
  483WAT     H1 1691   2.440   3.359   2.837
  483WAT     H2 1692   2.349   3.383   2.704
  484WAT      O 1693   3.476   5.422   4.569
  484WAT     H1 1694   3.449   5.409   4.474
  484WAT     H2 1695   3.516   5.513   4.580
  485WAT      O 1696   2.302   5.049   3.792
  485WAT     H1 1697   2.209   5.020   3.816
  485WAT     H2 1698   2.306   5.068   3.694
  486WAT      O 1699   8.547   2.298   8.485
  486WAT     H1 1700   8.635   2.260   8.455
  486WAT     H2 1701   8.472   2.245   8.445
  487WAT      O 1702   4.201   5.111   1.658
  487WAT     H1 1703   4.236   5.197   1.694
  487WAT     H2 1704   4.167   5.126   1.565
  488WAT      O 1705   2.684   7.985   1.614
  488WAT     H1 1706   2.594   7.948   1.591
  488WAT     H2 1707   2.690   8.080   1.585
  489WAT      O 1708   8.798   3.182   4.090
  489WAT     H1 1709   8.782   3.094   4.136
  489WAT     H2 1710   8.801   3.168   3.991
  490WAT      O 1711   3.644   0.292   2.901
  490WAT     H1 1712   3.656   0.390   2.887
  490WAT     H2 1713   3.565   0.261   2.847
  491WAT      O 1714   2.084   7.016   1.672
  491WAT     H1 1715   2.051   7.110   1.666
  491WAT     H2 1716   2.144   7.007   1.752
  492WAT      O 1717   6.920   4.738   2.609
  492WAT     H1 1718   6.974   4.804   2.660
  492WAT     H2 1719   6.872   4.677   2.673
  493WAT      O 1720   6.786   7.536   3.627
  493WAT     H1 1721   6.770   7.614   3.567
  493WAT     H2 1722   6.867   7.486   3.595
  494WAT      O 1723   9.527   1.153   6.564
  494WAT     H1 1724   9.441   1.205   6.567
  494WAT     H2 1725   9.587   1.193   6.495
  495WAT      O 1726   9.285   9.427   7.111
  495WAT     H1 1727   9.298   9.333   7.080
  495WAT     H2 1728   9.285   9.429   7.211
  496WAT      O 1729   3.252   6.123   8.931
  496WAT     H1 1730   3.270   6.079   9.019
  496WAT     H2 1731   3.154   6.125   8.913
  497WAT      O 1732   7.172   6.398   9.536
  497WAT     H1 1733   7.100   6.398   9.467
  497WAT     H2 1734   7.252   6.445   9.500
  498WAT      O 1735   0.260   9.051   6.793
  498WAT     H1 1736   0.296   9.090   6.709
  498WAT     H2 1737   0.272   9.115   6.869
  499WAT      O 1738   8.175   7.912   0.084
  499WAT     H1 1739   8.115   7.912   0.164
  499WAT     H2 1740   8.125   7.880   0.004
  500WAT      O 1741   1.452   6.302   5.761
  500WAT     H1 1742   1.356   6.276   5.753
  500WAT     H2 1743   1.507   6.222   5.782
  501WAT      O 1744   2.042   3.687   2.329
  501WAT     H1 1745   2.110   3.623   2.365
  501WAT     H2 1746   1.999   3.649   2.247
  502WAT      O 1747   5.271   3.210   7.575
  502WAT     H1 1748   5.298   3.128   7.525
  502WAT     H2 1749   5.249   3.283   7.510
  503WAT      O 1750   8.149   7.274   2.303
  503WAT     H1 1751   8.149   7.371   2.325
  503WAT     H2 1752   8.055   7.241   2.295
  504WAT      O 1753   5.896   4.689   1.614
  504WAT     H1 1754   5.807   4.695   1.569
  504WAT     H2 1755   5.955   4.626   1.564
  505WAT      O 1756   9.466   8.499   4.429
  505WAT     H1 1757   9.423   8.564   4.366
  505WAT     H2 1758   9.565   8.499   4.413
  506WAT      O 1759   5.828   1.997   5.883
  506WAT     H1 1760   5.732   1.969   5.886
  506WAT     H2 1761   5.884   1.929   5.931
  507WAT      O 1762   8.200   9.120   5.295
  507WAT     H1 1763   8.221   9.046   5.358
  507WAT     H2 1764   8.238   9.206   5.330
  508WAT      O 1765   4.513   4.895   8.845
  508WAT     H1 1766   4.554   4.934   8.927
  508WAT     H2 1767   4.413   4.902   8.852
  509WAT      O 1768   1.731   4.917   2.144
  509WAT     H1 1769   1.656   4.859   2.112
  509WAT     H2 1770   1.809   4.860   2.171
  510WAT      O 1771   8.627   3.317   9.674
  510WAT     H1 1772   8.545   3.297   9.621
  510WAT     H2 1773   8.601   3.350   9.765
  511WAT      O 1774   1.873   5.497   7.481
  511WAT     H1 1775   1.963   5.505   7.524
  511WAT     H2 1776   1.814   5.440   7.539
  512WAT      O 1777   3.453   2.393   0.422
  512WAT     H1 1778   3.418   2.473   0.471
  512WAT     H2 1779   3.391   2.372   0.346
  513WAT      O 1780   2.115   4.587   9.489
  513WAT     H1 1781   2.053   4.657   9.455
  513WAT     H2 1782   2.199   4.629   9.523
  514WAT      O 1783   1.442   7.535   8.017
  514WAT     H1 1784   1.430   7.633   8.003
  514WAT     H2 1785   1.520   7.519   8.077
  515WAT      O 1786   6.651   3.555   0.913
  515WAT     H1 1787   6.652   3.651   0.942
  515WAT     H2 1788   6.743   3.517   0.919
  516WAT      O 1789   8.425   7.648   8.554
  516WAT     H1 1790   8.356   7.696   8.499
  516WAT     H2 1791   8.431   7.553   8.524
  517WAT      O 1792   3.543   5.912   4.232
  517WAT     H1 1793   3.467   5.861   4.273
  517WAT     H2 1794   3.584   5.857   4.160
  518WAT      O 1795   0.857   6.032   1.327
  518WAT     H1 1796   0.815   5.942   1.321
  518WAT     H2 1797   0.843   6.070   1.418
  519WAT      O 1798   5.557   5.924   3.220
  519WAT     H1 1799   5.485   5.855   3.223
  519WAT     H2 1800   5.576   5.957   3.313
  520WAT      O 1801   9.643   9.654   5.264
  520WAT     H1 1802   9.652   9.728   5.330
  520WAT     H2 1803   9.671   9.568   5.306
  521WAT      O 1804   3.457   1.243   0.107
  521WAT     H1 1805   3.493   1.178   0.174
  521WAT     H2 1806   3.363   1.219   0.084
  522WAT      O 1807   4.514   6.234   1.344
  522WAT     H1 1808   4.471   6.313   1.386
  522WAT     H2 1809   4.582   6.196   1.407
  523WAT      O 1810   9.782   1.810   2.078
  523WAT     H1 1811   9.805   1.824   2.175
  523WAT     H2 1812   9.784   1.898   2.031
  524WAT      O 1813   7.566   7.771   3.241
  524WAT     H1 1814   7.572   7.798   3.145
  524WAT     H2 1815   7.650   7.726   3.269
  525WAT      O 1816   7.066   0.365   8.826
  525WAT     H1 1817   6.989   0.418   8.862
  525WAT     H2 1818   7.051   0.345   8.730
  526WAT      O 1819   9.272   7.990   6.234
  526WAT     H1 1820   9.252   8.067   6.174
  526WAT     H2 1821   9.326   7.922   6.184
  527WAT      O 1822   5.814   3.580   3.889
  527WAT     H1 1823   5.721   3.559   3.857
  527WAT     H2 1824   5.811   3.662   3.946
  528WAT      O 1825   7.419   8.866   5.510
  528WAT     H1 1826   7.445   8.911   5.595
  528WAT     H2 1827   7.353   8.922   5.461
  529WAT      O 1828   9.816   0.519   4.349
  529WAT     H1 1829   9.769   0.576   4.282
  529WAT     H2 1830   9.817   0.424   4.317
  530WAT      O 1831   4.853   0.383   2.700
  530WAT     H1 1832   4.840   0.303   2.758
  530WAT     H2 1833   4.861   0.353   2.604
  531WAT      O 1834   4.252   4.460   3.922
  531WAT     H1 1835   4.279   4.364   3.924
  531WAT     H2 1836   4.184   4.476   3.995
  532WAT      O 1837   6.098   6.743   5.305
  532WAT     H1 1838   6.072   6.804   5.229
  532WAT     H2 1839   6.147   6.795   5.374
  533WAT      O 1840   4.789   7.390   5.823
  533WAT     H1 1841   4.821   7.474   5.866
  533WAT     H2 1842   4.707   7.358   5.869
  534WAT      O 1843   3.973   3.980   7.657
  534WAT     H1 1844   3.969   3.880   7.657
  534WAT     H2 1845   3.936   4.014   7.744
  535WAT      O 1846   1.812   8.269   2.809
  535WAT     H1 1847   1.792   8.235   2.901
  535WAT     H2 1848   1.911   8.277   2.798
  536WAT      O 1849   2.944   3.398   1.202
  536WAT     H1 1850   2.858   3.413   1.152
  536WAT     H2 1851   3.014   3.363   1.140
  537WAT      O 1852   1.256   9.070   8.002
  537WAT     H1 1853   1.329   9.103   7.942
  537WAT     H2 1854   1.175   9.047   7.947
  538WAT      O 1855   4.533   2.390   9.359
  538WAT     H1 1856   4.606   2.369   9.294
  538WAT     H2 1857   4.458   2.436   9.311
  539WAT      O 1858   1.136   1.531   3.118
  539WAT     H1 1859   1.174   1.441   3.098
  539WAT     H2 1860   1.043   1.520   3.154
  540WAT      O 1861   3.303   7.506   5.099
  540WAT     H1 1862   3.361   7.540   5.173
  540WAT     H2 1863   3.311   7.406   5.093
  541WAT      O 1864   6.310   5.370   7.518
  541WAT     H1 1865   6.210   5.377   7.519
  541WAT     H2 1866   6.349   5.449   7.472
  542WAT      O 1867   4.527   0.595   0.711
  542WAT     H1 1868   4.447   0.553   0.755
  542WAT     H2 1869   4.552   0.542   0.630
  543WAT      O 1870   3.535   8.336   8.452
  543WAT     H1 1871   3.474   8.406   8.414
  543WAT     H2 1872   3.483   8.252   8.467
  544WAT      O 1873   2.939   6.957   2.165
  544WAT     H1 1874   2.924   6.860   2.148
  544WAT     H2 1875   2.892   6.984   2.249
  545WAT      O 1876   9.472   4.770   2.108
  545WAT     H1 1877   9.546   4.751   2.172
  545WAT     H2 1878   9.494   4.851   2.054
  546WAT      O 1879   7.221   6.084   3.402
  546WAT     H1 1880   7.318   6.097   3.384
  546WAT     H2 1881   7.209   6.051   3.496
  547WAT      O 1882   9.517   1.433   5.575
  547WAT     H1 1883   9.568   1.352   5.546
  547WAT     H2 1884   9.464   1.410   5.657
  548WAT      O 1885   1.104   8.877   0.766
  548WAT     H1 1886   1.087   8.902   0.671
  548WAT     H2 1887   1.097   8.959   0.823
  549WAT      O 1888   0.296   2.029   8.329
  549WAT     H1 1889   0.337   2.118   8.347
  549WAT     H2 1890   0.202   2.042   8.296
  550WAT      O 1891   7.269   8.812   6.266
  550WAT     H1 1892   7.266   8.907   6.237
  550WAT     H2 1893   7.284   8.753   6.187
  551WAT      O 1894   2.040   5.841   7.776
  551WAT     H1 1895   1.947   5.808   7.760
  551WAT     H2 1896   2.099   5.764   7.802
  552WAT      O 1897   7.632   0.154   1.710
  552WAT     H1 1898   7.551   0.213   1.712
  552WAT     H2 1899   7.633   0.101   1.625
  553WAT      O 1900   0.765   2.810   7.231
  553WAT     H1 1901   0.739   2.847   7.320
  553WAT     H2 1902   0.843   2.748   7.241
  554WAT      O 1903   6.248   5.674   2.361
  554WAT     H1 1904   6.304   5.710   2.286
  554WAT     H2 1905   6.170   5.624   2.323
  555WAT      O 1906   7.214   7.853   2.363
  555WAT     H1 1907   7.252   7.939   2.400
  555WAT     H2 1908   7.287   7.797   2.326
  556WAT      O 1909   2.336   2.680   7.460
  556WAT     H1 1910   2.299   2.649   7.548
  556WAT     H2 1911   2.262   2.683   7.393
  557WAT      O 1912   2.101   9.149   5.600
  557WAT     H1 1913   2.175   9.082   5.607
  557WAT     H2 1914   2.129   9.235   5.641
  558WAT      O 1915   2.270   5.750   0.170
  558WAT     H1 1916   2.201   5.712   0.231
  558WAT     H2 1917   2.350   5.778   0.223
  559WAT      O 1918   8.846   4.546   1.006
  559WAT     H1 1919   8.830   4.535   1.104
  559WAT     H2 1920   8.760   4.532   0.956
  560WAT      O 1921   1.397   2.506   3.482
  560WAT     H1 1922   1.371   2.547   3.394
  560WAT     H2 1923   1.326   2.525   3.550
  561WAT      O 1924   8.811   9.675   7.300
  561WAT     H1 1925   8.748   9.668   7.377
  561WAT     H2 1926   8.760   9.689   7.216
  562WAT      O 1927   4.189   4.733   6.105
  562WAT     H1 1928   4.168   4.724   6.202
  562WAT     H2 1929   4.268   4.794   6.094
  563WAT      O 1930   2.541   0.271   6.805
  563WAT     H1 1931   2.526   0.261   6.904
  563WAT     H2 1932   2.616   0.211   6.777
  564WAT      O 1933   8.564   9.092   0.080
  564WAT     H1 1934   8.608   9.148   0.011
  564WAT     H2 1935   8.627   9.077   0.156
  565WAT      O 1936   3.586   2.601   8.822
  565WAT     H1 1937   3.609   2.620   8.917
  565WAT     H2 1938   3.559   2.686   8.776
  566WAT      O 1939   4.954   6.245   5.925
  566WAT     H1 1940   5.025   6.196   5.874
  566WAT     H2 1941   4.888   6.180   5.961
  567WAT      O 1942   6.860   1.290   9.608
  567WAT     H1 1943   6.764   1.272   9.630
  567WAT     H2 1944   6.919   1.242   9.672
  568WAT      O 1945   2.079   7.423   7.747
  568WAT     H1 1946   2.158   7.481   7.727
  568WAT     H2 1947   2.044   7.383   7.662
  569WAT      O 1948   6.441   3.557   6.595
  569WAT     H1 1949   6.434   3.567   6.694
  569WAT     H2 1950   6.528   3.596   6.563
  570WAT      O 1951   8.719   8.499   5.338
  570WAT     H1 1952   8.776   8.576   5.309
  570WAT     H2 1953   8.751   8.465   5.427
  571WAT      O 1954   8.354   7.020   8.952
  571WAT     H1 1955   8.434   7.079   8.958
  571WAT     H2 1956   8.276   7.074   8.920
  572WAT      O 1957   5.907   8.738   5.614
  572WAT     H1 1958   5.980   8.695   5.667
  572WAT     H2 1959   5.850   8.668   5.572
  573WAT      O 1960   5.581   4.188   0.656
  573WAT     H1 1961   5.676   4.217   0.644
  573WAT     H2 1962   5.578   4.088   0.668
  574WAT      O 1963   4.299   0.116   4.461
  574WAT     H1 1964   4.305   0.110   4.560
  574WAT     H2 1965   4.346   0.199   4.429
  575WAT      O 1966   0.293   1.339   9.765
  575WAT     H1 1967   0.251   1.430   9.759
  575WAT     H2 1968   0.276   1.300   9.856
  576WAT      O 1969   7.867   0.710   5.892
  576WAT     H1 1970   7.795   0.695   5.959
  576WAT     H2 1971   7.949   0.746   5.937
  577WAT      O 1972   2.487   2.403   8.363
  577WAT     H1 1973   2.518   2.405   8.268
  577WAT     H2 1974   2.393   2.438   8.368
  578WAT      O 1975   7.966   4.326   4.543
  578WAT     H1 1976   7.921   4.260   4.482
  578WAT     H2 1977   7.899   4.364   4.606
  579WAT      O 1978   8.566   3.913   5.975
  579WAT     H1 1979   8.492   3.977   5.957
  579WAT     H2 1980   8.562   3.883   6.070
  580WAT      O 1981   5.636   4.755   1.482
  580WAT     H1 1982   5.658   4.830   1.544
  580WAT     H2 1983   5.632   4.789   1.388
  581WAT      O 1984   9.734   8.490   6.366
  581WAT     H1 1985   9.683   8.547   6.431
  581WAT     H2 1986   9.832   8.492   6.390
  582WAT      O 1987   6.433   3.323   1.169
  582WAT     H1 1988   6.435   3.238   1.223
  582WAT     H2 1989   6.526   3.351   1.148
  583WAT      O 1990   1.815   8.451   4.213
  583WAT     H1 1991   1.870   8.369   4.229
  583WAT     H2 1992   1.787   8.453   4.117
  584WAT      O 1993   3.610   3.208   3.257
  584WAT     H1 1994   3.607   3.306   3.277
  584WAT     H2 1995   3.629   3.195   3.160
  585WAT      O 1996   3.368   8.104   4.935
  585WAT     H1 1997   3.347   8.021   4.987
  585WAT     H2 1998   3.302   8.176   4.958
  586WAT      O 1999   2.870   2.169   7.153
  586WAT     H1 2000   2.909   2.225   7.225
  586WAT     H2 2001   2.774   2.194   7.140
  587WAT      O 2002   5.584   5.991   3.467
  587WAT     H1 2003   5.675   5.968   3.504
  587WAT     H2 2004   5.542   6.062   3.524
  588WAT      O 2005   0.543   7.573   4.429
  588WAT     H1 2006   0.499   7.483   4.433
  588WAT     H2 2007   0.513   7.628   4.507
  589WAT      O 2008   3.124   5.766   1.624
  589WAT     H1 2009   3.149   5.711   1.545
  589WAT     H2 2010   3.181   5.740   1.702
  590WAT      O 2011   1.904   8.051   3.149
  590WAT     H1 2012   1.948   8.074   3.236
  590WAT     H2 2013   1.972   8.017   3.085
  591WAT      O 2014   5.258   6.157   1.485
  591WAT     H1 2015   5.307   6.133   1.401
  591WAT     H2 2016   5.317   6.211   1.544
  592WAT      O 2017   1.807   1.505   2.820
  592WAT     H1 2018   1.894   1.551   2.805
  592WAT     H2 2019   1.744   1.528   2.745
  593WAT      O 2020   8.035   4.772   0.456
  593WAT     H1 2021   8.107   4.758   0.524
  593WAT     H2 2022   8.010   4.869   0.454
  594WAT      O 2023   1.465   2.316   9.230
  594WAT     H1 2024   1.438   2.234   9.280
  594WAT     H2 2025   1.540   2.362   9.278
  595WAT      O 2026   4.612   0.450   5.266
  595WAT     H1 2027   4.594   0.541   5.304
  595WAT     H2 2028   4.554   0.435   5.185
  596WAT      O 2029   8.450   1.365   8.433
  596WAT     H1 2030   8.378   1.309   8.475
  596WAT     H2 2031   8.526   1.374   8.497
  597WAT      O 2032   0.734   2.279   7.607
  597WAT     H1 2033   0.736   2.371   7.648
  597WAT     H2 2034   0.641   2.243   7.611
  598WAT      O 2035   3.351   5.810   0.080
  598WAT     H1 2036   3.337   5.872   0.158
  598WAT     H2 2037   3.443   5.824   0.043
  599WAT      O 2038   7.708   0.784   2.985
  599WAT     H1 2039   7.637   0.777   3.055
  599WAT     H2 2040   7.677   0.737   2.902
  600WAT      O 2041   6.913   1.867   5.825
  600WAT     H1 2042   6.983   1.800   5.798
  600WAT     H2 2043   6.824   1.837   5.792
  601WAT      O 2044   8.609   0.032   4.665
  601WAT     H1 2045   8.698   0.000   4.631
  601WAT     H2 2046   8.537  -0.001   4.604
  602WAT      O 2047   7.881   1.005   5.003
  602WAT     H1 2048   7.905   0.984   4.908
  602WAT     H2 2049   7.882   1.104   5.015
  603WAT      O 2050   1.562   6.894   4.522
  603WAT     H1 2051   1.643   6.907   4.464
  603WAT     H2 2052   1.486   6.862   4.465
  604WAT      O 2053   1.798   0.107   5.670
  604WAT     H1 2054   1.883   0.159   5.671
  604WAT     H2 2055   1.758   0.109   5.578
  605WAT      O 2056   9.131   8.214   2.742
  605WAT     H1 2057   9.186   8.181   2.819
  605WAT     H2 2058   9.132   8.145   2.669
  606WAT      O 2059   5.024   5.560   3.624
  606WAT     H1 2060   5.036   5.539   3.721
  606WAT     H2 2061   5.113   5.566   3.579
  607WAT      O 2062   8.222   1.692   8.623
  607WAT     H1 2063   8.228   1.674   8.524
  607WAT     H2 2064   8.221   1.791   8.638
  608WAT      O 2065   7.874   3.006   0.514
  608WAT     H1 2066   7.894   3.088   0.460
  608WAT     H2 2067   7.940   2.998   0.588
  609WAT      O 2068   3.668   1.585   4.395
  609WAT     H1 2069   3.668   1.678   4.432
  609WAT     H2 2070   3.762   1.550   4.391
  610WAT      O 2071   5.332   6.026   0.037
  610WAT     H1 2072   5.336   6.071   0.126
  610WAT     H2 2073   5.329   5.927   0.051
  611WAT      O 2074   2.069   2.217   4.015
  611WAT     H1 2075   2.099   2.304   4.054
  611WAT     H2 2076   2.116   2.202   3.928
  612WAT      O 2077   2.028   1.933   7.026
  612WAT     H1 2078   2.007   1.837   7.010
  612WAT     H2 2079   2.036   1.950   7.124
  613WAT      O 2080   6.356   4.948   9.846
  613WAT     H1 2081   6.388   4.972   9.938
  613WAT     H2 2082   6.434   4.936   9.785
  614WAT      O 2083   6.098   7.172   3.372
  614WAT     H1 2084   6.123   7.081   3.337
  614WAT     H2 2085   6.071   7.164   3.468
  615WAT      O 2086   7.698   4.339   6.249
  615WAT     H1 2087   7.617   4.300   6.207
  615WAT     H2 2088   7.675   4.425   6.294
  616WAT      O 2089   2.821   0.661   0.703
  616WAT     H1 2090   2.759   0.739   0.694
  616WAT     H2 2091   2.768   0.578   0.719
  617WAT      O 2092   1.462   9.252   1.002
  617WAT     H1 2093   1.562   9.256   1.001
  617WAT     H2 2094   1.428   9.247   0.908
  618WAT      O 2095   9.478   0.689   2.373
  618WAT     H1 2096   9.393   0.669   2.421
  618WAT     H2 2097   9.462   0.760   2.305
  619WAT      O 2098   1.980   2.669   3.474
  619WAT     H1 2099   2.043   2.713   3.409
  619WAT     H2 2100   1.903   2.630   3.423
  620WAT      O 2101   4.137   5.694   8.878
  620WAT     H1 2102   4.120   5.700   8.779
  620WAT     H2 2103   4.210   5.757   8.903
  621WAT      O 2104   9.240   5.538   1.210
  621WAT     H1 2105   9.324   5.584   1.239
  621WAT     H2 2106   9.162   5.580   1.257
  622WAT      O 2107   4.173   7.756   8.685
  622WAT     H1 2108   4.226   7.756   8.600
  622WAT     H2 2109   4.196   7.836   8.739
  623WAT      O 2110   7.785   8.911   6.018
  623WAT     H1 2111   7.854   8.896   5.947
  623WAT     H2 2112   7.820   8.880   6.106
  624WAT      O 2113   9.365   6.489   2.780
  624WAT     H1 2114   9.288   6.475   2.718
  624WAT     H2 2115   9.344   6.450   2.869
  625WAT      O 2116   6.054   0.219   4.820
  625WAT     H1 2117   5.959   0.253   4.820
  625WAT     H2 2118   6.092   0.230   4.728
  626WAT      O 2119   8.870   0.883   4.527
  626WAT     H1 2120   8.803   0.933   4.472
  626WAT     H2 2121   8.890   0.795   4.483
  627WAT      O 2122   5.865   8.604   6.383
  627WAT     H1 2123   5.951   8.650   6.405
  627WAT     H2 2124   5.857   8.521   6.438
  628WAT      O 2125   3.814   6.027   7.463
  628WAT     H1 2126   3.859   6.103   7.416
  628WAT     H2 2127   3.785   6.057   7.554
  629WAT      O 2128   2.951   4.906   8.033
  629WAT     H1 2129   2.933   4.998   7.998
  629WAT     H2 2130   2.975   4.846   7.958
  630WAT      O 2131   3.276   7.710   0.436
  630WAT     H1 2132   3.247   7.619   0.408
  630WAT     H2 2133   3.229   7.736   0.520
  631WAT      O 2134   6.274   4.564   2.181
  631WAT     H1 2135   6.313   4.586   2.091
  631WAT     H2 2136   6.236   4.471   2.178
  632WAT      O 2137   0.790   1.194   5.108
  632WAT     H1 2138   0.751   1.241   5.029
  632WAT     H2 2139   0.874   1.147   5.081
  633WAT      O 2140   7.978   5.148   4.148
  633WAT     H1 2141   7.998   5.241   4.179
  633WAT     H2 2142   7.887   5.122   4.179
  634WAT      O 2143   5.807   2.404   5.387
  634WAT     H1 2144   5.788   2.337   5.316
  634WAT     H2 2145   5.901   2.392   5.420
  635WAT      O 2146   4.483   0.778   2.136
  635WAT     H1 2147   4.474   0.683   2.168
  635WAT     H2 2148   4.439   0.839   2.201
  636WAT      O 2149   6.405   1.875   1.772
  636WAT     H1 2150   6.390   1.794   1.829
  636WAT     H2 2151   6.320   1.927   1.767
  637WAT      O 2152   7.151   7.394   3.167
  637WAT     H1 2153   7.084   7.320   3.169
  637WAT     H2 2154   7.228   7.371   3.227
  638WAT      O 2155   9.621   6.747   5.947
  638WAT     H1 2156   9.638   6.804   5.867
  638WAT     H2 2157   9.704   6.744   6.003
  639WAT      O 2158   6.222   3.030   4.890
  639WAT     H1 2159   6.306   2.976   4.894
  639WAT     H2 2160   6.244   3.125   4.866
  640WAT      O 2161   7.540   3.050   1.204
  640WAT     H1 2162   7.595   3.085   1.280
  640WAT     H2 2163   7.601   3.013   1.133
  641WAT      O 2164   7.795   2.887   0.814
  641WAT     H1 2165   7.874   2.915   0.760
  641WAT     H2 2166   7.763   2.798   0.784
  642WAT      O 2167   3.305   0.291   9.467
  642WAT     H1 2168   3.277   0.324   9.377
  642WAT     H2 2169   3.242   0.325   9.536
  643WAT      O 2170   1.344   9.549   0.385
  643WAT     H1 2171   1.345   9.641   0.424
  643WAT     H2 2172   1.292   9.488   0.444
  644WAT      O 2173   7.393   2.076   1.673
  644WAT     H1 2174   7.302   2.035   1.668
  644WAT     H2 2175   7.454   2.016   1.725
  645WAT      O 2176   4.802   5.310   2.795
  645WAT     H1 2177   4.791   5.322   2.697
  645WAT     H2 2178   4.882   5.363   2.826
  646WAT      O 2179   8.596   6.905   8.099
  646WAT     H1 2180   8.586   6.922   8.000
  646WAT     H2 2181   8.602   6.993   8.147
  647WAT      O 2182   0.490   1.523   4.585
  647WAT     H1 2183   0.575   1.575   4.594
  647WAT     H2 2184   0.480   1.491   4.491
  648WAT      O 2185   5.348   1.499   2.942
  648WAT     H1 2186   5.396   1.453   2.867
  648WAT     H2 2187   5.278   1.560   2.905
  649WAT      O 2188   8.691   3.166   7.300
  649WAT     H1 2189   8.775   3.219   7.291
  649WAT     H2 2190   8.685   3.100   7.225
  650WAT      O 2191   3.985   8.350   2.897
  650WAT     H1 2192   3.948   8.411   2.827
  650WAT     H2 2193   3.997   8.401   2.982
  651WAT      O 2194   6.478   8.666   4.540
  651WAT     H1 2195   6.468   8.574   4.503
  651WAT     H2 2196   6.490   8.731   4.465
  652WAT      O 2197   8.888   1.590   1.022
  652WAT     H1 2198   8.959   1.659   1.032
  652WAT     H2 2199   8.907   1.533   0.942
  653WAT      O 2200   6.968   3.141   5.746
  653WAT     H1 2201   7.020   3.224   5.726
  653WAT     H2 2202   6.931   3.104   5.661
  654WAT      O 2203   2.350   1.296   8.571
  654WAT     H1 2204   2.299   1.211   8.557
  654WAT     H2 2205   2.434   1.276   8.622
  655WAT      O 2206   0.474   0.090   5.390
  655WAT     H1 2207   0.422   0.004   5.387
  655WAT     H2 2208   0.466   0.130   5.481
  656WAT      O 2209   1.543   4.947   4.015
  656WAT     H1 2210   1.523   4.879   4.085
  656WAT     H2 2211   1.594   5.023   4.055
  657WAT      O 2212   1.446   6.206   0.754
  657WAT     H1 2213   1.495   6.137   0.806
  657WAT     H2 2214   1.428   6.172   0.661
  658WAT      O 2215   8.905   8.657   5.231
  658WAT     H1 2216   8.933   8.749   5.260
  658WAT     H2 2217   8.857   8.663   5.144
  659WAT      O 2218   3.964   7.205   6.840
  659WAT     H1 2219   3.903   7.222   6.763
  659WAT     H2 2220   3.911   7.195   6.924
  660WAT      O 2221   1.529   5.621   2.753
  660WAT     H1 2222   1.494   5.709   2.720
  660WAT     H2 2223   1.499   5.548   2.692
  661WAT      O 2224   5.838   6.687   0.448
  661WAT     H1 2225   5.875   6.606   0.402
  661WAT     H2 2226   5.889   6.703   0.532
  662WAT      O 2227   2.365   9.278   2.041
  662WAT     H1 2228   2.266   9.286   2.051
  662WAT     H2 2229   2.409   9.290   2.130
  663WAT      O 2230   9.803   9.457   0.618
  663WAT     H1 2231   9.729   9.413   0.567
  663WAT     H2 2232   9.863   9.506   0.556
  664WAT      O 2233   8.524   9.589   0.588
  664WAT     H1 2234   8.442   9.604   0.643
  664WAT     H2 2235   8.591   9.661   0.608
  665WAT      O 2236   6.594   0.756   4.909
  665WAT     H1 2237   6.525   0.747   4.981
  665WAT     H2 2238   6.549   0.767   4.821
  666WAT      O 2239   6.322   0.371   0.861
  666WAT     H1 2240   6.287   0.379   0.955
  666WAT     H2 2241   6.283   0.445   0.805
  667WAT      O 2242   2.205   7.905   0.793
  667WAT     H1 2243   2.160   7.926   0.880
  667WAT     H2 2244   2.193   7.982   0.730
  668WAT      O 2245   3.158   8.634   2.515
  668WAT     H1 2246   3.171   8.670   2.422
  668WAT     H2 2247   3.169   8.535   2.515
  669WAT      O 2248   6.205   4.976   7.325
  669WAT     H1 2249   6.141   4.917   7.275
  669WAT     H2 2250   6.272   4.919   7.373
  670WAT      O 2251   2.186   1.051   8.548
  670WAT     H1 2252   2.161   1.007   8.635
  670WAT     H2 2253   2.180   0.984   8.474
  671WAT      O 2254   7.323   6.633   6.997
  671WAT     H1 2255   7.366   6.692   7.066
  671WAT     H2 2256   7.319   6.681   6.910
  672WAT      O 2257   1.499   5.385   9.303
  672WAT     H1 2258   1.460   5.428   9.385
  672WAT     H2 2259   1.597   5.368   9.318
  673WAT      O 2260   3.019   9.323   2.180
  673WAT     H1 2261   3.094   9.306   2.244
  673WAT     H2 2262   2.932   9.299   2.224
  674WAT      O 2263   2.724   7.325   4.363
  674WAT     H1 2264   2.738   7.243   4.308
  674WAT     H2 2265   2.805   7.383   4.358
  675WAT      O 2266   7.284   7.524   9.368
  675WAT     H1 2267   7.259   7.445   9.424
  675WAT     H2 2268   7.230   7.525   9.284
  676WAT      O 2269   6.682   7.965   4.572
  676WAT     H1 2270   6.776   7.962   4.607
  676WAT     H2 2271   6.629   7.892   4.615
  677WAT      O 2272   4.473   8.238   8.404
  677WAT     H1 2273   4.443   8.301   8.476
  677WAT     H2 2274   4.452   8.144   8.432
  678WAT      O 2275   4.248   0.891   3.376
  678WAT     H1 2276   4.245   0.807   3.322
  678WAT     H2 2277   4.322   0.949   3.344
  679WAT      O 2278   2.958   2.086   6.455
  679WAT     H1 2279   2.887   2.153   6.432
  679WAT     H2 2280   3.018   2.074   6.376
  680WAT      O 2281   7.747   1.650   8.142
  680WAT     H1 2282   7.652   1.621   8.132
  680WAT     H2 2283   7.798   1.625   8.059
  681WAT      O 2284   0.533   3.060   1.221
  681WAT     H1 2285   0.460   3.117   1.258
  681WAT     H2 2286   0.578   3.010   1.296
  682WAT      O 2287   7.532   7.758   5.726
  682WAT     H1 2288   7.562   7.836   5.782
  682WAT     H2 2289   7.586   7.677   5.750
  683WAT      O 2290   8.153   6.089   9.317
  683WAT     H1 2291   8.215   6.071   9.241
  683WAT     H2 2292   8.144   6.188   9.330
  684WAT      O 2293   6.946   3.317   1.527
  684WAT     H1 2294   6.896   3.312   1.613
  684WAT     H2 2295   6.981   3.227   1.503
  685WAT      O 2296   5.725   1.595   2.821
  685WAT     H1 2297   5.768   1.664   2.879
  685WAT     H2 2298   5.719   1.508   2.870
  686WAT      O 2299   7.809   5.196   7.553
  686WAT     H1 2300   7.712   5.218   7.545
  686WAT     H2 2301   7.834   5.187   7.649
  687WAT      O 2302   2.131   0.897   8.762
  687WAT     H1 2303   2.127   0.960   8.839
  687WAT     H2 2304   2.214   0.841   8.767
  688WAT      O 2305   4.748   4.988   6.478
  688WAT     H1 2306   4.781   5.044   6.402
  688WAT     H2 2307   4.805   5.003   6.558
  689WAT      O 2308   6.570   1.425   3.040
  689WAT     H1 2309   6.607   1.335   3.062
  689WAT     H2 2310   6.487   1.442   3.093
  690WAT      O 2311   5.395   7.311   8.692
  690WAT     H1 2312   5.361   7.402   8.665
  690WAT     H2 2313   5.320   7.259   8.733
  691WAT      O 2314   3.181   3.680   9.064
  691WAT     H1 2315   3.156   3.588   9.034
  691WAT     H2 2316   3.212   3.678   9.158
  692WAT      O 2317   0.083   6.980   6.469
  692WAT     H1 2318   0.146   6.913   6.429
  692WAT     H2 2319   0.010   6.932   6.518
  693WAT      O 2320   1.116   7.407   5.528
  693WAT     H1 2321   1.085   7.434   5.620
  693WAT     H2 2322   1.041   7.362   5.480
  694WAT      O 2323   1.916   9.488   9.280
  694WAT     H1 2324   1.889   9.445   9.367
  694WAT     H2 2325   1.835   9.505   9.225
  695WAT      O 2326   1.172   4.975   6.138
  695WAT     H1 2327   1.077   4.960   6.164
  695WAT     H2 2328   1.182   5.064   6.094
  696WAT      O 2329   4.931   7.151   5.505
  696WAT     H1 2330   5.030   7.168   5.512
  696WAT     H2 2331   4.881   7.235   5.522
  697WAT      O 2332   7.540   6.999   4.784
  697WAT     H1 2333   7.554   6.920   4.725
  697WAT     H2 2334   7.564   6.976   4.878
  698WAT      O 2335   8.969   9.527   4.871
  698WAT     H1 2336   8.946   9.588   4.947
  698WAT     H2 2337   9.054   9.558   4.829
  699WAT      O 2338   2.571   4.718   9.142
  699WAT     H1 2339   2.575   4.744   9.046
  699WAT     H2 2340   2.602   4.795   9.199
  700WAT      O 2341   6.562   9.322   6.216
  700WAT     H1 2342   6.646   9.283   6.254
  700WAT     H2 2343   6.568   9.422   6.217
  701WAT      O 2344   1.487   3.678   5.343
  701WAT     H1 2345   1.581   3.644   5.347
  701WAT     H2 2346   1.469   3.737   5.421
  702WAT      O 2347   1.546   9.484   6.047
  702WAT     H1 2348   1.612   9.448   5.981
  702WAT     H2 2349   1.502   9.566   6.010
  703WAT      O 2350   4.544   5.233   9.082
  703WAT     H1 2351   4.568   5.273   8.993
  703WAT     H2 2352   4.556   5.302   9.153
  704WAT      O 2353   3.180   1.301   5.659
  704WAT     H1 2354   3.183   1.252   5.572
  704WAT     H2 2355   3.238   1.255   5.726
  705WAT      O 2356   4.051   4.493   5.417
  705WAT     H1 2357   4.057   4.457   5.510
  705WAT     H2 2358   4.139   4.534   5.392
  706WAT      O 2359   6.397   5.258   8.314
  706WAT     H1 2360   6.397   5.174   8.368
  706WAT     H2 2361   6.384   5.236   8.217
  707WAT      O 2362   4.079   6.279   7.482
  707WAT     H1 2363   4.152   6.223   7.442
  707WAT     H2 2364   4.013   6.304   7.411
  708WAT      O 2365   7.957   2.412   9.135
  708WAT     H1 2366   7.923   2.497   9.094
  708WAT     H2 2367   7.915   2.334   9.088
  709WAT      O 2368   9.469   2.042   8.140
  709WAT     H1 2369   9.406   2.046   8.218
  709WAT     H2 2370   9.503   2.134   8.120
  710WAT      O 2371   8.935   6.577   8.328
  710WAT     H1 2372   8.844   6.617   8.334
  710WAT     H2 2373   8.966   6.579   8.233
  711WAT      O 2374   5.066   9.775   7.723
  711WAT     H1 2375   4.980   9.826   7.724
  711WAT     H2 2376   5.054   9.686   7.767
  712WAT      O 2377   6.231   9.416   4.741
  712WAT     H1 2378   6.160   9.358   4.780
  712WAT     H2 2379   6.191   9.472   4.667
  713WAT      O 2380   0.541   6.768   1.568
  713WAT     H1 2381   0.489   6.721   1.640
  713WAT     H2 2382   0.489   6.767   1.483
  714WAT      O 2383   1.565   5.815   8.056
  714WAT     H1 2384   1.582   5.735   7.998
  714WAT     H2 2385   1.476   5.854   8.033
  715WAT      O 2386   4.161   0.362   1.949
  715WAT     H1 2387   4.130   0.324   2.036
  715WAT     H2 2388   4.130   0.303   1.874
  716WAT      O 2389   1.173   9.492   0.697
  716WAT     H1 2390   1.239   9.532   0.761
  716WAT     H2 2391   1.110   9.563   0.666
  717WAT      O 2392   7.877   6.106   6.693
  717WAT     H1 2393   7.844   6.050   6.768
  717WAT     H2 2394   7.825   6.192   6.690
  718WAT      O 2395   3.131   2.708   7.318
  718WAT     H1 2396   3.052   2.650   7.336
  718WAT     H2 2397   3.120   2.755   7.231
  719WAT      O 2398   0.635   3.282   3.017
  719WAT     H1 2399   0.617   3.376   2.986
  719WAT     H2 2400   0.681   3.232   2.943
  720WAT      O 2401   6.873   9.053   2.207
  720WAT     H1 2402   6.872   9.095   2.116
  720WAT     H2 2403   6.915   8.963   2.201
  721WAT      O 2404   8.588   0.154   6.369
  721WAT     H1 2405   8.585   0.074   6.309
  721WAT     H2 2406   8.626   0.127   6.458
  722WAT      O 2407   9.463   6.097   9.088
  722WAT     H1 2408   9.415   6.121   9.003
  722WAT     H2 2409   9.498   6.180   9.131
  723WAT      O 2410   5.322   8.405   7.858
  723WAT     H1 2411   5.382   8.325   7.854
  723WAT     H2 2412   5.283   8.423   7.768
  724WAT      O 2413   5.977   0.902   2.480
  724WAT     H1 2414   5.983   0.957   2.563
  724WAT     H2 2415   6.053   0.837   2.477
  725WAT      O 2416   9.426   9.016   3.137
  725WAT     H1 2417   9.385   9.011   3.228
  725WAT     H2 2418   9.522   9.041   3.145
  726WAT      O 2419   4.106   8.584   4.420
  726WAT     H1 2420   4.139   8.541   4.336
  726WAT     H2 2421   4.119   8.521   4.497
  727WAT      O 2422   5.176   5.807   7.360
  727WAT     H1 2423   5.117   5.865   7.304
  727WAT     H2 2424   5.189   5.719   7.315
  728WAT      O 2425   8.322   1.434   7.797
  728WAT     H1 2426   8.375   1.514   7.825
  728WAT     H2 2427   8.301   1.377   7.877
  729WAT      O 2428   9.526   1.825   5.570
  729WAT     H1 2429   9.547   1.754   5.638
  729WAT     H2 2430   9.520   1.914   5.616
  730WAT      O 2431   8.128   6.299   1.850
  730WAT     H1 2432   8.161   6.388   1.880
  730WAT     H2 2433   8.080   6.309   1.763
  731WAT      O 2434   3.895   3.316   8.179
  731WAT     H1 2435   3.884   3.242   8.245
  731WAT     H2 2436   3.810   3.368   8.173
  732WAT      O 2437   6.177   8.410   4.415
  732WAT     H1 2438   6.082   8.381   4.402
  732WAT     H2 2439   6.201   8.403   4.511
  733WAT      O 2440   8.823   7.195   8.770
  733WAT     H1 2441   8.774   7.241   8.695
  733WAT     H2 2442   8.765   7.193   8.851
  734WAT      O 2443   3.871   6.537   5.196
  734WAT     H1 2444   3.869   6.548   5.097
  734WAT     H2 2445   3.937   6.466   5.220
  735WAT      O 2446   0.014   7.375   4.373
  735WAT     H1 2447  -0.058   7.444   4.358
  735WAT     H2 2448   0.001   7.333   4.463
  736WAT      O 2449   7.934   5.036   2.243
  736WAT     H1 2450   7.958   5.062   2.149
  736WAT     H2 2451   7.902   4.941   2.244
  737WAT      O 2452   4.748   3.932   3.429
  737WAT     H1 2453   4.675   3.965   3.489
  737WAT     H2 2454   4.776   4.005   3.367
  738WAT      O 2455   6.950   8.218   8.274
  738WAT     H1 2456   6.899   8.224   8.360
  738WAT     H2 2457   6.960   8.122   8.248
  739WAT      O 2458   3.614   4.855   8.376
  739WAT     H1 2459   3.679   4.785   8.347
  739WAT     H2 2460   3.580   4.905   8.296
  740WAT      O 2461   8.903   2.879   0.022
  740WAT     H1 2462   8.867   2.963  -0.019
  740WAT     H2 2463   8.935   2.898   0.115
  741WAT      O 2464   9.861   0.889   7.619
  741WAT     H1 2465   9.857   0.989   7.615
  741WAT     H2 2466   9.778   0.851   7.578
  742WAT      O 2467   0.805   8.920   7.610
  742WAT     H1 2468   0.707   8.901   7.614
  742WAT     H2 2469   0.840   8.898   7.519
  743WAT      O 2470   4.444   5.528   7.173
  743WAT     H1 2471   4.442   5.470   7.255
  743WAT     H2 2472   4.524   5.503   7.118
  744WAT      O 2473   8.006   9.805   4.440
  744WAT     H1 2474   8.051   9.862   4.509
  744WAT     H2 2475   8.025   9.842   4.349
  745WAT      O 2476   8.843   8.193   9.277
  745WAT     H1 2477   8.849   8.263   9.206
  745WAT     H2 2478   8.888   8.226   9.360
  746WAT      O 2479   9.264   3.446   0.409
  746WAT     H1 2480   9.354   3.488   0.402
  746WAT     H2 2481   9.270   3.360   0.458
  747WAT      O 2482   5.192   1.727   2.905
  747WAT     H1 2483   5.109   1.707   2.956
  747WAT     H2 2484   5.224   1.819   2.929
  748WAT      O 2485   9.188   3.278   0.794
  748WAT     H1 2486   9.242   3.270   0.710
  748WAT     H2 2487   9.248   3.302   0.870
  749WAT      O 2488   6.649   3.993   1.836
  749WAT     H1 2489   6.688   3.902   1.850
  749WAT     H2 2490   6.563   3.986   1.786
  750WAT      O 2491   8.987   8.242   0.583
  750WAT     H1 2492   8.890   8.244   0.559
  750WAT     H2 2493   9.016   8.147   0.595
  751WAT      O 2494   2.106   1.118   1.257
  751WAT     H1 2495   2.070   1.201   1.298
  751WAT     H2 2496   2.201   1.104   1.286
  752WAT      O 2497   4.686   8.154   6.630
  752WAT     H1 2498   4.707   8.183   6.723
  752WAT     H2 2499   4.631   8.070   6.633
  753WAT      O 2500   4.260   6.750   7.153
  753WAT     H1 2501   4.215   6.776   7.239
  753WAT     H2 2502   4.319   6.671   7.168
  754WAT      O 2503   0.745   7.572   8.377
  754WAT     H1 2504   0.794   7.550   8.293
  754WAT     H2 2505   0.672   7.504   8.392
  755WAT      O 2506   6.947   2.900   4.500
  755WAT     H1 2507   6.930   2.967   4.428
  755WAT     H2 2508   6.886   2.918   4.577
  756WAT      O 2509   9.071   7.375   8.450
  756WAT     H1 2510   9.090   7.286   8.407
  756WAT     H2 2511   8.973   7.394   8.445
  757WAT      O 2512   6.362   5.166   4.008
  757WAT     H1 2513   6.315   5.243   4.051
  757WAT     H2 2514   6.317   5.080   4.034
  758WAT      O 2515   0.376   1.469   0.734
  758WAT     H1 2516   0.293   1.418   0.712
  758WAT     H2 2517   0.455   1.407   0.734
  759WAT      O 2518   9.749   9.565   7.451
  759WAT     H1 2519   9.661   9.548   7.496
  759WAT     H2 2520   9.732   9.596   7.357
  760WAT      O 2521   0.817   0.122   9.055
  760WAT     H1 2522   0.827   0.091   8.961
  760WAT     H2 2523   0.863   0.057   9.117
  761WAT      O 2524   1.610   3.006   1.911
  761WAT     H1 2525   1.699   2.961   1.901
  761WAT     H2 2526   1.582   3.044   1.823
  762WAT      O 2527   6.157   0.358   2.208
  762WAT     H1 2528   6.170   0.314   2.120
  762WAT     H2 2529   6.189   0.452   2.204
  763WAT      O 2530   0.033   9.737   2.190
  763WAT     H1 2531   0.044   9.822   2.138
  763WAT     H2 2532   0.033   9.758   2.288
  764WAT      O 2533   0.809   1.800   6.342
  764WAT     H1 2534   0.873   1.876   6.328
  764WAT     H2 2535   0.805   1.777   6.440
  765WAT      O 2536   7.229   3.441   7.042
  765WAT     H1 2537   7.329   3.435   7.038
  765WAT     H2 2538   7.201   3.469   7.133
  766WAT      O 2539   3.872   6.984   8.164
  766WAT     H1 2540   3.949   6.976   8.102
  766WAT     H2 2541   3.864   7.079   8.195
  767WAT      O 2542   3.911   2.979   7.329
  767WAT     H1 2543   3.855   2.927   7.394
  767WAT     H2 2544   3.880   2.959   7.236
  768WAT      O 2545   3.942   7.956   5.492
  768WAT     H1 2546   3.949   7.936   5.394
  768WAT     H2 2547   3.876   7.893   5.534
  769WAT      O 2548   3.797   4.070   8.471
  769WAT     H1 2549   3.861   4.146   8.482
  769WAT     H2 2550   3.748   4.080   8.385
  770WAT      O 2551   0.131   9.342   2.007
  770WAT     H1 2552   0.098   9.259   1.962
  770WAT     H2 2553   0.147   9.413   1.938
  771WAT      O 2554   9.171   4.785   4.450
  771WAT     H1 2555   9.220   4.824   4.372
  771WAT     H2 2556   9.177   4.847   4.528
  772WAT      O 2557   6.510   8.169   2.050
  772WAT     H1 2558   6.501   8.070   2.062
  772WAT     H2 2559   6.549   8.189   1.960
  773WAT      O 2560   3.722   6.629   5.640
  773WAT     H1 2561   3.757   6.547   5.593
  773WAT     H2 2562   3.625   6.639   5.620
  774WAT      O 2563   8.772   8.245   3.463
  774WAT     H1 2564   8.798   8.240   3.559
  774WAT     H2 2565   8.855   8.245   3.407
  775WAT      O 2566   1.269   4.711   1.288
  775WAT     H1 2567   1.255   4.635   1.224
  775WAT     H2 2568   1.188   4.768   1.290
  776WAT      O 2569   7.017   6.871   9.821
  776WAT     H1 2570   6.935   6.877   9.765
  776WAT     H2 2571   7.085   6.814   9.774
  777WAT      O 2572   7.103   1.478   1.479
  777WAT     H1 2573   7.179   1.509   1.421
  777WAT     H2 2574   7.119   1.382   1.505
  778WAT      O 2575   1.284   6.690   0.425
  778WAT     H1 2576   1.318   6.716   0.515
  778WAT     H2 2577   1.224   6.761   0.390
  779WAT      O 2578   1.947   3.919   9.870
  779WAT     H1 2579   1.911   3.891   9.781
  779WAT     H2 2580   2.016   3.989   9.858
  780WAT      O 2581   1.790   2.755   9.453
  780WAT     H1 2582   1.732   2.808   9.514
  780WAT     H2 2583   1.754   2.762   9.359
  781WAT      O 2584   7.339   7.144   5.534
  781WAT     H1 2585   7.338   7.244   5.541
  781WAT     H2 2586   7.276   7.105   5.601
  782WAT      O 2587   9.883   4.348   6.041
  782WAT     H1 2588   9.833   4.264   6.017
  782WAT     H2 2589   9.817   4.422   6.056
  783WAT      O 2590   8.756   5.571   0.004
  783WAT     H1 2591   8.775   5.474   0.019
  783WAT     H2 2592   8.838   5.615  -0.035
  784WAT      O 2593   5.665   9.786   1.691
  784WAT     H1 2594   5.648   9.687   1.691
  784WAT     H2 2595   5.742   9.807   1.631
  785WAT      O 2596   3.754   2.726   7.439
  785WAT     H1 2597   3.770   2.655   7.369
  785WAT     H2 2598   3.678   2.697   7.497
  786WAT      O 2599   9.586   4.485   9.008
  786WAT     H1 2600   9.666   4.431   8.983
  786WAT     H2 2601   9.519   4.483   8.934
  787WAT      O 2602   3.434   5.829   5.182
  787WAT     H1 2603   3.338   5.830   5.155
  787WAT     H2 2604   3.457   5.915   5.227
  788WAT      O 2605   8.452   1.626   7.976
  788WAT     H1 2606   8.535   1.681   7.975
  788WAT     H2 2607   8.438   1.587   8.067
  789WAT      O 2608   8.109   5.235   0.853
  789WAT     H1 2609   8.180   5.195   0.911
  789WAT     H2 2610   8.020   5.199   0.880
  790WAT      O 2611   6.674   9.769   6.578
  790WAT     H1 2612   6.760   9.789   6.530
  790WAT     H2 2613   6.675   9.814   6.668
  791WAT      O 2614   1.069   7.599   3.014
  791WAT     H1 2615   1.116   7.521   2.973
  791WAT     H2 2616   0.995   7.628   2.954
  792WAT      O 2617   2.387   2.512   6.967
  792WAT     H1 2618   2.393   2.573   7.045
  792WAT     H2 2619   2.348   2.425   6.996
  793WAT      O 2620   8.483   3.123   6.364
  793WAT     H1 2621   8.513   3.060   6.292
  793WAT     H2 2622   8.483   3.216   6.329
  794WAT      O 2623   8.974   8.411   8.757
  794WAT     H1 2624   8.882   8.437   8.728
  794WAT     H2 2625   9.038   8.483   8.733
  795WAT      O 2626   8.686   0.565   7.416
  795WAT     H1 2627   8.706   0.572   7.319
  795WAT     H2 2628   8.767   0.593   7.469
  796WAT      O 2629   1.604   8.668   1.537
  796WAT     H1 2630   1.652   8.608   1.474
  796WAT     H2 2631   1.598   8.760   1.498
  797WAT      O 2632   9.726   1.792   5.066
  797WAT     H1 2633   9.665   1.730   5.015
  797WAT     H2 2634   9.705   1.786   5.164
  798WAT      O 2635   3.198   0.958   9.215
  798WAT     H1 2636   3.204   1.019   9.136
  798WAT     H2 2637   3.290   0.936   9.248
  799WAT      O 2638   2.513   6.869   7.950
  799WAT     H1 2639   2.460   6.942   7.908
  799WAT     H2 2640   2.535   6.800   7.880
  800WAT      O 2641   0.585   5.668   0.027
  800WAT     H1 2642   0.583   5.757  -0.019
  800WAT     H2 2643   0.665   5.663   0.086
  801WAT      O 2644   5.291   3.940   8.173
  801WAT     H1 2645   5.351   3.860   8.175
  801WAT     H2 2646   5.322   4.003   8.103
  802WAT      O 2647   4.473   1.657   1.689
  802WAT     H1 2648   4.515   1.577   1.645
  802WAT     H2 2649   4.381   1.669   1.653
  803WAT      O 2650   7.494   2.678   3.269
  803WAT     H1 2651   7.416   2.691   3.207
  803WAT     H2 2652   7.573   2.648   3.217
  804WAT      O 2653   0.248   1.542   6.499
  804WAT     H1 2654   0.301   1.611   6.450
  804WAT     H2 2655   0.196   1.586   6.573
  805WAT      O 2656   8.611   2.807   8.642
  805WAT     H1 2657   8.592   2.888   8.586
  805WAT     H2 2658   8.571   2.820   8.732
  806WAT      O 2659   4.597   9.394   3.547
  806WAT     H1 2660   4.521   9.441   3.590
  806WAT     H2 2661   4.603   9.422   3.451
  807WAT      O 2662   5.277   0.863   9.311
  807WAT     H1 2663   5.217   0.920   9.369
  807WAT     H2 2664   5.369   0.860   9.351
  808WAT      O 2665   8.428   4.148   1.167
  808WAT     H1 2666   8.514   4.132   1.119
  808WAT     H2 2667   8.365   4.198   1.107
  809WAT      O 2668   2.042   8.162   0.043
  809WAT     H1 2669   2.095   8.248   0.041
  809WAT     H2 2670   2.105   8.085   0.048
  810WAT      O 2671   4.934   4.037   0.343
  810WAT     H1 2672   4.934   3.951   0.393
  810WAT     H2 2673   4.844   4.080   0.351
  811WAT      O 2674   8.177   5.828   6.877
  811WAT     H1 2675   8.259   5.788   6.834
  811WAT     H2 2676   8.168   5.791   6.970
  812WAT      O 2677   1.234   6.668   5.170
  812WAT     H1 2678   1.159   6.665   5.236
  812WAT     H2 2679   1.273   6.760   5.168
  813WAT      O 2680   9.348   0.738   9.734
  813WAT     H1 2681   9.354   0.676   9.655
  813WAT     H2 2682   9.342   0.832   9.701
  814WAT      O 2683   6.010   3.840   1.945
  814WAT     H1 2684   5.944   3.913   1.928
  814WAT     H2 2685   5.996   3.802   2.036
  815WAT      O 2686   3.471   3.103   1.715
  815WAT     H1 2687   3.451   3.200   1.726
  815WAT     H2 2688   3.565   3.084   1.745
  816WAT      O 2689   7.217   0.788   4.670
  816WAT     H1 2690   7.304   0.744   4.648
  816WAT     H2 2691   7.202   0.787   4.768
  817WAT      O 2692   7.470   4.340   7.487
  817WAT     H1 2693   7.570   4.342   7.486
  817WAT     H2 2694   7.436   4.314   7.397
  818WAT      O 2695   6.251   5.450   7.071
  818WAT     H1 2696   6.241   5.374   7.135
  818WAT     H2 2697   6.184   5.441   6.997
  819WAT      O 2698   5.510   2.584   4.043
  819WAT     H1 2699   5.537   2.581   4.139
  819WAT     H2 2700   5.522   2.493   4.002
  820WAT      O 2701   6.936   0.621   7.165
  820WAT     H1 2702   6.958   0.633   7.262
  820WAT     H2 2703   6.851   0.568   7.157
  821WAT      O 2704   2.159   3.195   6.326
  821WAT     H1 2705   2.137   3.262   6.397
  821WAT     H2 2706   2.208   3.240   6.252
  822WAT      O 2707   9.634   3.203   1.321
  822WAT     H1 2708   9.686   3.125   1.357
  822WAT     H2 2709   9.546   3.209   1.368
  823WAT      O 2710   3.912   7.372   2.879
  823WAT     H1 2711   3.924   7.398   2.783
  823WAT     H2 2712   3.818   7.392   2.907
  824WAT      O 2713   0.496   7.082   9.360
  824WAT     H1 2714   0.560   7.137   9.414
  824WAT     H2 2715   0.542   7.052   9.276
  825WAT      O 2716   5.347   9.745   5.860
  825WAT     H1 2717   5.380   9.838   5.874
  825WAT     H2 2718   5.316   9.734   5.766
  826WAT      O 2719   2.421   1.680   6.955
  826WAT     H1 2720   2.466   1.765   6.982
  826WAT     H2 2721   2.332   1.700   6.914
  827WAT      O 2722   6.682   1.810   0.585
  827WAT     H1 2723   6.747   1.807   0.508
  827WAT     H2 2724   6.700   1.732   0.645
  828WAT      O 2725   6.465   7.703   8.824
  828WAT     H1 2726   6.426   7.744   8.907
  828WAT     H2 2727   6.412   7.731   8.745
  829WAT      O 2728   4.842   9.034   6.858
  829WAT     H1 2729   4.806   8.970   6.790
  829WAT     H2 2730   4.905   8.986   6.919
  830WAT      O 2731   2.935   6.493   8.249
  830WAT     H1 2732   2.856   6.473   8.191
  830WAT     H2 2733   2.928   6.441   8.334
  831WAT      O 2734   6.984   6.010   6.199
  831WAT     H1 2735   6.891   5.971   6.198
  831WAT     H2 2736   7.032   5.980   6.116
  832WAT      O 2737   4.571   4.684   1.600
  832WAT     H1 2738   4.634   4.695   1.677
  832WAT     H2 2739   4.482   4.723   1.624
  833WAT      O 2740   1.557   7.283   8.711
  833WAT     H1 2741   1.610   7.320   8.787
  833WAT     H2 2742   1.513   7.197   8.740
  834WAT      O 2743   9.716   4.978   6.382
  834WAT     H1 2744   9.810   5.009   6.390
  834WAT     H2 2745   9.655   5.057   6.369
  835WAT      O 2746   7.984   8.634   6.372
  835WAT     H1 2747   7.945   8.722   6.346
  835WAT     H2 2748   8.079   8.629   6.339
  836WAT      O 2749   9.366   5.518   3.484
  836WAT     H1 2750   9.340   5.605   3.526
  836WAT     H2 2751   9.292   5.485   3.426
  837WAT      O 2752   4.904   6.188   8.669
  837WAT     H1 2753   4.806   6.178   8.651
  837WAT     H2 2754   4.955   6.177   8.583
  838WAT      O 2755   3.047   3.983   1.009
  838WAT     H1 2756   3.037   4.082   0.994
  838WAT     H2 2757   3.144   3.959   1.003
  839WAT      O 2758   7.537   4.549   6.383
  839WAT     H1 2759   7.577   4.599   6.460
  839WAT     H2 2760   7.449   4.590   6.358
  840WAT      O 2761   9.861   5.202   0.180
  840WAT     H1 2762   9.766   5.191   0.208
  840WAT     H2 2763   9.877   5.298   0.155
  841WAT      O 2764   9.867   1.411   5.495
  841WAT     H1 2765   9.906   1.444   5.409
  841WAT     H2 2766   9.791   1.350   5.476
  842WAT      O 2767   7.332   5.907   8.118
  842WAT     H1 2768   7.281   5.990   8.095
  842WAT     H2 2769   7.430   5.926   8.116
  843WAT      O 2770   8.054   3.517   2.748
  843WAT     H1 2771   7.957   3.509   2.771
  843WAT     H2 2772   8.066   3.509   2.649
  844WAT      O 2773   2.454   4.296   7.802
  844WAT     H1 2774   2.416   4.243   7.726
  844WAT     H2 2775   2.486   4.233   7.873
  845WAT      O 2776   4.764   5.049   8.159
  845WAT     H1 2777   4.804   5.140   8.147
  845WAT     H2 2778   4.696   5.033   8.088
  846WAT      O 2779   5.044   1.098   5.650
  846WAT     H1 2780   5.074   1.033   5.579
  846WAT     H2 2781   4.966   1.060   5.699
  847WAT      O 2782   8.851   6.857   9.877
  847WAT     H1 2783   8.819   6.945   9.841
  847WAT     H2 2784   8.945   6.840   9.846
  848WAT      O 2785   0.794   6.308   1.844
  848WAT     H1 2786   0.735   6.227   1.849
  848WAT     H2 2787   0.831   6.327   1.935
  849WAT      O 2788   0.335   1.323   1.177
  849WAT     H1 2789   0.410   1.260   1.199
  849WAT     H2 2790   0.277   1.335   1.258
  850WAT      O 2791   5.351   3.198   7.072
  850WAT     H1 2792   5.425   3.130   7.065
  850WAT     H2 2793   5.326   3.229   6.980
  851WAT      O 2794   6.702   1.273   6.486
  851WAT     H1 2795   6.653   1.186   6.490
  851WAT     H2 2796   6.656   1.340   6.544
  852WAT      O 2797   5.824   6.197   6.194
  852WAT     H1 2798   5.742   6.230   6.242
  852WAT     H2 2799   5.809   6.104   6.162
  853WAT      O 2800   2.171   1.555   4.253
  853WAT     H1 2801   2.234   1.522   4.183
  853WAT     H2 2802   2.205   1.529   4.344
  854WAT      O 2803   3.290   0.790   0.648
  854WAT     H1 2804   3.220   0.720   0.634
  854WAT     H2 2805   3.261   0.876   0.605
  855WAT      O 2806   7.971   3.368   1.179
  855WAT     H1 2807   8.004   3.413   1.262
  855WAT     H2 2808   8.025   3.398   1.101
  856WAT      O 2809   8.237   8.780   7.100
  856WAT     H1 2810   8.211   8.861   7.153
  856WAT     H2 2811   8.320   8.740   7.139
  857WAT      O 2812   2.300   2.924   7.969
  857WAT     H1 2813   2.362   2.997   7.998
  857WAT     H2 2814   2.206   2.949   7.992
  858WAT      O 2815   1.128   2.291   8.722
  858WAT     H1 2816   1.172   2.204   8.744
  858WAT     H2 2817   1.141   2.310   8.624
  859WAT      O 2818   4.934   7.507   2.148
  859WAT     H1 2819   4.947   7.427   2.089
  859WAT     H2 2820   4.874   7.483   2.224
  860WAT      O 2821   2.314   8.120   9.702
  860WAT     H1 2822   2.386   8.056   9.678
  860WAT     H2 2823   2.316   8.138   9.801
  861WAT      O 2824   8.438   2.433   8.061
  861WAT     H1 2825   8.367   2.394   8.119
  861WAT     H2 2826   8.395   2.489   7.990
  862WAT      O 2827   1.066   1.876   7.049
  862WAT     H1 2828   1.101   1.932   7.124
  862WAT     H2 2829   0.966   1.886   7.044
  863WAT      O 2830   6.418   2.009   7.538
  863WAT     H1 2831   6.448   1.942   7.470
  863WAT     H2 2832   6.321   1.994   7.559
  864WAT      O 2833   9.324   9.090   3.369
  864WAT     H1 2834   9.253   9.065   3.434
  864WAT     H2 2835   9.312   9.185   3.340
  865WAT      O 2836   7.006   0.634   4.828
  865WAT     H1 2837   7.053   0.548   4.809
  865WAT     H2 2838   6.929   0.617   4.889
  866WAT      O 2839   3.302   3.592   3.466
  866WAT     H1 2840   3.344   3.654   3.532
  866WAT     H2 2841   3.330   3.618   3.373
  867WAT      O 2842   6.171   9.650   8.679
  867WAT     H1 2843   6.130   9.623   8.592
  867WAT     H2 2844   6.127   9.599   8.754
  868WAT      O 2845   9.592   4.442   5.822
  868WAT     H1 2846   9.653   4.505   5.775
  868WAT     H2 2847   9.609   4.445   5.920
  869WAT      O 2848   3.336   4.576   5.333
  869WAT     H1 2849   3.285   4.609   5.253
  869WAT     H2 2850   3.339   4.649   5.402
  870WAT      O 2851   5.325   4.957   5.737
  870WAT     H1 2852   5.395   4.891   5.763
  870WAT     H2 2853   5.337   5.041   5.788
  871WAT      O 2854   5.278   5.317   3.033
  871WAT     H1 2855   5.302   5.391   3.096
  871WAT     H2 2856   5.193   5.273   3.063
  872WAT      O 2857   0.052   3.705   2.314
  872WAT     H1 2858  -0.006   3.761   2.373
  872WAT     H2 2859   0.088   3.760   2.239
  873WAT      O 2860   8.665   1.708   3.231
  873WAT     H1 2861   8.746   1.767   3.232
  873WAT     H2 2862   8.584   1.764   3.214
  874WAT      O 2863   2.010   5.348   3.370
  874WAT     H1 2864   2.082   5.378   3.308
  874WAT     H2 2865   2.043   5.271   3.426
  875WAT      O 2866   5.596   0.982   5.519
  875WAT     H1 2867   5.541   0.991   5.602
  875WAT     H2 2868   5.552   1.032   5.444
  876WAT      O 2869   7.448   0.108   8.065
  876WAT     H1 2870   7.462   0.011   8.044
  876WAT     H2 2871   7.365   0.141   8.020
  877WAT      O 2872   4.142   5.848   6.674
  877WAT     H1 2873   4.228   5.820   6.631
  877WAT     H2 2874   4.118   5.782   6.745
  878WAT      O 2875   2.780   3.233   7.751
  878WAT     H1 2876   2.869   3.254   7.710
  878WAT     H2 2877   2.708   3.252   7.685
  879WAT      O 2878   8.453   4.764   6.042
  879WAT     H1 2879   8.370   4.795   6.088
  879WAT     H2 2880   8.533   4.797   6.092
  880WAT      O 2881   9.607   8.987   1.823
  880WAT     H1 2882   9.525   8.996   1.766
  880WAT     H2 2883   9.587   8.926   1.900
  881WAT      O 2884   4.706   3.396   9.620
  881WAT     H1 2885   4.691   3.494   9.631
  881WAT     H2 2886   4.634   3.358   9.562
  882WAT      O 2887   7.516   2.475   1.986
  882WAT     H1 2888   7.592   2.482   1.922
  882WAT     H2 2889   7.442   2.535   1.957
  883WAT      O 2890   0.008   3.549   1.375
  883WAT     H1 2891  -0.063   3.522   1.440
  883WAT     H2 2892   0.047   3.467   1.332
  884WAT      O 2893   4.235   1.552   3.308
  884WAT     H1 2894   4.261   1.468   3.355
  884WAT     H2 2895   4.145   1.540   3.267
  885WAT      O 2896   5.036   7.141   9.559
  885WAT     H1 2897   5.047   7.238   9.539
  885WAT     H2 2898   4.943   7.113   9.537
  886WAT      O 2899   7.565   0.546   5.605
  886WAT     H1 2900   7.557   0.587   5.695
  886WAT     H2 2901   7.548   0.447   5.612
  887WAT      O 2902   4.271   9.813   3.008
  887WAT     H1 2903   4.222   9.749   3.067
  887WAT     H2 2904   4.292   9.896   3.059
  888WAT      O 2905   5.834   3.783   2.563
  888WAT     H1 2906   5.762   3.809   2.628
  888WAT     H2 2907   5.876   3.697   2.593
  889WAT      O 2908   4.878   0.286   7.995
  889WAT     H1 2909   4.883   0.294   8.094
  889WAT     H2 2910   4.873   0.377   7.953
  890WAT      O 2911   0.635   8.505   5.236
  890WAT     H1 2912   0.593   8.428   5.187
  890WAT     H2 2913   0.658   8.577   5.171
  891WAT      O 2914   9.691   4.687   1.677
  891WAT     H1 2915   9.690   4.784   1.654
  891WAT     H2 2916   9.783   4.650   1.664
  892WAT      O 2917   3.159   8.779   1.747
  892WAT     H1 2918   3.096   8.715   1.703
  892WAT     H2 2919   3.248   8.735   1.758
  893WAT      O 2920   5.363   7.823   0.185
  893WAT     H1 2921   5.273   7.802   0.146
  893WAT     H2 2922   5.352   7.847   0.282
  894WAT      O 2923   8.196   3.429   3.195
  894WAT     H1 2924   8.110   3.401   3.237
  894WAT     H2 2925   8.207   3.383   3.106
  895WAT      O 2926   6.981   2.165   8.472
  895WAT     H1 2927   6.897   2.218   8.459
  895WAT     H2 2928   7.006   2.167   8.569
  896WAT      O 2929   8.288   0.407   1.462
  896WAT     H1 2930   8.255   0.331   1.519
  896WAT     H2 2931   8.387   0.400   1.451
  897WAT      O 2932   3.402   2.720   7.959
  897WAT     H1 2933   3.346   2.752   8.035
  897WAT     H2 2934   3.442   2.798   7.911
  898WAT      O 2935   5.732   9.248   1.185
  898WAT     H1 2936   5.793   9.179   1.224
  898WAT     H2 2937   5.707   9.222   1.092
  899WAT      O 2938   3.965   7.530   9.400
  899WAT     H1 2939   3.978   7.610   9.341
  899WAT     H2 2940   3.969   7.558   9.496
  900WAT      O 2941   8.039   5.560   8.203
  900WAT     H1 2942   8.016   5.646   8.159
  900WAT     H2 2943   7.966   5.533   8.265
  901WAT      O 2944   8.971   0.416   1.183
  901WAT     H1 2945   8.907   0.422   1.106
  901WAT     H2 2946   9.063   0.394   1.148
  902WAT      O 2947   9.597   5.682   6.615
  902WAT     H1 2948   9.647   5.645   6.537
  902WAT     H2 2949   9.516   5.626   6.632
  903WAT      O 2950   7.397   3.640   5.311
  903WAT     H1 2951   7.346   3.689   5.382
  903WAT     H2 2952   7.417   3.547   5.343
  904WAT      O 2953   3.593   1.278   3.125
  904WAT     H1 2954   3.566   1.239   3.037
  904WAT     H2 2955   3.616   1.374   3.113
  905WAT      O 2956   5.955   4.754   5.511
  905WAT     H1 2957   6.004   4.826   5.559
  905WAT     H2 2958   6.018   4.681   5.486
  906WAT      O 2959   7.777   1.417   7.770
  906WAT     H1 2960   7.834   1.496   7.791
  906WAT     H2 2961   7.763   1.363   7.854
  907WAT      O 2962   3.152   7.146   8.499
  907WAT     H1 2963   3.158   7.047   8.495
  907WAT     H2 2964   3.156   7.183   8.406
  908WAT      O 2965   3.708   7.737   1.520
  908WAT     H1 2966   3.707   7.836   1.536
  908WAT     H2 2967   3.778   7.715   1.452
  909WAT      O 2968   6.770   3.523   4.346
  909WAT     H1 2969   6.835   3.508   4.420
  909WAT     H2 2970   6.814   3.503   4.259
  910WAT      O 2971   6.745   2.818   5.829
  910WAT     H1 2972   6.728   2.881   5.904
  910WAT     H2 2973   6.667   2.756   5.819
  911WAT      O 2974   6.444   9.657   2.130
  911WAT     H1 2975   6.386   9.681   2.207
  911WAT     H2 2976   6.460   9.558   2.131
  912WAT      O 2977   6.142   8.086   2.174
  912WAT     H1 2978   6.134   7.987   2.162
  912WAT     H2 2979   6.218   8.106   2.237
  913WAT      O 2980   3.659   1.502   8.670
  913WAT     H1 2981   3.640   1.585   8.617
  913WAT     H2 2982   3.730   1.449   8.624
  914WAT      O 2983   9.399   2.354   9.229
  914WAT     H1 2984   9.457   2.373   9.149
  914WAT     H2 2985   9.355   2.439   9.259
  915WAT      O 2986   3.503   2.004   2.497
  915WAT     H1 2987   3.599   1.997   2.471
  915WAT     H2 2988   3.446   2.005   2.415
  916WAT      O 2989   8.259   7.250   1.648
  916WAT     H1 2990   8.302   7.340   1.636
  916WAT     H2 2991   8.161   7.262   1.661
  917WAT      O 2992   8.062   1.097   8.959
  917WAT     H1 2993   8.118   1.163   8.908
  917WAT     H2 2994   7.970   1.093   8.920
  918WAT      O 2995   8.794   5.009   7.869
  918WAT     H1 2996   8.721   4.973   7.927
  918WAT     H2 2997   8.831   4.937   7.811
  919WAT      O 2998   8.359   2.198   3.755
  919WAT     H1 2999   8.454   2.176   3.734
  919WAT     H2 3000   8.352   2.293   3.783
  920WAT      O 3001   0.802   3.437   1.045
  920WAT     H1 3002   0.728   3.504   1.054
  920WAT     H2 3003   0.765   3.345   1.054
  921WAT      O 3004   7.650   9.431   9.604
  921WAT     H1 3005   7.701   9.359   9.557
  921WAT     H2 3006   7.610   9.394   9.689
  922WAT      O 3007   6.324   3.284   4.940
  922WAT     H1 3008   6.387   3.299   5.016
  922WAT     H2 3009   6.320   3.367   4.884
  923WAT      O 3010   8.527   9.373   3.143
  923WAT     H1 3011   8.532   9.443   3.215
  923WAT     H2 3012   8.440   9.381   3.095
  924WAT      O 3013   2.862   1.256   2.328
  924WAT     H1 3014   2.961   1.240   2.319
  924WAT     H2 3015   2.820   1.249   2.238
  925WAT      O 3016   7.274   3.864   0.262
  925WAT     H1 3017   7.296   3.959   0.241
  925WAT     H2 3018   7.333   3.804   0.207
  926WAT      O 3019   7.309   3.051   2.377
  926WAT     H1 3020   7.353   2.983   2.318
  926WAT     H2 3021   7.210   3.050   2.360
  927WAT      O 3022   0.598   7.740   6.513
  927WAT     H1 3023   0.522   7.737   6.579
  927WAT     H2 3024   0.588   7.665   6.448
  928WAT      O 3025   8.263   2.326   3.105
  928WAT     H1 3026   8.176   2.285   3.077
  928WAT     H2 3027   8.339   2.278   3.061
  929WAT      O 3028   1.129   7.117   5.258
  929WAT     H1 3029   1.196   7.174   5.211
  929WAT     H2 3030   1.042   7.166   5.265
  930WAT      O 3031   7.488   3.064   1.770
  930WAT     H1 3032   7.457   3.080   1.676
  930WAT     H2 3033   7.578   3.105   1.783
  931WAT      O 3034   6.748   8.243   3.617
  931WAT     H1 3035   6.745   8.163   3.677
  931WAT     H2 3036   6.677   8.308   3.645
  932WAT      O 3037   8.410   4.094   4.580
  932WAT     H1 3038   8.319   4.115   4.616
  932WAT     H2 3039   8.445   4.012   4.624
  933WAT      O 3040   2.939   9.120   3.228
  933WAT     H1 3041   2.998   9.200   3.219
  933WAT     H2 3042   2.936   9.071   3.141
  934WAT      O 3043   3.022   7.429   1.227
  934WAT     H1 3044   2.983   7.465   1.312
  934WAT     H2 3045   2.968   7.460   1.149
  935WAT      O 3046   7.087   4.954   2.705
  935WAT     H1 3047   7.058   5.027   2.643
  935WAT     H2 3048   7.133   4.995   2.785
  936WAT      O 3049   0.514   5.133   2.824
  936WAT     H1 3050   0.474   5.106   2.911
  936WAT     H2 3051   0.441   5.154   2.758
  937WAT      O 3052   4.945   6.436   3.842
  937WAT     H1 3053   4.948   6.489   3.926
  937WAT     H2 3054   4.913   6.343   3.862
  938WAT      O 3055   1.605   7.202   5.844
  938WAT     H1 3056   1.619   7.115   5.890
  938WAT     H2 3057   1.510   7.232   5.858
  939WAT      O 3058   4.724   6.561   8.856
  939WAT     H1 3059   4.766   6.649   8.877
  939WAT     H2 3060   4.793   6.499   8.818
  940WAT      O 3061   6.335   6.386   7.689
  940WAT     H1 3062   6.363   6.385   7.593
  940WAT     H2 3063   6.257   6.448   7.701
  941WAT      O 3064   3.350   8.339   9.526
  941WAT     H1 3065   3.420   8.287   9.574
  941WAT     H2 3066   3.390   8.424   9.491
  942WAT      O 3067   8.954   2.193   6.203
  942WAT     H1 3068   9.049   2.162   6.202
  942WAT     H2 3069   8.940   2.255   6.281
  943WAT      O 3070   1.587   3.048   8.215
  943WAT     H1 3071   1.533   3.132   8.203
  943WAT     H2 3072   1.676   3.071   8.253
  944WAT      O 3073   5.288   1.993   8.199
  944WAT     H1 3074   5.250   2.049   8.125
  944WAT     H2 3075   5.383   1.969   8.178
  945WAT      O 3076   0.305   8.337   8.558
  945WAT     H1 3077   0.248   8.289   8.492
  945WAT     H2 3078   0.250   8.402   8.610
  946WAT      O 3079   4.414   6.863   0.772
  946WAT     H1 3080   4.356   6.782   0.780
  946WAT     H2 3081   4.510   6.836   0.775
  947WAT      O 3082   1.338   1.512   3.327
  947WAT     H1 3083   1.418   1.465   3.288
  947WAT     H2 3084   1.274   1.535   3.255
  948WAT      O 3085   5.207   3.182   2.857
  948WAT     H1 3086   5.186   3.153   2.764
  948WAT     H2 3087   5.178   3.111   2.921
  949WAT      O 3088   3.433   9.811   6.139
  949WAT     H1 3089   3.387   9.825   6.051
  949WAT     H2 3090   3.532   9.812   6.125
  950WAT      O 3091   1.401   4.669   7.208
  950WAT     H1 3092   1.496   4.657   7.180
  950WAT     H2 3093   1.344   4.601   7.164
  951WAT      O 3094   9.601   3.330   3.797
  951WAT     H1 3095   9.639   3.237   3.791
  951WAT     H2 3096   9.655   3.391   3.739
  952WAT      O 3097   8.818   9.402   8.515
  952WAT     H1 3098   8.813   9.423   8.613
  952WAT     H2 3099   8.914   9.393   8.488
  953WAT      O 3100   3.141   9.673   3.581
  953WAT     H1 3101   3.132   9.665   3.680
  953WAT     H2 3102   3.238   9.682   3.557
  954WAT      O 3103   7.761   5.163   4.534
  954WAT     H1 3104   7.700   5.207   4.468
  954WAT     H2 3105   7.844   5.132   4.486
  955WAT      O 3106   4.358   8.625   4.812
  955WAT     H1 3107   4.435   8.626   4.876
  955WAT     H2 3108   4.289   8.562   4.845
  956WAT      O 3109   6.466   2.467   5.641
  956WAT     H1 3110   6.487   2.449   5.545
  956WAT     H2 3111   6.468   2.381   5.692
  957WAT      O 3112   0.416   5.280   8.115
  957WAT     H1 3113   0.415   5.187   8.150
  957WAT     H2 3114   0.376   5.282   8.024
  958WAT      O 3115   1.993   6.543   2.501
  958WAT     H1 3116   2.086   6.516   2.527
  958WAT     H2 3117   1.993   6.569   2.404
  959WAT      O 3118   9.677   1.265   6.333
  959WAT     H1 3119   9.593   1.259   6.279
  959WAT     H2 3120   9.688   1.359   6.366
  960WAT      O 3121   3.073   1.735   7.119
  960WAT     H1 3122   3.034   1.695   7.036
  960WAT     H2 3123   3.073   1.834   7.112
  961WAT      O 3124   0.816   6.660   0.069
  961WAT     H1 3125   0.741   6.727   0.075
  961WAT     H2 3126   0.826   6.630  -0.026
  962WAT      O 3127   1.364   4.773   7.820
  962WAT     H1 3128   1.406   4.864   7.814
  962WAT     H2 3129   1.422   4.706   7.773
  963WAT      O 3130   8.366   0.608   6.313
  963WAT     H1 3131   8.382   0.513   6.338
  963WAT     H2 3132   8.440   0.665   6.349
  964WAT      O 3133   9.256   7.889   4.920
  964WAT     H1 3134   9.325   7.841   4.865
  964WAT     H2 3135   9.178   7.829   4.936
  965WAT      O 3136   7.496   4.407   0.243
  965WAT     H1 3137   7.414   4.402   0.301
  965WAT     H2 3138   7.528   4.501   0.238
  966WAT      O 3139   5.557   9.568   0.916
  966WAT     H1 3140   5.628   9.536   0.978
  966WAT     H2 3141   5.544   9.667   0.929
  967WAT      O 3142   0.641   4.519   8.073
  967WAT     H1 3143   0.704   4.532   7.996
  967WAT     H2 3144   0.547   4.525   8.039
  968WAT      O 3145   0.932   8.354   3.866
  968WAT     H1 3146   0.931   8.350   3.766
  968WAT     H2 3147   0.839   8.366   3.900
  969WAT      O 3148   8.473   2.919   8.871
  969WAT     H1 3149   8.396   2.886   8.816
  969WAT     H2 3150   8.449   3.006   8.912
  970WAT      O 3151   2.420   3.701   8.982
  970WAT     H1 3152   2.487   3.659   8.921
  970WAT     H2 3153   2.389   3.788   8.942
  971WAT      O 3154   3.631   4.825   5.869
  971WAT     H1 3155   3.577   4.893   5.920
  971WAT     H2 3156   3.586   4.736   5.874
  972WAT      O 3157   0.537   2.082   7.775
  972WAT     H1 3158   0.508   2.056   7.867
  972WAT     H2 3159   0.462   2.128   7.727
  973WAT      O 3160   1.317   8.762   6.230
  973WAT     H1 3161   1.328   8.817   6.147
  973WAT     H2 3162   1.347   8.815   6.310
  974WAT      O 3163   4.196   0.889   1.892
  974WAT     H1 3164   4.167   0.793   1.887
  974WAT     H2 3165   4.122   0.947   1.859
  975WAT      O 3166   1.856   0.461   5.420
  975WAT     H1 3167   1.758   0.480   5.425
  975WAT     H2 3168   1.901   0.535   5.371
  976WAT      O 3169   2.057   7.754   7.824
  976WAT     H1 3170   2.111   7.696   7.886
  976WAT     H2 3171   2.119   7.810   7.769
  977WAT      O 3172   1.959   3.879   3.851
  977WAT     H1 3173   2.047   3.875   3.898
  977WAT     H2 3174   1.970   3.925   3.763
  978WAT      O 3175   0.364   1.612   2.046
  978WAT     H1 3176   0.367   1.701   1.999
  978WAT     H2 3177   0.444   1.558   2.019
  979WAT      O 3178   5.942   8.546   8.618
  979WAT     H1 3179   5.864   8.571   8.676
  979WAT     H2 3180   5.908   8.517   8.528
  980WAT      O 3181   9.580   3.383   8.395
  980WAT     H1 3182   9.508   3.395   8.327
  980WAT     H2 3183   9.547   3.326   8.469
  981WAT      O 3184   6.007   7.791   0.208
  981WAT     H1 3185   5.950   7.855   0.260
  981WAT     H2 3186   5.980   7.793   0.112
  982WAT      O 3187   2.123   5.550   4.489
  982WAT     H1 3188   2.078   5.602   4.417
  982WAT     H2 3189   2.084   5.575   4.578
  983WAT      O 3190   6.860   7.905   7.160
  983WAT     H1 3191   6.845   7.994   7.203
  983WAT     H2 3192   6.933   7.857   7.209
  984WAT      O 3193   6.998   2.491   8.365
  984WAT     H1 3194   6.959   2.576   8.330
  984WAT     H2 3195   6.924   2.425   8.381
  985WAT      O 3196   7.136   6.154   5.301
  985WAT     H1 3197   7.143   6.191   5.394
  985WAT     H2 3198   7.050   6.105   5.291
  986WAT      O 3199   5.580   8.365   2.849
  986WAT     H1 3200   5.642   8.286   2.855
  986WAT     H2 3201   5.632   8.449   2.859
  987WAT      O 3202   8.512   2.089   6.399
  987WAT     H1 3203   8.434   2.051   6.349
  987WAT     H2 3204   8.591   2.028   6.388
  988WAT      O 3205   9.595   2.347   0.879
  988WAT     H1 3206   9.548   2.372   0.794
  988WAT     H2 3207   9.651   2.266   0.862
  989WAT      O 3208   9.745   4.148   6.766
  989WAT     H1 3209   9.722   4.118   6.673
  989WAT     H2 3210   9.842   4.133   6.783
  990WAT      O 3211   5.255   5.000   1.915
  990WAT     H1 3212   5.189   4.926   1.906
  990WAT     H2 3213   5.320   4.978   1.988
  991WAT      O 3214   1.851   3.733   1.125
  991WAT     H1 3215   1.778   3.722   1.058
  991WAT     H2 3216   1.816   3.778   1.206
  992WAT      O 3217   5.969   5.310   2.293
  992WAT     H1 3218   5.988   5.408   2.281
  992WAT     H2 3219   5.999   5.261   2.211
  993WAT      O 3220   9.865   4.036   2.684
  993WAT     H1 3221   9.805   4.006   2.759
  993WAT     H2 3222   9.836   3.991   2.599
  994WAT      O 3223   5.958   3.131   3.077
  994WAT     H1 3224   5.949   3.152   2.980
  994WAT     H2 3225   5.876   3.164   3.126
  995WAT      O 3226   8.428   3.933   3.604
  995WAT     H1 3227   8.513   3.881   3.602
  995WAT     H2 3228   8.386   3.924   3.694
  996WAT      O 3229   9.337   7.299   2.348
  996WAT     H1 3230   9.409   7.340   2.403
  996WAT     H2 3231   9.315   7.360   2.272
  997WAT      O 3232   5.156   0.056   0.242
  997WAT     H1 3233   5.253   0.074   0.256
  997WAT     H2 3234   5.134  -0.036   0.275
  998WAT      O 3235   3.898   3.520   6.463
  998WAT     H1 3236   3.980   3.479   6.423
  998WAT     H2 3237   3.918   3.613   6.493
  999WAT      O 3238   5.258   8.637   1.712
  999WAT     H1 3239   5.218   8.728   1.711
  999WAT     H2 3240   5.334   8.635   1.776
 1000WAT      O 3241   6.945   1.626   2.188
 1000WAT     H1 3242   7.002   1.551   2.155
 1000WAT     H2 3243   6.938   1.696   2.117
 1001WAT      O 3244   0.669   9.619   4.705
 1001WAT     H1 3245   0.653   9.613   4.803
 1001WAT     H2 3246   0.597   9.675   4.662
 1002WAT      O 3247   6.981   7.280   2.337
 1002WAT     H1 3248   6.915   7.214   2.301
 1002WAT     H2 3249   7.031   7.238   2.413
 1003WAT      O 3250   2.907   6.488   8.677
 1003WAT     H1 3251   2.905   6.463   8.580
 1003WAT     H2 3252   3.001   6.483   8.711
 1004WAT      O 3253   8.489   0.681   7.001
 1004WAT     H1 3254   8.577   0.651   7.036
 1004WAT     H2 3255   8.416   0.631   7.048
 1005WAT      O 3256   3.151   3.420   8.987
 1005WAT     H1 3257   3.139   3.350   8.917
 1005WAT     H2 3258   3.228   3.395   9.046
 1006WAT      O 3259   7.106   2.572   1.113
 1006WAT     H1 3260   7.073   2.549   1.205
 1006WAT     H2 3261   7.058   2.515   1.046
 1007WAT      O 3262   2.125   3.324   8.434
 1007WAT     H1 3263   2.154   3.234   8.465
 1007WAT     H2 3264   2.063   3.364   8.501
 1008WAT      O 3265   1.156   0.525   8.255
 1008WAT     H1 3266   1.207   0.514   8.169
 1008WAT     H2 3267   1.182   0.612   8.297
 1009WAT      O 3268   8.108   9.519   6.177
 1009WAT     H1 3269   8.060   9.529   6.089
 1009WAT     H2 3270   8.206   9.509   6.160
 1010WAT      O 3271   0.719   3.823   3.980
 1010WAT     H1 3272   0.716   3.730   3.943
 1010WAT     H2 3273   0.735   3.820   4.078
 1011WAT      O 3274   6.093   9.619   5.495
 1011WAT     H1 3275   6.140   9.539   5.533
 1011WAT     H2 3276   6.142   9.702   5.521
 1012WAT      O 3277   2.760   2.599   7.303
 1012WAT     H1 3278   2.831   2.546   7.349
 1012WAT     H2 3279   2.800   2.646   7.224
 1013WAT      O 3280   3.767   0.129   1.504
 1013WAT     H1 3281   3.790   0.104   1.410
 1013WAT     H2 3282   3.778   0.050   1.564
 1014WAT      O 3283   0.635   7.961   4.842
 1014WAT     H1 3284   0.638   8.021   4.762
 1014WAT     H2 3285   0.713   7.898   4.839
 1015WAT      O 3286   5.928   2.264   8.814
 1015WAT     H1 3287   5.859   2.192   8.803
 1015WAT     H2 3288   5.944   2.281   8.911
 1016WAT      O 3289   6.246   6.068   8.946
 1016WAT     H1 3290   6.155   6.053   8.984
 1016WAT     H2 3291   6.315   6.035   9.010
 1017WAT      O 3292   6.323   0.488   3.458
 1017WAT     H1 3293   6.319   0.545   3.540
 1017WAT     H2 3294   6.397   0.421   3.467
 1018WAT      O 3295   5.566   4.882   0.377
 1018WAT     H1 3296   5.624   4.806   0.406
 1018WAT     H2 3297   5.503   4.905   0.451
 1019WAT      O 3298   1.351   6.683   2.592
 1019WAT     H1 3299   1.414   6.633   2.533
 1019WAT     H2 3300   1.347   6.638   2.682
 1020WAT      O 3301   7.808   6.408   9.179
 1020WAT     H1 3302   7.857   6.327   9.210
 1020WAT     H2 3303   7.709   6.391   9.184
 1021WAT      O 3304   7.997   5.512   9.537
 1021WAT     H1 3305   7.991   5.450   9.459
 1021WAT     H2 3306   8.031   5.462   9.617
 1022WAT      O 3307   3.172   5.966   5.139
 1022WAT     H1 3308   3.165   6.058   5.102
 1022WAT     H2 3309   3.081   5.925   5.146
 1023WAT      O 3310   3.901   1.273   6.332
 1023WAT     H1 3311   3.898   1.188   6.385
 1023WAT     H2 3312   3.989   1.280   6.285
 1024WAT      O 3313   5.737   7.863   6.740
 1024WAT     H1 3314   5.736   7.765   6.760
 1024WAT     H2 3315   5.829   7.899   6.754
 1025WAT      O 3316   1.340   7.945   4.723
 1025WAT     H1 3317   1.412   7.875   4.723
 1025WAT     H2 3318   1.315   7.967   4.629
 1026WAT      O 3319   3.322   4.224   0.258
 1026WAT     H1 3320   3.266   4.306   0.269
 1026WAT     H2 3321   3.393   4.223   0.329
 1027WAT      O 3322   4.234   3.196   1.916
 1027WAT     H1 3323   4.192   3.134   1.850
 1027WAT     H2 3324   4.163   3.252   1.959
 1028WAT      O 3325   6.428   9.443   0.888
 1028WAT     H1 3326   6.340   9.459   0.843
 1028WAT     H2 3327   6.443   9.344   0.897
 1029WAT      O 3328   7.164   2.404   7.461
 1029WAT     H1 3329   7.165   2.488   7.407
 1029WAT     H2 3330   7.126   2.330   7.405
 1030WAT      O 3331   3.118   9.487   9.822
 1030WAT     H1 3332   3.217   9.479   9.829
 1030WAT     H2 3333   3.091   9.581   9.839
 1031WAT      O 3334   6.285   4.878   1.893
 1031WAT     H1 3335   6.323   4.786   1.904
 1031WAT     H2 3336   6.190   4.880   1.924
 1032WAT      O 3337   0.758   5.964   4.051
 1032WAT     H1 3338   0.694   6.009   4.113
 1032WAT     H2 3339   0.836   5.929   4.103
 1033WAT      O 3340   8.445   2.856   6.493
 1033WAT     H1 3341   8.410   2.886   6.404
 1033WAT     H2 3342   8.438   2.757   6.499
 1034WAT      O 3343   7.602   5.887   9.789
 1034WAT     H1 3344   7.621   5.884   9.691
 1034WAT     H2 3345   7.548   5.969   9.809
 1035WAT      O 3346   4.590   8.971   7.539
 1035WAT     H1 3347   4.491   8.981   7.524
 1035WAT     H2 3348   4.607   8.893   7.599
 1036WAT      O 3349   8.770   4.423   6.704
 1036WAT     H1 3350   8.752   4.329   6.676
 1036WAT     H2 3351   8.776   4.428   6.803
 1037WAT      O 3352   4.999   2.805   4.207
 1037WAT     H1 3353   4.914   2.763   4.239
 1037WAT     H2 3354   5.062   2.733   4.178
 1038WAT      O 3355   9.148   5.401   8.031
 1038WAT     H1 3356   9.164   5.499   8.018
 1038WAT     H2 3357   9.138   5.381   8.128
 1039WAT      O 3358   6.878   2.730   3.392
 1039WAT     H1 3359   6.820   2.717   3.312
 1039WAT     H2 3360   6.821   2.748   3.472
 1040WAT      O 3361   2.784   8.675   7.584
 1040WAT     H1 3362   2.850   8.628   7.525
 1040WAT     H2 3363   2.781   8.629   7.673
 1041WAT      O 3364   1.848   8.137   1.957
 1041WAT     H1 3365   1.847   8.211   2.024
 1041WAT     H2 3366   1.797   8.058   1.994
 1042WAT      O 3367   0.643   6.427   3.351
 1042WAT     H1 3368   0.691   6.368   3.286
 1042WAT     H2 3369   0.544   6.414   3.340
 1043WAT      O 3370   9.030   7.295   4.094
 1043WAT     H1 3371   9.049   7.391   4.073
 1043WAT     H2 3372   9.092   7.237   4.040
 1044WAT      O 3373   3.042   3.268   5.770
 1044WAT     H1 3374   2.995   3.179   5.771
 1044WAT     H2 3375   2.976   3.341   5.790
 1045WAT      O 3376   9.870   5.473   1.144
 1045WAT     H1 3377   9.775   5.487   1.172
 1045WAT     H2 3378   9.873   5.455   1.046
 1046WAT      O 3379   8.171   8.636   4.640
 1046WAT     H1 3380   8.250   8.665   4.694
 1046WAT     H2 3381   8.191   8.647   4.542
 1047WAT      O 3382   0.167   0.147   4.150
 1047WAT     H1 3383   0.253   0.196   4.139
 1047WAT     H2 3384   0.112   0.191   4.221
 1048WAT      O 3385   7.486   9.134   0.266
 1048WAT     H1 3386   7.401   9.105   0.310
 1048WAT     H2 3387   7.562   9.127   0.331
 1049WAT      O 3388   8.057   0.055   3.600
 1049WAT     H1 3389   8.136   0.049   3.661
 1049WAT     H2 3390   8.085   0.034   3.507
 1050WAT      O 3391   4.703   9.720   5.646
 1050WAT     H1 3392   4.723   9.731   5.744
 1050WAT     H2 3393   4.784   9.684   5.600
 1051WAT      O 3394   7.094   2.383   6.567
 1051WAT     H1 3395   7.172   2.320   6.559
 1051WAT     H2 3396   7.126   2.471   6.601
 1052WAT      O 3397   8.517   4.157   6.415
 1052WAT     H1 3398   8.586   4.160   6.486
 1052WAT     H2 3399   8.430   4.193   6.450
 1053WAT      O 3400   5.833   7.402   9.273
 1053WAT     H1 3401   5.878   7.348   9.344
 1053WAT     H2 3402   5.896   7.473   9.241
 1054WAT      O 3403   1.305   5.400   1.111
 1054WAT     H1 3404   1.244   5.406   1.032
 1054WAT     H2 3405   1.297   5.309   1.151
 1055WAT      O 3406   1.628   7.614   0.992
 1055WAT     H1 3407   1.571   7.673   0.935
 1055WAT     H2 3408   1.699   7.668   1.036
 1056WAT      O 3409   5.564   7.113   8.628
 1056WAT     H1 3410   5.529   7.085   8.538
 1056WAT     H2 3411   5.521   7.200   8.654
 1057WAT      O 3412   2.604   4.388   5.744
 1057WAT     H1 3413   2.685   4.428   5.786
 1057WAT     H2 3414   2.595   4.292   5.772
 1058WAT      O 3415   4.956   8.317   5.423
 1058WAT     H1 3416   5.036   8.318   5.362
 1058WAT     H2 3417   4.949   8.405   5.470
 1059WAT      O 3418   5.882   6.057   2.263
 1059WAT     H1 3419   5.792   6.015   2.251
 1059WAT     H2 3420   5.875   6.134   2.326
 1060WAT      O 3421   0.627   7.998   2.552
 1060WAT     H1 3422   0.689   7.924   2.575
 1060WAT     H2 3423   0.661   8.047   2.472
 1061WAT      O 3424   0.459   6.259   3.928
 1061WAT     H1 3425   0.418   6.304   3.848
 1061WAT     H2 3426   0.543   6.212   3.900
 1062WAT      O 3427   3.925   0.854   4.423
 1062WAT     H1 3428   3.941   0.773   4.479
 1062WAT     H2 3429   3.887   0.827   4.335
 1063WAT      O 3430   7.874   5.063   6.686
 1063WAT     H1 3431   7.814   5.020   6.617
 1063WAT     H2 3432   7.869   5.011   6.771
 1064WAT      O 3433   9.049   2.506   8.652
 1064WAT     H1 3434   9.088   2.520   8.743
 1064WAT     H2 3435   8.965   2.560   8.644
 1065WAT      O 3436   0.299   0.089   3.327
 1065WAT     H1 3437   0.378   0.058   3.379
 1065WAT     H2 3438   0.284   0.027   3.250
 1066WAT      O 3439   6.676   9.417   6.989
 1066WAT     H1 3440   6.738   9.341   7.009
 1066WAT     H2 3441   6.588   9.400   7.032
 1067WAT      O 3442   0.691   9.781   7.054
 1067WAT     H1 3443   0.735   9.868   7.032
 1067WAT     H2 3444   0.742   9.706   7.011
 1068WAT      O 3445   7.771   4.678   5.229
 1068WAT     H1 3446   7.731   4.598   5.274
 1068WAT     H2 3447   7.730   4.689   5.138
 1069WAT      O 3448   4.518   5.036   8.030
 1069WAT     H1 3449   4.474   4.963   8.082
 1069WAT     H2 3450   4.458   5.115   8.026
 1070WAT      O 3451   7.659   6.705   6.929
 1070WAT     H1 3452   7.584   6.706   6.863
 1070WAT     H2 3453   7.746   6.713   6.881
 1071WAT      O 3454   0.706   2.959   2.247
 1071WAT     H1 3455   0.798   2.961   2.206
 1071WAT     H2 3456   0.683   2.865   2.271
 1072WAT      O 3457   2.681   7.320   4.637
 1072WAT     H1 3458   2.601   7.373   4.666
 1072WAT     H2 3459   2.683   7.315   4.538
 1073WAT      O 3460   6.436   8.758   9.654
 1073WAT     H1 3461   6.365   8.757   9.584
 1073WAT     H2 3462   6.464   8.665   9.676
 1074WAT      O 3463   7.702   0.490   1.986
 1074WAT     H1 3464   7.622   0.549   2.001
 1074WAT     H2 3465   7.751   0.477   2.072
 1075WAT      O 3466   7.319   8.851   2.660
 1075WAT     H1 3467   7.331   8.817   2.754
 1075WAT     H2 3468   7.408   8.865   2.618
 1076WAT      O 3469   3.841   8.545   1.293
 1076WAT     H1 3470   3.937   8.571   1.284
 1076WAT     H2 3471   3.792   8.614   1.346
 1077WAT      O 3472   6.657   4.478   8.847
 1077WAT     H1 3473   6.637   4.397   8.792
 1077WAT     H2 3474   6.718   4.539   8.796
 1078WAT      O 3475   3.974   4.108   5.180
 1078WAT     H1 3476   3.886   4.066   5.160
 1078WAT     H2 3477   4.046   4.061   5.128
 1079WAT      O 3478   4.131   3.154   0.465
 1079WAT     H1 3479   4.100   3.170   0.371
 1079WAT     H2 3480   4.066   3.096   0.513
 1080WAT      O 3481   2.637   5.262   3.937
 1080WAT     H1 3482   2.651   5.197   3.863
 1080WAT     H2 3483   2.648   5.355   3.903
 1081WAT      O 3484   5.073   1.698   5.488
 1081WAT     H1 3485   4.991   1.642   5.495
 1081WAT     H2 3486   5.127   1.688   5.571
 1082WAT      O 3487   0.301   1.156   2.847
 1082WAT     H1 3488   0.281   1.235   2.790
 1082WAT     H2 3489   0.215   1.112   2.875
 1083WAT      O 3490   8.661   6.556   1.174
 1083WAT     H1 3491   8.745   6.573   1.122
 1083WAT     H2 3492   8.685   6.527   1.267
 1084WAT      O 3493   8.330   4.301   5.761
 1084WAT     H1 3494   8.409   4.347   5.802
 1084WAT     H2 3495   8.361   4.224   5.705
 1085WAT      O 3496   5.828   4.620   7.604
 1085WAT     H1 3497   5.900   4.670   7.653
 1085WAT     H2 3498   5.815   4.661   7.514
 1086WAT      O 3499   0.893   3.755   1.291
 1086WAT     H1 3500   0.815   3.784   1.236
 1086WAT     H2 3501   0.883   3.788   1.385
 1087WAT      O 3502   1.884   0.339   4.160
 1087WAT     H1 3503   1.942   0.340   4.240
 1087WAT     H2 3504   1.793   0.305   4.185
 1088WAT      O 3505   3.374   5.336   5.721
 1088WAT     H1 3506   3.426   5.252   5.705
 1088WAT     H2 3507   3.276   5.317   5.712
 1089WAT      O 3508   6.101   5.780   0.150
 1089WAT     H1 3509   6.056   5.794   0.238
 1089WAT     H2 3510   6.170   5.851   0.136
 1090WAT      O 3511   0.848   2.448   4.109
 1090WAT     H1 3512   0.853   2.484   4.016
 1090WAT     H2 3513   0.937   2.410   4.135
 1091WAT      O 3514   5.150   0.624   1.295
 1091WAT     H1 3515   5.135   0.717   1.262
 1091WAT     H2 3516   5.075   0.598   1.355
 1092WAT      O 3517   5.187   1.873   8.690
 1092WAT     H1 3518   5.163   1.960   8.733
 1092WAT     H2 3519   5.191   1.885   8.590
 1093WAT      O 3520   6.109   3.494   6.652
 1093WAT     H1 3521   6.202   3.477   6.685
 1093WAT     H2 3522   6.106   3.479   6.553
 1094WAT      O 3523   4.190   2.432   8.439
 1094WAT     H1 3524   4.139   2.478   8.512
 1094WAT     H2 3525   4.275   2.395   8.476
 1095WAT      O 3526   3.005   4.562   6.080
 1095WAT     H1 3527   3.010   4.474   6.127
 1095WAT     H2 3528   2.927   4.562   6.017
 1096WAT      O 3529   5.994   6.239   5.698
 1096WAT     H1 3530   5.984   6.159   5.640
 1096WAT     H2 3531   6.069   6.296   5.664
 1097WAT      O 3532   5.068   2.385   9.479
 1097WAT     H1 3533   5.019   2.431   9.406
 1097WAT     H2 3534   5.031   2.414   9.568
 1098WAT      O 3535   6.618   9.749   2.733
 1098WAT     H1 3536   6.528   9.706   2.734
 1098WAT     H2 3537   6.645   9.765   2.638
 1099WAT      O 3538   7.206   7.214   0.778
 1099WAT     H1 3539   7.195   7.311   0.799
 1099WAT     H2 3540   7.199   7.199   0.680
 1100WAT      O 3541   7.144   6.816   4.572
 1100WAT     H1 3542   7.087   6.784   4.647
 1100WAT     H2 3543   7.117   6.769   4.488
 1101WAT      O 3544   5.368   7.560   6.609
 1101WAT     H1 3545   5.343   7.654   6.585
 1101WAT     H2 3546   5.431   7.524   6.540
 1102WAT      O 3547   8.137   8.852   9.446
 1102WAT     H1 3548   8.115   8.856   9.349
 1102WAT     H2 3549   8.141   8.757   9.476
 1103WAT      O 3550   1.275   6.439   0.753
 1103WAT     H1 3551   1.351   6.380   0.726
 1103WAT     H2 3552   1.287   6.529   0.711
 1104WAT      O 3553   4.312   2.277   2.434
 1104WAT     H1 3554   4.323   2.351   2.500
 1104WAT     H2 3555   4.342   2.191   2.476
 1105WAT      O 3556   9.534   1.685   2.059
 1105WAT     H1 3557   9.612   1.748   2.066
 1105WAT     H2 3558   9.489   1.679   2.148
 1106WAT      O 3559   5.133   7.166   1.351
 1106WAT     H1 3560   5.105   7.236   1.418
 1106WAT     H2 3561   5.060   7.099   1.341
 1107WAT      O 3562   8.338   5.973   5.282
 1107WAT     H1 3563   8.300   5.912   5.212
 1107WAT     H2 3564   8.434   5.993   5.260
 1108WAT      O 3565   9.800   1.439   0.400
 1108WAT     H1 3566   9.721   1.381   0.419
 1108WAT     H2 3567   9.774   1.510   0.334
 1109WAT      O 3568   1.613   0.355   5.824
 1109WAT     H1 3569   1.692   0.379   5.768
 1109WAT     H2 3570   1.544   0.427   5.816
 1110WAT      O 3571   6.397   3.361   6.036
 1110WAT     H1 3572   6.451   3.400   6.111
 1110WAT     H2 3573   6.336   3.431   6.000
 1111WAT      O 3574   0.643   3.668   2.025
 1111WAT     H1 3575   0.596   3.591   1.981
 1111WAT     H2 3576   0.657   3.741   1.957
 1112WAT      O 3577   3.028   3.265   0.080
 1112WAT     H1 3578   3.118   3.222   0.085
 1112WAT     H2 3579   3.030   3.339   0.013
 1113WAT      O 3580   4.835   6.751   6.940
 1113WAT     H1 3581   4.867   6.743   6.845
 1113WAT     H2 3582   4.762   6.686   6.956
 1114WAT      O 3583   7.119   3.505   8.136
 1114WAT     H1 3584   7.165   3.417   8.122
 1114WAT     H2 3585   7.145   3.568   8.063
 1115WAT      O 3586   0.714   4.107   7.963
 1115WAT     H1 3587   0.672   4.161   8.036
 1115WAT     H2 3588   0.762   4.029   8.002
 1116WAT      O 3589   1.525   8.768   8.346
 1116WAT     H1 3590   1.604   8.778   8.285
 1116WAT     H2 3591   1.450   8.826   8.312
 1117WAT      O 3592   4.507   0.426   4.157
 1117WAT     H1 3593   4.585   0.413   4.096
 1117WAT     H2 3594   4.533   0.486   4.232
 1118WAT      O 3595   0.504   0.949   4.206
 1118WAT     H1 3596   0.464   1.025   4.258
 1118WAT     H2 3597   0.576   0.906   4.260
 1119WAT      O 3598   3.009   8.942   3.620
 1119WAT     H1 3599   3.003   8.893   3.533
 1119WAT     H2 3600   3.084   8.905   3.674
 1120WAT      O 3601   1.608   0.788   0.498
 1120WAT     H1 3602   1.667   0.797   0.578
 1120WAT     H2 3603   1.651   0.724   0.433
 1121WAT      O 3604   5.429   7.416   3.704
 1121WAT     H1 3605   5.387   7.506   3.691
 1121WAT     H2 3606   5.452   7.376   3.615
 1122WAT      O 3607   4.986   7.352   9.802
 1122WAT     H1 3608   4.985   7.437   9.751
 1122WAT     H2 3609   4.898   7.305   9.791
 1123WAT      O 3610   2.839   3.650   9.867
 1123WAT     H1 3611   2.828   3.737   9.915
 1123WAT     H2 3612   2.757   3.594   9.879
 1124WAT      O 3613   0.312   3.569   7.488
 1124WAT     H1 3614   0.273   3.654   7.522
 1124WAT     H2 3615   0.247   3.526   7.425
 1125WAT      O 3616   3.641   5.503   1.142
 1125WAT     H1 3617   3.710   5.530   1.208
 1125WAT     H2 3618   3.554   5.546   1.165
 1126WAT      O 3619   5.742   3.238   9.365
 1126WAT     H1 3620   5.799   3.234   9.283
 1126WAT     H2 3621   5.681   3.159   9.367
 1127WAT      O 3622   5.426   7.295   3.160
 1127WAT     H1 3623   5.484   7.327   3.085
 1127WAT     H2 3624   5.468   7.214   3.203
 1128WAT      O 3625   0.210   7.682   2.079
 1128WAT     H1 3626   0.124   7.729   2.059
 1128WAT     H2 3627   0.251   7.721   2.161
 1129WAT      O 3628   9.150   2.824   2.612
 1129WAT     H1 3629   9.142   2.858   2.519
 1129WAT     H2 3630   9.216   2.748   2.615
 1130WAT      O 3631   9.871   2.859   6.396
 1130WAT     H1 3632   9.874   2.923   6.319
 1130WAT     H2 3633   9.853   2.908   6.480
 1131WAT      O 3634   5.874   1.580   7.589
 1131WAT     H1 3635   5.885   1.500   7.531
 1131WAT     H2 3636   5.777   1.606   7.592
 1132WAT      O 3637   2.929   4.855   9.841
 1132WAT     H1 3638   2.864   4.894   9.776
 1132WAT     H2 3639   2.898   4.765   9.870
 1133WAT      O 3640   7.021   5.364   4.607
 1133WAT     H1 3641   7.019   5.264   4.603
 1133WAT     H2 3642   7.009   5.401   4.515
 1134WAT      O 3643   1.288   4.245   1.758
 1134WAT     H1 3644   1.363   4.301   1.792
 1134WAT     H2 3645   1.305   4.221   1.662
 1135WAT      O 3646   4.338   8.456   6.607
 1135WAT     H1 3647   4.429   8.433   6.572
 1135WAT     H2 3648   4.288   8.507   6.537
 1136WAT      O 3649   0.101   5.346   7.394
 1136WAT     H1 3650   0.015   5.394   7.412
 1136WAT     H2 3651   0.130   5.365   7.300
 1137WAT      O 3652   8.128   4.085   9.325
 1137WAT     H1 3653   8.184   4.032   9.261
 1137WAT     H2 3654   8.044   4.034   9.346
 1138WAT      O 3655   0.581   5.636   7.888
 1138WAT     H1 3656   0.592   5.608   7.984
 1138WAT     H2 3657   0.493   5.605   7.854
 1139WAT      O 3658   5.521   8.406   5.106
 1139WAT     H1 3659   5.535   8.394   5.007
 1139WAT     H2 3660   5.488   8.321   5.146
 1140WAT      O 3661   3.660   2.758   4.928
 1140WAT     H1 3662   3.744   2.703   4.920
 1140WAT     H2 3663   3.683   2.855   4.923
 1141WAT      O 3664   2.059   6.256   9.458
 1141WAT     H1 3665   2.116   6.257   9.375
 1141WAT     H2 3666   1.966   6.284   9.435
 1142WAT      O 3667   3.402   9.563   3.841
 1142WAT     H1 3668   3.432   9.602   3.754
 1142WAT     H2 3669   3.409   9.464   3.837
 1143WAT      O 3670   8.170   7.616   1.451
 1143WAT     H1 3671   8.179   7.713   1.472
 1143WAT     H2 3672   8.242   7.564   1.498
 1144WAT      O 3673   8.223   4.320   4.309
 1144WAT     H1 3674   8.322   4.331   4.312
 1144WAT     H2 3675   8.179   4.397   4.355
 1145WAT      O 3676   9.339   5.684   7.757
 1145WAT     H1 3677   9.384   5.724   7.677
 1145WAT     H2 3678   9.373   5.728   7.840
 1146WAT      O 3679   7.223   8.790   3.168
 1146WAT     H1 3680   7.132   8.769   3.132
 1146WAT     H2 3681   7.221   8.879   3.213
 1147WAT      O 3682   8.607   9.594   0.893
 1147WAT     H1 3683   8.513   9.583   0.861
 1147WAT     H2 3684   8.607   9.604   0.992
 1148WAT      O 3685   3.997   8.316   8.616
 1148WAT     H1 3686   3.905   8.284   8.639
 1148WAT     H2 3687   3.999   8.349   8.521
 1149WAT      O 3688   9.223   2.150   9.555
 1149WAT     H1 3689   9.156   2.077   9.570
 1149WAT     H2 3690   9.282   2.157   9.636
 1150WAT      O 3691   6.074   5.464   3.260
 1150WAT     H1 3692   6.148   5.422   3.207
 1150WAT     H2 3693   6.093   5.561   3.273
 1151WAT      O 3694   5.461   8.976   4.090
 1151WAT     H1 3695   5.510   8.892   4.066
 1151WAT     H2 3696   5.414   8.963   4.177
 1152WAT      O 3697   2.311   5.668   7.275
 1152WAT     H1 3698   2.386   5.633   7.331
 1152WAT     H2 3699   2.290   5.602   7.203
 1153WAT      O 3700   8.421   0.594   8.740
 1153WAT     H1 3701   8.434   0.692   8.758
 1153WAT     H2 3702   8.325   0.578   8.717
 1154WAT      O 3703   2.951   7.083   3.402
 1154WAT     H1 3704   2.987   7.133   3.480
 1154WAT     H2 3705   2.937   6.987   3.427
 1155WAT      O 3706   4.252   8.597   5.887
 1155WAT     H1 3707   4.349   8.582   5.867
 1155WAT     H2 3708   4.210   8.512   5.918
 1156WAT      O 3709   9.777   6.518   0.020
 1156WAT     H1 3710   9.762   6.419   0.014
 1156WAT     H2 3711   9.688   6.565   0.021
 1157WAT      O 3712   8.317   8.869   0.837
 1157WAT     H1 3713   8.250   8.857   0.763
 1157WAT     H2 3714   8.307   8.795   0.903
 1158WAT      O 3715   8.962   7.128   0.699
 1158WAT     H1 3716   8.930   7.136   0.793
 1158WAT     H2 3717   8.925   7.203   0.645
 1159WAT      O 3718   2.028   3.695   4.799
 1159WAT     H1 3719   1.933   3.668   4.786
 1159WAT     H2 3720   2.052   3.766   4.733
 1160WAT      O 3721   9.452   2.745   2.588
 1160WAT     H1 3722   9.470   2.793   2.674
 1160WAT     H2 3723   9.420   2.810   2.520
 1161WAT      O 3724   2.847   3.130   8.670
 1161WAT     H1 3725   2.782   3.190   8.623
 1161WAT     H2 3726   2.797   3.072   8.735
 1162WAT      O 3727   3.282   5.340   8.506
 1162WAT     H1 3728   3.241   5.419   8.551
 1162WAT     H2 3729   3.289   5.265   8.571
 1163WAT      O 3730   4.201   7.192   0.037
 1163WAT     H1 3731   4.202   7.110   0.095
 1163WAT     H2 3732   4.115   7.197  -0.013
 1164WAT      O 3733   0.736   0.243   4.175
 1164WAT     H1 3734   0.768   0.247   4.270
 1164WAT     H2 3735   0.719   0.335   4.141
 1165WAT      O 3736   8.035   0.379   6.200
 1165WAT     H1 3737   8.104   0.319   6.239
 1165WAT     H2 3738   7.966   0.400   6.270
 1166WAT      O 3739   5.884   3.132   5.535
 1166WAT     H1 3740   5.784   3.121   5.532
 1166WAT     H2 3741   5.922   3.107   5.446
 1167WAT      O 3742   0.526   2.318   4.610
 1167WAT     H1 3743   0.471   2.245   4.651
 1167WAT     H2 3744   0.621   2.287   4.602
 1168WAT      O 3745   3.964   1.171   1.309
 1168WAT     H1 3746   4.003   1.244   1.364
 1168WAT     H2 3747   3.919   1.210   1.228
 1169WAT      O 3748   6.410   6.818   7.262
 1169WAT     H1 3749   6.383   6.793   7.355
 1169WAT     H2 3750   6.416   6.918   7.254
 1170WAT      O 3751   4.407   2.758   1.039
 1170WAT     H1 3752   4.430   2.781   1.133
 1170WAT     H2 3753   4.490   2.728   0.991
 1171WAT      O 3754   0.378   9.065   5.401
 1171WAT     H1 3755   0.400   9.144   5.457
 1171WAT     H2 3756   0.390   8.981   5.454
 1172WAT      O 3757   0.238   9.538   8.381
 1172WAT     H1 3758   0.315   9.572   8.434
 1172WAT     H2 3759   0.271   9.474   8.312
 1173WAT      O 3760   4.827   4.845   2.776
 1173WAT     H1 3761   4.920   4.816   2.799
 1173WAT     H2 3762   4.799   4.919   2.838
 1174WAT      O 3763   9.407   4.052   0.700
 1174WAT     H1 3764   9.501   4.051   0.665
 1174WAT     H2 3765   9.354   3.980   0.655
 1175WAT      O 3766   9.776   7.976   9.533
 1175WAT     H1 3767   9.748   8.055   9.477
 1175WAT     H2 3768   9.875   7.971   9.535
 1176WAT      O 3769   0.849   0.308   2.890
 1176WAT     H1 3770   0.861   0.264   2.979
 1176WAT     H2 3771   0.751   0.315   2.869
 1177WAT      O 3772   3.877   7.552   7.945
 1177WAT     H1 3773   3.904   7.614   8.019
 1177WAT     H2 3774   3.871   7.602   7.860
 1178WAT      O 3775   6.203   2.302   6.118
 1178WAT     H1 3776   6.303   2.295   6.109
 1178WAT     H2 3777   6.177   2.398   6.122
 1179WAT      O 3778   6.148   4.005   6.843
 1179WAT     H1 3779   6.118   3.922   6.795
 1179WAT     H2 3780   6.247   4.011   6.841
 1180WAT      O 3781   9.412   8.788   2.989
 1180WAT     H1 3782   9.419   8.870   3.047
 1180WAT     H2 3783   9.358   8.719   3.036
 1181WAT      O 3784   6.159   4.116   6.356
 1181WAT     H1 3785   6.148   4.183   6.429
 1181WAT     H2 3786   6.153   4.023   6.394
 1182WAT      O 3787   4.547   7.855   2.304
 1182WAT     H1 3788   4.616   7.800   2.351
 1182WAT     H2 3789   4.530   7.817   2.213
 1183WAT      O 3790   3.043   8.224   1.291
 1183WAT     H1 3791   3.076   8.220   1.196
 1183WAT     H2 3792   2.962   8.283   1.295
 1184WAT      O 3793   3.086   6.910   0.333
 1184WAT     H1 3794   3.148   6.973   0.286
 1184WAT     H2 3795   3.103   6.914   0.432
 1185WAT      O 3796   3.460   1.083   6.427
 1185WAT     H1 3797   3.482   1.095   6.523
 1185WAT     H2 3798   3.532   1.030   6.382
 1186WAT      O 3799   8.929   3.305   6.947
 1186WAT     H1 3800   9.006   3.265   6.897
 1186WAT     H2 3801   8.847   3.251   6.932
 1187WAT      O 3802   0.113   4.506   5.161
 1187WAT     H1 3803   0.202   4.522   5.120
 1187WAT     H2 3804   0.124   4.485   5.258
 1188WAT      O 3805   8.166   9.827   9.450
 1188WAT     H1 3806   8.153   9.880   9.533
 1188WAT     H2 3807   8.156   9.729   9.471
 1189WAT      O 3808   8.108   4.792   3.494
 1189WAT     H1 3809   8.113   4.787   3.394
 1189WAT     H2 3810   8.107   4.888   3.522
 1190WAT      O 3811   9.826   8.317   5.340
 1190WAT     H1 3812   9.769   8.332   5.259
 1190WAT     H2 3813   9.811   8.224   5.374
 1191WAT      O 3814   8.574   9.537   0.078
 1191WAT     H1 3815   8.492   9.506   0.030
 1191WAT     H2 3816   8.573   9.502   0.172
 1192WAT      O 3817   2.841   3.624   7.734
 1192WAT     H1 3818   2.760   3.668   7.773
 1192WAT     H2 3819   2.814   3.571   7.653
 1193WAT      O 3820   6.903   6.666   5.965
 1193WAT     H1 3821   6.970   6.646   5.894
 1193WAT     H2 3822   6.854   6.582   5.988
 1194WAT      O 3823   1.699   2.099   5.129
 1194WAT     H1 3824   1.731   2.135   5.041
 1194WAT     H2 3825   1.600   2.114   5.136
 1195WAT      O 3826   3.797   5.788   6.109
 1195WAT     H1 3827   3.708   5.784   6.063
 1195WAT     H2 3828   3.784   5.789   6.208
 1196WAT      O 3829   3.210   9.583   8.663
 1196WAT     H1 3830   3.168   9.640   8.733
 1196WAT     H2 3831   3.226   9.638   8.580
 1197WAT      O 3832   8.581   7.155   8.208
 1197WAT     H1 3833   8.574   7.108   8.297
 1197WAT     H2 3834   8.524   7.237   8.210
 1198WAT      O 3835   9.726   7.411   3.429
 1198WAT     H1 3836   9.730   7.438   3.525
 1198WAT     H2 3837   9.811   7.436   3.384
 1199WAT      O 3838   3.006   1.138   2.916
 1199WAT     H1 3839   3.055   1.051   2.929
 1199WAT     H2 3840   2.924   1.121   2.860
 1200WAT      O 3841   6.101   6.675   8.558
 1200WAT     H1 3842   6.172   6.744   8.570
 1200WAT     H2 3843   6.071   6.674   8.462
 1201WAT      O 3844   6.229   5.095   0.265
 1201WAT     H1 3845   6.264   5.154   0.193
 1201WAT     H2 3846   6.131   5.078   0.251
 1202WAT      O 3847   8.495   1.430   1.058
 1202WAT     H1 3848   8.453   1.386   1.138
 1202WAT     H2 3849   8.489   1.369   0.979
 1203WAT      O 3850   4.949   5.318   9.764
 1203WAT     H1 3851   4.971   5.261   9.844
 1203WAT     H2 3852   5.016   5.300   9.692
 1204WAT      O 3853   5.106   0.923   7.875
 1204WAT     H1 3854   5.050   0.912   7.957
 1204WAT     H2 3855   5.063   0.989   7.813
 1205WAT      O 3856   1.167   9.499   7.854
 1205WAT     H1 3857   1.199   9.432   7.787
 1205WAT     H2 3858   1.165   9.457   7.945
 1206WAT      O 3859   2.508   7.263   6.123
 1206WAT     H1 3860   2.416   7.301   6.134
 1206WAT     H2 3861   2.576   7.332   6.149
 1207WAT      O 3862   8.293   6.395   4.080
 1207WAT     H1 3863   8.272   6.475   4.136
 1207WAT     H2 3864   8.379   6.354   4.111
 1208WAT      O 3865   5.125   4.027   1.158
 1208WAT     H1 3866   5.077   4.102   1.113
 1208WAT     H2 3867   5.191   4.064   1.224
 1209WAT      O 3868   3.881   3.328   6.822
 1209WAT     H1 3869   3.967   3.306   6.866
 1209WAT     H2 3870   3.869   3.427   6.820
 1210WAT      O 3871   8.331   1.415   2.846
 1210WAT     H1 3872   8.393   1.490   2.871
 1210WAT     H2 3873   8.363   1.373   2.761
 1211WAT      O 3874   0.035   1.514   6.871
 1211WAT     H1 3875   0.133   1.494   6.867
 1211WAT     H2 3876   0.016   1.570   6.952
 1212WAT      O 3877   7.561   1.246   1.093
 1212WAT     H1 3878   7.527   1.331   1.053
 1212WAT     H2 3879   7.655   1.230   1.062
 1213WAT      O 3880   8.534   4.598   2.059
 1213WAT     H1 3881   8.538   4.669   1.989
 1213WAT     H2 3882   8.610   4.607   2.122
 1214WAT      O 3883   1.805   9.710   4.641
 1214WAT     H1 3884   1.732   9.672   4.585
 1214WAT     H2 3885   1.765   9.764   4.716
 1215WAT      O 3886   7.563   5.110   3.887
 1215WAT     H1 3887   7.557   5.189   3.825
 1215WAT     H2 3888   7.609   5.138   3.972
 1216WAT      O 3889   4.024   1.640   9.639
 1216WAT     H1 3890   3.944   1.653   9.697
 1216WAT     H2 3891   4.069   1.728   9.625
 1217WAT      O 3892   3.971   5.857   1.218
 1217WAT     H1 3893   3.996   5.777   1.165
 1217WAT     H2 3894   3.882   5.892   1.186
 1218WAT      O 3895   4.820   0.086   8.859
 1218WAT     H1 3896   4.729   0.049   8.840
 1218WAT     H2 3897   4.847   0.062   8.953
 1219WAT      O 3898   8.284   5.493   8.313
 1219WAT     H1 3899   8.194   5.505   8.271
 1219WAT     H2 3900   8.315   5.580   8.351
 1220WAT      O 3901   3.996   8.566   6.598
 1220WAT     H1 3902   4.006   8.513   6.514
 1220WAT     H2 3903   4.054   8.647   6.593
 1221WAT      O 3904   7.812   9.619   3.007
 1221WAT     H1 3905   7.878   9.643   2.936
 1221WAT     H2 3906   7.816   9.521   3.026
 1222WAT      O 3907   2.009   3.556   5.702
 1222WAT     H1 3908   1.948   3.508   5.638
 1222WAT     H2 3909   2.037   3.643   5.662
 1223WAT      O 3910   4.173   3.796   2.270
 1223WAT     H1 3911   4.204   3.857   2.196
 1223WAT     H2 3912   4.073   3.799   2.276
 1224WAT      O 3913   5.707   3.921   4.623
 1224WAT     H1 3914   5.749   3.832   4.638
 1224WAT     H2 3915   5.663   3.923   4.533
 1225WAT      O 3916   2.965   7.011   9.777
 1225WAT     H1 3917   2.876   7.046   9.807
 1225WAT     H2 3918   3.032   7.085   9.777
 1226WAT      O 3919   7.002   8.989   5.271
 1226WAT     H1 3920   6.950   9.058   5.221
 1226WAT     H2 3921   6.990   8.900   5.227
 1227WAT      O 3922   9.594   5.540   9.395
 1227WAT     H1 3923   9.660   5.615   9.390
 1227WAT     H2 3924   9.514   5.562   9.338
 1228WAT      O 3925   4.254   8.128   9.163
 1228WAT     H1 3926   4.338   8.074   9.176
 1228WAT     H2 3927   4.176   8.075   9.196
 1229WAT      O 3928   0.275   1.287   7.618
 1229WAT     H1 3929   0.213   1.358   7.585
 1229WAT     H2 3930   0.230   1.198   7.615
 1230WAT      O 3931   4.833   0.692   1.159
 1230WAT     H1 3932   4.845   0.686   1.258
 1230WAT     H2 3933   4.884   0.619   1.114
 1231WAT      O 3934   5.405   5.054   2.887
 1231WAT     H1 3935   5.367   5.083   2.974
 1231WAT     H2 3936   5.423   5.134   2.829
 1232WAT      O 3937   8.551   6.176   6.107
 1232WAT     H1 3938   8.580   6.143   6.197
 1232WAT     H2 3939   8.503   6.103   6.058
 1233WAT      O 3940   8.673   4.279   7.457
 1233WAT     H1 3941   8.687   4.308   7.552
 1233WAT     H2 3942   8.637   4.186   7.455
 1234WAT      O 3943   4.383   6.221   7.029
 1234WAT     H1 3944   4.338   6.163   6.961
 1234WAT     H2 3945   4.471   6.179   7.055
 1235WAT      O 3946   5.090   4.216   7.103
 1235WAT     H1 3947   5.109   4.276   7.026
 1235WAT     H2 3948   5.047   4.132   7.071
 1236WAT      O 3949   3.586   4.044   4.846
 1236WAT     H1 3950   3.559   4.083   4.758
 1236WAT     H2 3951   3.644   3.963   4.831
 1237WAT      O 3952   3.341   9.560   0.945
 1237WAT     H1 3953   3.323   9.550   1.042
 1237WAT     H2 3954   3.364   9.471   0.906
 1238WAT      O 3955   8.504   9.708   8.222
 1238WAT     H1 3956   8.512   9.713   8.122
 1238WAT     H2 3957   8.465   9.794   8.256
 1239WAT      O 3958   6.248   8.642   7.033
 1239WAT     H1 3959   6.201   8.729   7.018
 1239WAT     H2 3960   6.235   8.583   6.953
 1240WAT      O 3961   5.414   1.211   0.452
 1240WAT     H1 3962   5.418   1.196   0.353
 1240WAT     H2 3963   5.439   1.305   0.472
 1241WAT      O 3964   9.669   0.934   6.624
 1241WAT     H1 3965   9.715   0.961   6.709
 1241WAT     H2 3966   9.616   1.010   6.589
 1242WAT      O 3967   4.539   7.790   7.790
 1242WAT     H1 3968   4.559   7.888   7.794
 1242WAT     H2 3969   4.566   7.754   7.700
 1243WAT      O 3970   1.244   2.721   1.970
 1243WAT     H1 3971   1.178   2.755   1.903
 1243WAT     H2 3972   1.309   2.659   1.925
 1244WAT      O 3973   9.105   5.953   8.939
 1244WAT     H1 3974   9.183   5.958   8.875
 1244WAT     H2 3975   9.050   6.035   8.931
 1245WAT      O 3976   9.412   4.100   6.303
 1245WAT     H1 3977   9.427   4.138   6.212
 1245WAT     H2 3978   9.399   4.001   6.297
 1246WAT      O 3979   5.723   7.463   1.438
 1246WAT     H1 3980   5.671   7.447   1.522
 1246WAT     H2 3981   5.701   7.392   1.371
 1247WAT      O 3982   2.745   7.788   0.876
 1247WAT     H1 3983   2.717   7.765   0.970
 1247WAT     H2 3984   2.666   7.780   0.816
 1248WAT      O 3985   9.329   1.690   0.760
 1248WAT     H1 3986   9.301   1.786   0.773
 1248WAT     H2 3987   9.422   1.678   0.794
 1249WAT      O 3988   7.845   8.140   9.491
 1249WAT     H1 3989   7.819   8.229   9.454
 1249WAT     H2 3990   7.865   8.148   9.588
 1250WAT      O 3991   5.807   5.625   1.364
 1250WAT     H1 3992   5.890   5.614   1.309
 1250WAT     H2 3993   5.832   5.646   1.458
 1251WAT      O 3994   6.295   0.315   5.557
 1251WAT     H1 3995   6.215   0.323   5.616
 1251WAT     H2 3996   6.345   0.402   5.558
 1252WAT      O 3997   8.092   2.190   9.587
 1252WAT     H1 3998   8.127   2.105   9.550
 1252WAT     H2 3999   7.992   2.186   9.592
 1253WAT      O 4000   2.367   4.805   8.853
 1253WAT     H1 4001   2.281   4.810   8.802
 1253WAT     H2 4002   2.403   4.897   8.866
 1254WAT      O 4003   1.012   3.916   9.560
 1254WAT     H1 4004   1.097   3.961   9.585
 1254WAT     H2 4005   0.940   3.985   9.549
 1255WAT      O 4006   5.125   4.508   2.776
 1255WAT     H1 4007   5.078   4.591   2.806
 1255WAT     H2 4008   5.177   4.469   2.852
 1256WAT      O 4009   4.233   1.578   6.156
 1256WAT     H1 4010   4.312   1.638   6.165
 1256WAT     H2 4011   4.149   1.632   6.164
 1257WAT      O 4012   7.524   7.441   3.603
 1257WAT     H1 4013   7.472   7.486   3.676
 1257WAT     H2 4014   7.620   7.470   3.608
 1258WAT      O 4015   3.034   2.436   3.826
 1258WAT     H1 4016   3.016   2.496   3.904
 1258WAT     H2 4017   3.104   2.369   3.851
 1259WAT      O 4018   7.553   8.166   6.312
 1259WAT     H1 4019   7.621   8.199   6.247
 1259WAT     H2 4020   7.582   8.188   6.405
 1260WAT      O 4021   1.522   5.653   4.319
 1260WAT     H1 4022   1.535   5.708   4.402
 1260WAT     H2 4023   1.553   5.705   4.239
 1261WAT      O 4024   8.105   9.072   0.892
 1261WAT     H1 4025   8.036   9.004   0.867
 1261WAT     H2 4026   8.089   9.103   0.986
 1262WAT      O 4027   5.950   2.220   2.743
 1262WAT     H1 4028   5.889   2.150   2.706
 1262WAT     H2 4029   5.898   2.283   2.800
 1263WAT      O 4030   4.306   4.669   1.751
 1263WAT     H1 4031   4.329   4.676   1.848
 1263WAT     H2 4032   4.232   4.733   1.730
 1264WAT      O 4033   8.452   3.836   4.692
 1264WAT     H1 4034   8.518   3.771   4.656
 1264WAT     H2 4035   8.362   3.792   4.699
 1265WAT      O 4036   8.837   5.848   8.566
 1265WAT     H1 4037   8.810   5.893   8.651
 1265WAT     H2 4038   8.853   5.916   8.495
 1266WAT      O 4039   1.208   8.028   6.804
 1266WAT     H1 4040   1.231   8.125   6.809
 1266WAT     H2 4041   1.160   8.000   6.887
 1267WAT      O 4042   7.365   8.740   1.120
 1267WAT     H1 4043   7.336   8.815   1.179
 1267WAT     H2 4044   7.288   8.680   1.102
 1268WAT      O 4045   1.589   0.163   2.848
 1268WAT     H1 4046   1.640   0.100   2.789
 1268WAT     H2 4047   1.556   0.240   2.793
 1269WAT      O 4048   2.582   6.271   9.426
 1269WAT     H1 4049   2.666   6.296   9.379
 1269WAT     H2 4050   2.587   6.175   9.455
 1270WAT      O 4051   3.903   7.955   7.685
 1270WAT     H1 4052   3.983   7.936   7.742
 1270WAT     H2 4053   3.828   7.895   7.712
 1271WAT      O 4054   5.448   0.576   5.055
 1271WAT     H1 4055   5.430   0.645   4.985
 1271WAT     H2 4056   5.546   0.556   5.057
 1272WAT      O 4057   9.090   5.410   9.839
 1272WAT     H1 4058   9.002   5.363   9.848
 1272WAT     H2 4059   9.114   5.418   9.743
 1273WAT      O 4060   1.624   6.340   0.096
 1273WAT     H1 4061   1.583   6.300   0.178
 1273WAT     H2 4062   1.551   6.369   0.033
 1274WAT      O 4063   1.529   4.089   2.698
 1274WAT     H1 4064   1.445   4.134   2.668
 1274WAT     H2 4065   1.528   4.080   2.797
 1275WAT      O 4066   2.541   8.435   6.420
 1275WAT     H1 4067   2.564   8.471   6.510
 1275WAT     H2 4068   2.619   8.387   6.382
 1276WAT      O 4069   8.892   0.652   1.321
 1276WAT     H1 4070   8.800   0.641   1.359
 1276WAT     H2 4071   8.923   0.565   1.283
 1277WAT      O 4072   0.659   2.276   4.086
 1277WAT     H1 4073   0.697   2.184   4.078
 1277WAT     H2 4074   0.732   2.344   4.077
 1278WAT      O 4075   8.813   2.493   1.796
 1278WAT     H1 4076   8.759   2.410   1.810
 1278WAT     H2 4077   8.763   2.556   1.738
 1279WAT      O 4078   5.872   8.138   1.304
 1279WAT     H1 4079   5.836   8.231   1.313
 1279WAT     H2 4080   5.883   8.117   1.207
 1280WAT      O 4081   3.011   5.500   0.332
 1280WAT     H1 4082   2.928   5.534   0.287
 1280WAT     H2 4083   3.018   5.402   0.318
 1281WAT      O 4084   4.345   9.404   4.340
 1281WAT     H1 4085   4.367   9.312   4.309
 1281WAT     H2 4086   4.270   9.441   4.285
 1282WAT      O 4087   3.356   0.561   1.668
 1282WAT     H1 4088   3.258   0.581   1.657
 1282WAT     H2 4089   3.372   0.525   1.760
 1283WAT      O 4090   1.480   1.314   9.512
 1283WAT     H1 4091   1.417   1.236   9.514
 1283WAT     H2 4092   1.538   1.307   9.431
 1284WAT      O 4093   7.872   2.881   0.149
 1284WAT     H1 4094   7.793   2.941   0.135
 1284WAT     H2 4095   7.848   2.787   0.126
 1285WAT      O 4096   0.202   9.579   3.329
 1285WAT     H1 4097   0.247   9.491   3.345
 1285WAT     H2 4098   0.152   9.606   3.411
 1286WAT      O 4099   0.728   7.125   1.685
 1286WAT     H1 4100   0.768   7.058   1.623
 1286WAT     H2 4101   0.649   7.085   1.732
 1287WAT      O 4102   5.699   9.026   7.235
 1287WAT     H1 4103   5.727   9.044   7.329
 1287WAT     H2 4104   5.612   8.976   7.235
 1288WAT      O 4105   0.910   4.426   8.634
 1288WAT     H1 4106   0.933   4.477   8.551
 1288WAT     H2 4107   0.965   4.342   8.638
 1289WAT      O 4108   1.910   0.759   2.549
 1289WAT     H1 4109   1.985   0.707   2.590
 1289WAT     H2 4110   1.853   0.798   2.622
 1290WAT      O 4111   5.837   2.608   8.674
 1290WAT     H1 4112   5.931   2.602   8.707
 1290WAT     H2 4113   5.778   2.550   8.730
 1291WAT      O 4114   7.882   2.443   9.661
 1291WAT     H1 4115   7.816   2.438   9.735
 1291WAT     H2 4116   7.974   2.455   9.699
 1292WAT      O 4117   8.785   9.108   6.032
 1292WAT     H1 4118   8.779   9.190   5.975
 1292WAT     H2 4119   8.820   9.032   5.976
 1293WAT      O 4120   5.942   8.388   7.211
 1293WAT     H1 4121   6.015   8.338   7.164
 1293WAT     H2 4122   5.879   8.322   7.253
 1294WAT      O 4123   8.155   6.359   9.374
 1294WAT     H1 4124   8.073   6.401   9.412
 1294WAT     H2 4125   8.229   6.427   9.371
 1295WAT      O 4126   3.885   8.667   1.683
 1295WAT     H1 4127   3.821   8.736   1.649
 1295WAT     H2 4128   3.873   8.657   1.782
 1296WAT      O 4129   7.114   8.230   4.838
 1296WAT     H1 4130   7.202   8.278   4.845
 1296WAT     H2 4131   7.130   8.135   4.814
 1297WAT      O 4132   0.059   8.693   8.821
 1297WAT     H1 4133   0.010   8.647   8.895
 1297WAT     H2 4134  -0.002   8.757   8.775
 1298WAT      O 4135   4.569   5.226   3.946
 1298WAT     H1 4136   4.635   5.286   3.901
 1298WAT     H2 4137   4.607   5.134   3.956
 1299WAT      O 4138   1.741   8.103   8.460
 1299WAT     H1 4139   1.652   8.093   8.417
 1299WAT     H2 4140   1.771   8.198   8.454
 1300WAT      O 4141   4.405   3.744   6.072
 1300WAT     H1 4142   4.348   3.763   6.153
 1300WAT     H2 4143   4.483   3.688   6.099
 1301WAT      O 4144   5.757   1.846   7.698
 1301WAT     H1 4145   5.841   1.851   7.752
 1301WAT     H2 4146   5.718   1.754   7.706
 1302WAT      O 4147   4.945   5.034   1.744
 1302WAT     H1 4148   4.994   4.985   1.816
 1302WAT     H2 4149   4.940   4.977   1.662
 1303WAT      O 4150   6.507   8.183   7.780
 1303WAT     H1 4151   6.522   8.268   7.830
 1303WAT     H2 4152   6.595   8.144   7.752
 1304WAT      O 4153   8.550   0.405   8.867
 1304WAT     H1 4154   8.517   0.495   8.838
 1304WAT     H2 4155   8.504   0.379   8.952
 1305WAT      O 4156   4.005   0.225   1.731
 1305WAT     H1 4157   3.931   0.194   1.671
 1305WAT     H2 4158   4.089   0.236   1.679
 1306WAT      O 4159   6.423   8.991   8.495
 1306WAT     H1 4160   6.396   8.907   8.541
 1306WAT     H2 4161   6.362   9.066   8.524
 1307WAT      O 4162   2.943   7.938   4.208
 1307WAT     H1 4163   2.868   7.984   4.256
 1307WAT     H2 4164   2.994   8.004   4.153
 1308WAT      O 4165   9.240   8.392   9.111
 1308WAT     H1 4166   9.145   8.412   9.086
 1308WAT     H2 4167   9.281   8.333   9.041
 1309WAT      O 4168   7.558   2.535   1.390
 1309WAT     H1 4169   7.462   2.554   1.411
 1309WAT     H2 4170   7.566   2.440   1.358
 1310WAT      O 4171   4.794   4.440   6.745
 1310WAT     H1 4172   4.876   4.440   6.688
 1310WAT     H2 4173   4.738   4.521   6.723
 1311WAT      O 4174   8.307   9.402   6.405
 1311WAT     H1 4175   8.370   9.365   6.473
 1311WAT     H2 4176   8.252   9.475   6.446
 1312WAT      O 4177   5.634   7.291   1.257
 1312WAT     H1 4178   5.650   7.316   1.161
 1312WAT     H2 4179   5.559   7.224   1.262
 1313WAT      O 4180   3.223   6.600   4.529
 1313WAT     H1 4181   3.130   6.612   4.495
 1313WAT     H2 4182   3.281   6.561   4.458
 1314WAT      O 4183   9.869   8.241   2.719
 1314WAT     H1 4184   9.830   8.153   2.692
 1314WAT     H2 4185   9.840   8.263   2.813
 1315WAT      O 4186   4.468   2.553   8.228
 1315WAT     H1 4187   4.378   2.518   8.201
 1315WAT     H2 4188   4.539   2.512   8.171
 1316WAT      O 4189   9.249   1.605   4.834
 1316WAT     H1 4190   9.150   1.603   4.845
 1316WAT     H2 4191   9.281   1.699   4.827
 1317WAT      O 4192   5.845   7.319   5.203
 1317WAT     H1 4193   5.936   7.279   5.210
 1317WAT     H2 4194   5.784   7.254   5.157
 1318WAT      O 4195   1.544   4.729   6.907
 1318WAT     H1 4196   1.506   4.821   6.910
 1318WAT     H2 4197   1.591   4.709   6.993
 1319WAT      O 4198   7.937   8.148   5.914
 1319WAT     H1 4199   7.957   8.230   5.861
 1319WAT     H2 4200   7.906   8.076   5.853
 1320WAT      O 4201   0.440   4.589   3.235
 1320WAT     H1 4202   0.412   4.499   3.203
 1320WAT     H2 4203   0.373   4.625   3.299
 1321WAT      O 4204   6.321   9.342   6.402
 1321WAT     H1 4205   6.316   9.305   6.495
 1321WAT     H2 4206   6.397   9.301   6.353
 1322WAT      O 4207   2.895   1.814   3.307
 1322WAT     H1 4208   2.913   1.835   3.403
 1322WAT     H2 4209   2.871   1.898   3.258
 1323WAT      O 4210   4.828   8.117   7.527
 1323WAT     H1 4211   4.924   8.145   7.530
 1323WAT     H2 4212   4.784   8.142   7.613
 1324WAT      O 4213   4.831   5.869   3.922
 1324WAT     H1 4214   4.737   5.858   3.954
 1324WAT     H2 4215   4.833   5.862   3.822
 1325WAT      O 4216   3.758   3.750   9.873
 1325WAT     H1 4217   3.660   3.768   9.868
 1325WAT     H2 4218   3.775   3.672   9.933
 1326WAT      O 4219   5.320   3.531   7.990
 1326WAT     H1 4220   5.237   3.586   7.981
 1326WAT     H2 4221   5.338   3.484   7.904
 1327WAT      O 4222   8.519   4.790   5.793
 1327WAT     H1 4223   8.613   4.824   5.788
 1327WAT     H2 4224   8.495   4.771   5.888
 1328WAT      O 4225   8.799   1.160   8.779
 1328WAT     H1 4226   8.719   1.219   8.786
 1328WAT     H2 4227   8.843   1.174   8.691
 1329WAT      O 4228   2.953   9.766   4.418
 1329WAT     H1 4229   2.931   9.808   4.331
 1329WAT     H2 4230   2.891   9.800   4.488
 1330WAT      O 4231   1.564   0.772   6.864
 1330WAT     H1 4232   1.515   0.686   6.849
 1330WAT     H2 4233   1.502   0.849   6.848
 1331WAT      O 4234   0.893   9.750   4.759
 1331WAT     H1 4235   0.980   9.714   4.724
 1331WAT     H2 4236   0.817   9.701   4.716
 1332WAT      O 4237   3.665   2.820   8.262
 1332WAT     H1 4238   3.607   2.891   8.301
 1332WAT     H2 4239   3.747   2.810   8.318
 1333WAT      O 4240   3.478   7.974   6.060
 1333WAT     H1 4241   3.430   7.887   6.075
 1333WAT     H2 4242   3.539   7.992   6.137
 1334WAT      O 4243   4.943   7.036   9.782
 1334WAT     H1 4244   4.992   7.078   9.705
 1334WAT     H2 4245   5.009   6.987   9.840
 1335WAT      O 4246   4.254   1.274   0.147
 1335WAT     H1 4247   4.282   1.279   0.051
 1335WAT     H2 4248   4.161   1.240   0.153
 1336WAT      O 4249   3.021   9.327   4.148
 1336WAT     H1 4250   3.012   9.257   4.076
 1336WAT     H2 4251   3.018   9.418   4.106
 1337WAT      O 4252   8.267   0.741   0.605
 1337WAT     H1 4253   8.343   0.796   0.640
 1337WAT     H2 4254   8.246   0.667   0.670
 1338WAT      O 4255   4.116   6.925   6.089
 1338WAT     H1 4256   4.052   6.886   6.022
 1338WAT     H2 4257   4.188   6.975   6.042
 1339WAT      O 4258   1.287   4.920   5.163
 1339WAT     H1 4259   1.250   4.848   5.221
 1339WAT     H2 4260   1.287   5.007   5.212
 1340WAT      O 4261   7.893   3.192   4.910
 1340WAT     H1 4262   7.885   3.111   4.967
 1340WAT     H2 4263   7.803   3.234   4.900
 1341WAT      O 4264   0.980   7.329   4.846
 1341WAT     H1 4265   0.902   7.267   4.837
 1341WAT     H2 4266   0.960   7.397   4.917
 1342WAT      O 4267   2.714   2.146   4.825
 1342WAT     H1 4268   2.696   2.235   4.783
 1342WAT     H2 4269   2.627   2.103   4.850
 1343WAT      O 4270   3.313   8.306   3.974
 1343WAT     H1 4271   3.220   8.321   3.941
 1343WAT     H2 4272   3.360   8.241   3.915
 1344WAT      O 4273   7.772   0.842   1.956
 1344WAT     H1 4274   7.732   0.764   2.003
 1344WAT     H2 4275   7.744   0.841   1.860
 1345WAT      O 4276   2.260   3.020   3.495
 1345WAT     H1 4277   2.342   3.067   3.527
 1345WAT     H2 4278   2.189   3.026   3.566
 1346WAT      O 4279   4.374   6.424   1.477
 1346WAT     H1 4280   4.446   6.491   1.495
 1346WAT     H2 4281   4.287   6.458   1.514
 1347WAT      O 4282   4.240   1.223   5.713
 1347WAT     H1 4283   4.286   1.186   5.793
 1347WAT     H2 4284   4.227   1.322   5.723
 1348WAT      O 4285   6.591   3.175   8.692
 1348WAT     H1 4286   6.621   3.193   8.599
 1348WAT     H2 4287   6.644   3.099   8.730
 1349WAT      O 4288   2.334   7.499   5.568
 1349WAT     H1 4289   2.306   7.406   5.595
 1349WAT     H2 4290   2.253   7.556   5.559
 1350WAT      O 4291   9.421   4.247   8.682
 1350WAT     H1 4292   9.489   4.240   8.609
 1350WAT     H2 4293   9.404   4.156   8.720
 1351WAT      O 4294   6.018   1.600   4.507
 1351WAT     H1 4295   5.946   1.639   4.449
 1351WAT     H2 4296   5.996   1.504   4.527
 1352WAT      O 4297   9.683   3.976   3.062
 1352WAT     H1 4298   9.638   4.044   3.005
 1352WAT     H2 4299   9.781   3.996   3.069
 1353WAT      O 4300   7.670   8.493   7.239
 1353WAT     H1 4301   7.681   8.429   7.163
 1353WAT     H2 4302   7.628   8.446   7.316
 1354WAT      O 4303   1.792   6.221   7.700
 1354WAT     H1 4304   1.781   6.231   7.601
 1354WAT     H2 4305   1.889   6.208   7.722
 1355WAT      O 4306   2.777   6.069   8.985
 1355WAT     H1 4307   2.838   6.056   9.063
 1355WAT     H2 4308   2.828   6.113   8.910
 1356WAT      O 4309   0.256   2.521   6.194
 1356WAT     H1 4310   0.170   2.566   6.218
 1356WAT     H2 4311   0.298   2.569   6.117
 1357WAT      O 4312   2.842   8.588   8.214
 1357WAT     H1 4313   2.795   8.636   8.139
 1357WAT     H2 4314   2.780   8.521   8.255
 1358WAT      O 4315   7.939   7.971   7.171
 1358WAT     H1 4316   8.008   7.944   7.237
 1358WAT     H2 4317   7.984   8.012   7.091
 1359WAT      O 4318   1.965   2.857   4.063
 1359WAT     H1 4319   2.039   2.840   3.998
 1359WAT     H2 4320   1.878   2.828   4.023
 1360WAT      O 4321   5.824   5.980   3.569
 1360WAT     H1 4322   5.879   6.041   3.512
 1360WAT     H2 4323   5.848   5.993   3.665
 1361WAT      O 4324   8.543   9.801   8.715
 1361WAT     H1 4325   8.548   9.718   8.658
 1361WAT     H2 4326   8.481   9.785   8.791
 1362WAT      O 4327   8.438   0.967   0.486
 1362WAT     H1 4328   8.446   0.940   0.390
 1362WAT     H2 4329   8.484   0.899   0.544
 1363WAT      O 4330   8.976   6.332   3.453
 1363WAT     H1 4331   9.048   6.371   3.394
 1363WAT     H2 4332   8.942   6.248   3.412
 1364WAT      O 4333   9.566   3.989   9.127
 1364WAT     H1 4334   9.530   4.079   9.100
 1364WAT     H2 4335   9.653   4.001   9.175
 1365WAT      O 4336   4.846   2.655   5.624
 1365WAT     H1 4337   4.883   2.572   5.582
 1365WAT     H2 4338   4.746   2.653   5.620
 1366WAT      O 4339   1.413   3.041   5.788
 1366WAT     H1 4340   1.422   3.107   5.862
 1366WAT     H2 4341   1.501   3.029   5.743
 1367WAT      O 4342   0.304   3.890   7.395
 1367WAT     H1 4343   0.349   3.916   7.309
 1367WAT     H2 4344   0.209   3.865   7.377
 1368WAT      O 4345   0.894   8.697   8.621
 1368WAT     H1 4346   0.800   8.670   8.640
 1368WAT     H2 4347   0.940   8.721   8.706
 1369WAT      O 4348   1.205   0.102   4.671
 1369WAT     H1 4349   1.131   0.087   4.605
 1369WAT     H2 4350   1.286   0.135   4.624
 1370WAT      O 4351   4.488   1.243   4.553
 1370WAT     H1 4352   4.390   1.255   4.538
 1370WAT     H2 4353   4.503   1.169   4.619
 1371WAT      O 4354   7.431   2.992   8.528
 1371WAT     H1 4355   7.480   2.936   8.462
 1371WAT     H2 4356   7.422   3.085   8.493
 1372WAT      O 4357   6.749   7.989   3.030
 1372WAT     H1 4358   6.709   8.017   3.118
 1372WAT     H2 4359   6.713   8.048   2.958
 1373WAT      O 4360   9.438   2.402   0.311
 1373WAT     H1 4361   9.431   2.478   0.375
 1373WAT     H2 4362   9.349   2.356   0.305
 1374WAT      O 4363   9.883   8.927   7.538
 1374WAT     H1 4364   9.796   8.883   7.517
 1374WAT     H2 4365   9.897   8.929   7.637
 1375WAT      O 4366   7.619   7.863   3.566
 1375WAT     H1 4367   7.602   7.954   3.602
 1375WAT     H2 4368   7.694   7.867   3.499
 1376WAT      O 4369   2.656   1.473   6.599
 1376WAT     H1 4370   2.567   1.514   6.615
 1376WAT     H2 4371   2.715   1.539   6.553
 1377WAT      O 4372   3.630   2.861   2.599
 1377WAT     H1 4373   3.632   2.779   2.542
 1377WAT     H2 4374   3.637   2.942   2.541
 1378WAT      O 4375   1.485   8.757   2.757
 1378WAT     H1 4376   1.430   8.682   2.719
 1378WAT     H2 4377   1.424   8.824   2.798
 1379WAT      O 4378   1.350   7.352   6.524
 1379WAT     H1 4379   1.331   7.358   6.426
 1379WAT     H2 4380   1.312   7.267   6.561
 1380WAT      O 4381   1.456   4.284   7.122
 1380WAT     H1 4382   1.446   4.184   7.121
 1380WAT     H2 4383   1.552   4.307   7.108
 1381WAT      O 4384   1.779   4.001   8.537
 1381WAT     H1 4385   1.760   3.986   8.440
 1381WAT     H2 4386   1.730   4.083   8.568
 1382WAT      O 4387   7.609   4.328   8.896
 1382WAT     H1 4388   7.638   4.234   8.881
 1382WAT     H2 4389   7.570   4.337   8.988
 1383WAT      O 4390   8.357   0.093   8.268
 1383WAT     H1 4391   8.284   0.078   8.202
 1383WAT     H2 4392   8.388   0.188   8.263
 1384WAT      O 4393   5.770   7.064   8.962
 1384WAT     H1 4394   5.852   7.118   8.978
 1384WAT     H2 4395   5.768   7.033   8.867
 1385WAT      O 4396   3.811   1.191   0.838
 1385WAT     H1 4397   3.890   1.129   0.839
 1385WAT     H2 4398   3.729   1.139   0.814
 1386WAT      O 4399   6.583   2.407   8.882
 1386WAT     H1 4400   6.608   2.321   8.837
 1386WAT     H2 4401   6.514   2.454   8.828
 1387WAT      O 4402   3.038   3.227   0.668
 1387WAT     H1 4403   2.959   3.287   0.653
 1387WAT     H2 4404   3.005   3.137   0.699
 1388WAT      O 4405   1.274   4.102   0.412
 1388WAT     H1 4406   1.199   4.104   0.345
 1388WAT     H2 4407   1.236   4.113   0.504
 1389WAT      O 4408   0.002   1.704   3.575
 1389WAT     H1 4409  -0.004   1.799   3.607
 1389WAT     H2 4410   0.009   1.643   3.654
 1390WAT      O 4411   9.747   0.606   3.924
 1390WAT     H1 4412   9.723   0.682   3.984
 1390WAT     H2 4413   9.823   0.555   3.964
 1391WAT      O 4414   4.571   3.805   0.326
 1391WAT     H1 4415   4.569   3.727   0.389
 1391WAT     H2 4416   4.554   3.773   0.233
 1392WAT      O 4417   4.234   6.892   9.293
 1392WAT     H1 4418   4.247   6.976   9.241
 1392WAT     H2 4419   4.308   6.828   9.272
 1393WAT      O 4420   3.675   2.262   3.837
 1393WAT     H1 4421   3.675   2.172   3.881
 1393WAT     H2 4422   3.663   2.333   3.906
 1394WAT      O 4423   1.182   9.106   7.665
 1394WAT     H1 4424   1.202   9.017   7.625
 1394WAT     H2 4425   1.105   9.098   7.728
 1395WAT      O 4426   2.497   1.871   3.903
 1395WAT     H1 4427   2.436   1.911   3.971
 1395WAT     H2 4428   2.592   1.888   3.929
 1396WAT      O 4429   9.613   5.230   0.867
 1396WAT     H1 4430   9.605   5.211   0.965
 1396WAT     H2 4431   9.594   5.147   0.816
 1397WAT      O 4432   8.861   0.664   9.314
 1397WAT     H1 4433   8.784   0.688   9.373
 1397WAT     H2 4434   8.901   0.747   9.276
 1398WAT      O 4435   8.709   5.225   5.839
 1398WAT     H1 4436   8.734   5.250   5.746
 1398WAT     H2 4437   8.611   5.206   5.844
 1399WAT      O 4438   9.758   7.586   4.055
 1399WAT     H1 4439   9.806   7.673   4.068
 1399WAT     H2 4440   9.744   7.542   4.144
 1400WAT      O 4441   1.066   3.096   9.135
 1400WAT     H1 4442   1.122   3.177   9.154
 1400WAT     H2 4443   1.121   3.014   9.153
 1401WAT      O 4444   5.955   6.320   8.405
 1401WAT     H1 4445   5.906   6.235   8.424
 1401WAT     H2 4446   5.911   6.395   8.455
 1402WAT      O 4447   6.187   7.123   2.312
 1402WAT     H1 4448   6.127   7.044   2.297
 1402WAT     H2 4449   6.133   7.207   2.309
 1403WAT      O 4450   9.197   4.902   8.311
 1403WAT     H1 4451   9.132   4.969   8.276
 1403WAT     H2 4452   9.164   4.864   8.398
 1404WAT      O 4453   0.473   5.458   1.538
 1404WAT     H1 4454   0.407   5.496   1.602
 1404WAT     H2 4455   0.426   5.408   1.466
 1405WAT      O 4456   3.734   4.129   7.211
 1405WAT     H1 4457   3.759   4.225   7.197
 1405WAT     H2 4458   3.709   4.088   7.123
 1406WAT      O 4459   4.058   9.584   9.019
 1406WAT     H1 4460   4.084   9.659   8.958
 1406WAT     H2 4461   4.116   9.505   9.001
 1407WAT      O 4462   2.494   9.343   2.268
 1407WAT     H1 4463   2.458   9.290   2.344
 1407WAT     H2 4464   2.504   9.439   2.295
 1408WAT      O 4465   1.971   3.943   0.699
 1408WAT     H1 4466   1.875   3.928   0.673
 1408WAT     H2 4467   1.988   3.900   0.787
 1409WAT      O 4468   7.336   5.322   9.087
 1409WAT     H1 4469   7.408   5.263   9.049
 1409WAT     H2 4470   7.319   5.297   9.182
 1410WAT      O 4471   2.159   3.927   8.699
 1410WAT     H1 4472   2.161   3.840   8.651
 1410WAT     H2 4473   2.107   3.994   8.646
 1411WAT      O 4474   4.041   2.259   2.072
 1411WAT     H1 4475   3.968   2.323   2.049
 1411WAT     H2 4476   4.113   2.307   2.122
 1412WAT      O 4477   2.567   1.524   2.194
 1412WAT     H1 4478   2.522   1.590   2.255
 1412WAT     H2 4479   2.559   1.432   2.233
 1413WAT      O 4480   0.082   2.528   2.165
 1413WAT     H1 4481   0.115   2.450   2.112
 1413WAT     H2 4482   0.055   2.498   2.256
 1414WAT      O 4483   9.726   0.229   1.566
 1414WAT     H1 4484   9.639   0.251   1.521
 1414WAT     H2 4485   9.742   0.130   1.561
 1415WAT      O 4486   1.984   4.179   7.735
 1415WAT     H1 4487   1.976   4.207   7.640
 1415WAT     H2 4488   1.906   4.122   7.761
 1416WAT      O 4489   5.758   4.396   7.213
 1416WAT     H1 4490   5.678   4.415   7.156
 1416WAT     H2 4491   5.836   4.374   7.154
 1417WAT      O 4492   1.401   0.875   2.454
 1417WAT     H1 4493   1.303   0.882   2.438
 1417WAT     H2 4494   1.440   0.966   2.468
 1418WAT      O 4495   0.296   3.949   6.745
 1418WAT     H1 4496   0.282   3.884   6.670
 1418WAT     H2 4497   0.383   3.997   6.731
 1419WAT      O 4498   7.058   1.816   0.469
 1419WAT     H1 4499   7.081   1.720   0.483
 1419WAT     H2 4500   6.975   1.823   0.413
 1420WAT      O 4501   5.244   6.561   4.195
 1420WAT     H1 4502   5.295   6.619   4.259
 1420WAT     H2 4503   5.147   6.565   4.216
 1421WAT      O 4504   6.792   0.576   6.669
 1421WAT     H1 4505   6.726   0.597   6.741
 1421WAT     H2 4506   6.802   0.476   6.661
 1422WAT      O 4507   1.869   0.029   8.798
 1422WAT     H1 4508   1.790   0.074   8.839
 1422WAT     H2 4509   1.949   0.088   8.808
 1423WAT      O 4510   0.795   1.028   2.861
 1423WAT     H1 4511   0.863   1.093   2.894
 1423WAT     H2 4512   0.790   1.032   2.761
 1424WAT      O 4513   3.621   4.870   9.421
 1424WAT     H1 4514   3.561   4.949   9.408
 1424WAT     H2 4515   3.657   4.840   9.332
 1425WAT      O 4516   8.463   2.897   4.076
 1425WAT     H1 4517   8.388   2.857   4.023
 1425WAT     H2 4518   8.549   2.878   4.030
 1426WAT      O 4519   6.980   7.198   7.106
 1426WAT     H1 4520   7.014   7.139   7.180
 1426WAT     H2 4521   7.057   7.227   7.049
 1427WAT      O 4522   1.548   9.123   5.686
 1427WAT     H1 4523   1.633   9.091   5.728
 1427WAT     H2 4524   1.496   9.176   5.752
 1428WAT      O 4525   1.996   4.635   6.880
 1428WAT     H1 4526   1.958   4.548   6.849
 1428WAT     H2 4527   2.006   4.633   6.980
 1429WAT      O 4528   7.479   5.241   8.688
 1429WAT     H1 4529   7.569   5.258   8.647
 1429WAT     H2 4530   7.470   5.293   8.773
 1430WAT      O 4531   8.876   1.683   7.842
 1430WAT     H1 4532   8.915   1.620   7.774
 1430WAT     H2 4533   8.926   1.770   7.839
 1431WAT      O 4534   8.793   8.199   8.521
 1431WAT     H1 4535   8.802   8.299   8.519
 1431WAT     H2 4536   8.780   8.168   8.615
 1432WAT      O 4537   2.383   0.644   7.256
 1432WAT     H1 4538   2.345   0.685   7.338
 1432WAT     H2 4539   2.314   0.644   7.183
 1433WAT      O 4540   4.684   2.239   6.677
 1433WAT     H1 4541   4.693   2.148   6.637
 1433WAT     H2 4542   4.740   2.304   6.626
 1434WAT      O 4543   8.436   1.549   8.244
 1434WAT     H1 4544   8.469   1.483   8.312
 1434WAT     H2 4545   8.339   1.567   8.261
 1435WAT      O 4546   4.524   9.178   6.544
 1435WAT     H1 4547   4.570   9.222   6.621
 1435WAT     H2 4548   4.451   9.239   6.510
 1436WAT      O 4549   6.288   8.836   3.568
 1436WAT     H1 4550   6.204   8.872   3.528
 1436WAT     H2 4551   6.301   8.741   3.541
 1437WAT      O 4552   9.362   2.075   7.821
 1437WAT     H1 4553   9.292   2.012   7.854
 1437WAT     H2 4554   9.452   2.043   7.850
 1438WAT      O 4555   1.091   7.843   5.895
 1438WAT     H1 4556   1.097   7.853   5.796
 1438WAT     H2 4557   1.100   7.746   5.919
 1439WAT      O 4558   5.101   5.861   1.507
 1439WAT     H1 4559   5.141   5.928   1.444
 1439WAT     H2 4560   5.149   5.863   1.594
 1440WAT      O 4561   3.926   7.638   6.719
 1440WAT     H1 4562   3.926   7.720   6.662
 1440WAT     H2 4563   4.021   7.611   6.738
 1441WAT      O 4564   0.538   8.555   1.879
 1441WAT     H1 4565   0.495   8.481   1.931
 1441WAT     H2 4566   0.608   8.599   1.936
 1442WAT      O 4567   5.097   1.203   0.264
 1442WAT     H1 4568   5.063   1.158   0.346
 1442WAT     H2 4569   5.128   1.134   0.199
 1443WAT      O 4570   9.793   4.002   9.262
 1443WAT     H1 4571   9.773   4.070   9.333
 1443WAT     H2 4572   9.878   4.027   9.215
 1444WAT      O 4573   6.361   8.604   0.555
 1444WAT     H1 4574   6.338   8.627   0.460
 1444WAT     H2 4575   6.454   8.568   0.558
 1445WAT      O 4576   9.843   5.785   4.449
 1445WAT     H1 4577   9.885   5.751   4.366
 1445WAT     H2 4578   9.877   5.877   4.469
 1446WAT      O 4579   3.963   8.576   0.499
 1446WAT     H1 4580   4.054   8.535   0.503
 1446WAT     H2 4581   3.917   8.547   0.416
 1447WAT      O 4582   7.277   1.054   8.440
 1447WAT     H1 4583   7.192   1.105   8.433
 1447WAT     H2 4584   7.339   1.081   8.366
 1448WAT      O 4585   6.078   3.291   1.446
 1448WAT     H1 4586   6.028   3.245   1.373
 1448WAT     H2 4587   6.150   3.347   1.406
 1449WAT      O 4588   1.314   0.935   3.657
 1449WAT     H1 4589   1.400   0.952   3.705
 1449WAT     H2 4590   1.240   0.928   3.723
 1450WAT      O 4591   7.346   5.933   1.315
 1450WAT     H1 4592   7.349   6.008   1.249
 1450WAT     H2 4593   7.423   5.872   1.300
 1451WAT      O 4594   7.548   7.228   4.640
 1451WAT     H1 4595   7.567   7.137   4.676
 1451WAT     H2 4596   7.490   7.221   4.559
 1452WAT      O 4597   3.898   7.305   5.018
 1452WAT     H1 4598   3.870   7.288   4.924
 1452WAT     H2 4599   3.833   7.260   5.080
 1453WAT      O 4600   5.947   3.891   0.869
 1453WAT     H1 4601   5.904   3.935   0.948
 1453WAT     H2 4602   5.946   3.953   0.791
 1454WAT      O 4603   7.760   0.364   1.769
 1454WAT     H1 4604   7.728   0.414   1.849
 1454WAT     H2 4605   7.722   0.271   1.771
 1455WAT      O 4606   0.156   8.042   6.861
 1455WAT     H1 4607   0.131   8.104   6.935
 1455WAT     H2 4608   0.196   7.959   6.898
 1456WAT      O 4609   6.062   4.458   3.623
 1456WAT     H1 4610   6.083   4.463   3.721
 1456WAT     H2 4611   6.079   4.366   3.590
 1457WAT      O 4612   8.804   4.130   9.170
 1457WAT     H1 4613   8.713   4.166   9.186
 1457WAT     H2 4614   8.819   4.119   9.072
 1458WAT      O 4615   8.605   7.490   0.069
 1458WAT     H1 4616   8.689   7.501   0.017
 1458WAT     H2 4617   8.627   7.455   0.160
 1459WAT      O 4618   1.994   3.945   2.725
 1459WAT     H1 4619   1.972   3.861   2.775
 1459WAT     H2 4620   2.089   3.971   2.744
 1460WAT      O 4621   9.498   1.628   3.020
 1460WAT     H1 4622   9.555   1.590   3.093
 1460WAT     H2 4623   9.415   1.571   3.011
 1461WAT      O 4624   4.399   5.388   0.832
 1461WAT     H1 4625   4.343   5.348   0.905
 1461WAT     H2 4626   4.361   5.477   0.806
 1462WAT      O 4627   9.826   9.132   0.619
 1462WAT     H1 4628   9.900   9.196   0.641
 1462WAT     H2 4629   9.756   9.179   0.566
 1463WAT      O 4630   9.287   3.077   1.225
 1463WAT     H1 4631   9.321   3.160   1.269
 1463WAT     H2 4632   9.244   3.100   1.138
 1464WAT      O 4633   7.761   3.762   4.228
 1464WAT     H1 4634   7.817   3.764   4.312
 1464WAT     H2 4635   7.766   3.850   4.183
 1465WAT      O 4636   0.377   7.849   7.119
 1465WAT     H1 4637   0.280   7.873   7.126
 1465WAT     H2 4638   0.408   7.860   7.025
 1466WAT      O 4639   6.251   6.466   3.903
 1466WAT     H1 4640   6.296   6.530   3.965
 1466WAT     H2 4641   6.296   6.377   3.907
 1467WAT      O 4642   0.362   0.533   8.721
 1467WAT     H1 4643   0.329   0.601   8.787
 1467WAT     H2 4644   0.326   0.443   8.746
 1468WAT      O 4645   7.615   0.574   9.456
 1468WAT     H1 4646   7.683   0.575   9.382
 1468WAT     H2 4647   7.525   0.556   9.417
 1469WAT      O 4648   4.567   0.335   9.468
 1469WAT     H1 4649   4.554   0.273   9.390
 1469WAT     H2 4650   4.620   0.288   9.539
 1470WAT      O 4651   6.701   2.469   6.288
 1470WAT     H1 4652   6.659   2.487   6.199
 1470WAT     H2 4653   6.629   2.459   6.357
 1471WAT      O 4654   2.111   4.274   3.429
 1471WAT     H1 4655   2.061   4.194   3.397
 1471WAT     H2 4656   2.199   4.245   3.467
 1472WAT      O 4657   9.073   3.090   5.474
 1472WAT     H1 4658   9.109   3.177   5.509
 1472WAT     H2 4659   8.983   3.105   5.434
 1473WAT      O 4660   8.151   3.854   2.201
 1473WAT     H1 4661   8.229   3.916   2.205
 1473WAT     H2 4662   8.077   3.895   2.147
 1474WAT      O 4663   6.079   2.396   5.433
 1474WAT     H1 4664   6.126   2.481   5.458
 1474WAT     H2 4665   6.099   2.325   5.500
 1475WAT      O 4666   5.248   0.028   1.571
 1475WAT     H1 4667   5.321  -0.039   1.554
 1475WAT     H2 4668   5.159  -0.017   1.565
 1476WAT      O 4669   8.775   1.881   8.206
 1476WAT     H1 4670   8.745   1.831   8.125
 1476WAT     H2 4671   8.696   1.896   8.267
 1477WAT      O 4672   1.395   2.328   2.113
 1477WAT     H1 4673   1.385   2.296   2.019
 1477WAT     H2 4674   1.492   2.338   2.134
 1478WAT      O 4675   5.679   3.517   5.386
 1478WAT     H1 4676   5.641   3.518   5.478
 1478WAT     H2 4677   5.692   3.611   5.354
 1479WAT      O 4678   9.613   2.849   6.101
 1479WAT     H1 4679   9.544   2.795   6.148
 1479WAT     H2 4680   9.682   2.787   6.063
 1480WAT      O 4681   2.285   5.853   6.345
 1480WAT     H1 4682   2.304   5.758   6.372
 1480WAT     H2 4683   2.188   5.863   6.325
 1481WAT      O 4684   0.302   1.491   8.620
 1481WAT     H1 4685   0.292   1.393   8.636
 1481WAT     H2 4686   0.387   1.509   8.571
 1482WAT      O 4687   7.170   4.491   9.056
 1482WAT     H1 4688   7.184   4.555   9.132
 1482WAT     H2 4689   7.072   4.475   9.045
 1483WAT      O 4690   8.133   5.111   0.224
 1483WAT     H1 4691   8.056   5.134   0.283
 1483WAT     H2 4692   8.193   5.046   0.271
 1484WAT      O 4693   5.333   3.739   4.533
 1484WAT     H1 4694   5.292   3.780   4.452
 1484WAT     H2 4695   5.285   3.654   4.556
 1485WAT      O 4696   0.827   8.321   2.869
 1485WAT     H1 4697   0.860   8.341   2.776
 1485WAT     H2 4698   0.904   8.324   2.932
 1486WAT      O 4699   5.197   5.685   7.623
 1486WAT     H1 4700   5.224   5.743   7.546
 1486WAT     H2 4701   5.165   5.597   7.590
 1487WAT      O 4702   4.407   1.341   8.857
 1487WAT     H1 4703   4.309   1.360   8.863
 1487WAT     H2 4704   4.457   1.428   8.847
 1488WAT      O 4705   5.688   2.264   9.617
 1488WAT     H1 4706   5.619   2.241   9.686
 1488WAT     H2 4707   5.763   2.199   9.621
 1489WAT      O 4708   3.250   1.127   3.753
 1489WAT     H1 4709   3.198   1.053   3.795
 1489WAT     H2 4710   3.223   1.137   3.657
 1490WAT      O 4711   0.516   5.443   0.500
 1490WAT     H1 4712   0.515   5.483   0.408
 1490WAT     H2 4713   0.428   5.401   0.519
 1491WAT      O 4714   9.515   6.998   5.692
 1491WAT     H1 4715   9.614   6.980   5.687
 1491WAT     H2 4716   9.496   7.063   5.766
 1492WAT      O 4717   7.330   2.581   4.101
 1492WAT     H1 4718   7.350   2.492   4.061
 1492WAT     H2 4719   7.275   2.635   4.037
 1493WAT      O 4720   4.752   2.954   3.839
 1493WAT     H1 4721   4.733   2.860   3.812
 1493WAT     H2 4722   4.851   2.967   3.849
 1494WAT      O 4723   9.783   6.752   4.406
 1494WAT     H1 4724   9.733   6.804   4.336
 1494WAT     H2 4725   9.862   6.805   4.435
 1495WAT      O 4726   3.938   8.193   2.014
 1495WAT     H1 4727   3.939   8.173   1.916
 1495WAT     H2 4728   3.844   8.198   2.046
 1496WAT      O 4729   0.730   7.751   3.856
 1496WAT     H1 4730   0.686   7.669   3.894
 1496WAT     H2 4731   0.768   7.730   3.766
 1497WAT      O 4732   6.431   9.717   8.953
 1497WAT     H1 4733   6.366   9.662   9.006
 1497WAT     H2 4734   6.385   9.801   8.922
 1498WAT      O 4735   8.426   3.444   1.746
 1498WAT     H1 4736   8.385   3.387   1.817
 1498WAT     H2 4737   8.447   3.534   1.784
 1499WAT      O 4738   0.896   8.853   0.326
 1499WAT     H1 4739   0.837   8.819   0.252
 1499WAT     H2 4740   0.981   8.888   0.286
 1500WAT      O 4741   1.397   4.783   7.466
 1500WAT     H1 4742   1.392   4.883   7.475
 1500WAT     H2 4743   1.399   4.759   7.369
 1501WAT      O 4744   2.809   5.537   7.964
 1501WAT     H1 4745   2.882   5.477   7.997
 1501WAT     H2 4746   2.748   5.485   7.904
 1502WAT      O 4747   4.506   5.573   3.222
 1502WAT     H1 4748   4.591   5.619   3.246
 1502WAT     H2 4749   4.469   5.527   3.303
 1503WAT      O 4750   4.351   6.999   5.946
 1503WAT     H1 4751   4.350   7.077   6.009
 1503WAT     H2 4752   4.416   6.931   5.978
 1504WAT      O 4753   8.480   4.387   1.305
 1504WAT     H1 4754   8.474   4.288   1.289
 1504WAT     H2 4755   8.430   4.410   1.389
 1505WAT      O 4756   3.892   7.064   8.680
 1505WAT     H1 4757   3.868   6.973   8.646
 1505WAT     H2 4758   3.924   7.057   8.774
 1506WAT      O 4759   8.288   3.831   7.109
 1506WAT     H1 4760   8.296   3.930   7.122
 1506WAT     H2 4761   8.372   3.786   7.141
 1507WAT      O 4762   9.562   7.769   1.825
 1507WAT     H1 4763   9.580   7.767   1.924
 1507WAT     H2 4764   9.524   7.858   1.801
 1508WAT      O 4765   1.481   7.259   4.334
 1508WAT     H1 4766   1.420   7.237   4.409
 1508WAT     H2 4767   1.459   7.202   4.254
 1509WAT      O 4768   9.209   6.249   3.162
 1509WAT     H1 4769   9.303   6.227   3.135
 1509WAT     H2 4770   9.166   6.168   3.202
 1510WAT      O 4771   1.469   6.750   5.422
 1510WAT     H1 4772   1.469   6.677   5.354
 1510WAT     H2 4773   1.523   6.827   5.389
 1511WAT      O 4774   3.463   0.441   4.152
 1511WAT     H1 4775   3.396   0.469   4.084
 1511WAT     H2 4776   3.542   0.401   4.107
 1512WAT      O 4777   4.461   1.686   9.776
 1512WAT     H1 4778   4.405   1.603   9.782
 1512WAT     H2 4779   4.479   1.708   9.680
 1513WAT      O 4780   7.170   6.169   6.566
 1513WAT     H1 4781   7.090   6.198   6.514
 1513WAT     H2 4782   7.249   6.163   6.505
 1514WAT      O 4783   8.084   2.042   4.694
 1514WAT     H1 4784   8.010   2.009   4.753
 1514WAT     H2 4785   8.077   2.141   4.682
 1515WAT      O 4786   8.340   9.130   5.819
 1515WAT     H1 4787   8.270   9.198   5.840
 1515WAT     H2 4788   8.396   9.114   5.900
 1516WAT      O 4789   8.611   8.695   7.486
 1516WAT     H1 4790   8.609   8.643   7.571
 1516WAT     H2 4791   8.659   8.782   7.501
 1517WAT      O 4792   8.133   1.503   3.160
 1517WAT     H1 4793   8.113   1.432   3.092
 1517WAT     H2 4794   8.106   1.592   3.124
 1518WAT      O 4795   6.434   3.724   1.263
 1518WAT     H1 4796   6.387   3.787   1.202
 1518WAT     H2 4797   6.375   3.701   1.340
 1519WAT      O 4798   6.816   3.099   2.283
 1519WAT     H1 4799   6.781   3.192   2.295
 1519WAT     H2 4800   6.748   3.034   2.316
 1520WAT      O 4801   3.100   9.607   1.372
 1520WAT     H1 4802   3.036   9.617   1.449
 1520WAT     H2 4803   3.139   9.696   1.350
 1521WAT      O 4804   2.326   9.368   8.449
 1521WAT     H1 4805   2.347   9.330   8.539
 1521WAT     H2 4806   2.280   9.298   8.394
 1522WAT      O 4807   5.564   7.068   5.682
 1522WAT     H1 4808   5.637   7.057   5.749
 1522WAT     H2 4809   5.601   7.059   5.589
 1523WAT      O 4810   9.547   0.828   7.773
 1523WAT     H1 4811   9.604   0.789   7.700
 1523WAT     H2 4812   9.499   0.908   7.738
 1524WAT      O 4813   6.261   9.547   9.122
 1524WAT     H1 4814   6.163   9.545   9.139
 1524WAT     H2 4815   6.310   9.558   9.208
 1525WAT      O 4816   1.969   0.608   0.307
 1525WAT     H1 4817   1.871   0.598   0.292
 1525WAT     H2 4818   2.018   0.529   0.270
 1526WAT      O 4819   2.157   5.644   9.219
 1526WAT     H1 4820   2.081   5.708   9.218
 1526WAT     H2 4821   2.122   5.550   9.226
 1527WAT      O 4822   6.342   3.149   7.797
 1527WAT     H1 4823   6.249   3.113   7.794
 1527WAT     H2 4824   6.340   3.248   7.812
 1528WAT      O 4825   1.629   0.133   8.864
 1528WAT     H1 4826   1.568   0.205   8.831
 1528WAT     H2 4827   1.600   0.044   8.828
 1529WAT      O 4828   3.139   2.111   6.646
 1529WAT     H1 4829   3.073   2.100   6.571
 1529WAT     H2 4830   3.191   2.027   6.657
 1530WAT      O 4831   5.421   8.020   4.007
 1530WAT     H1 4832   5.360   7.957   3.960
 1530WAT     H2 4833   5.437   7.987   4.100
 1531WAT      O 4834   5.700   5.489   1.038
 1531WAT     H1 4835   5.690   5.588   1.026
 1531WAT     H2 4836   5.711   5.445   0.949
 1532WAT      O 4837   1.869   4.738   4.808
 1532WAT     H1 4838   1.936   4.773   4.873
 1532WAT     H2 4839   1.871   4.638   4.809
 1533WAT      O 4840   4.914   8.955   2.027
 1533WAT     H1 4841   4.962   9.043   2.021
 1533WAT     H2 4842   4.924   8.918   2.119
 1534WAT      O 4843   5.981   4.286   0.822
 1534WAT     H1 4844   6.013   4.233   0.743
 1534WAT     H2 4845   6.060   4.322   0.872
 1535WAT      O 4846   6.345   8.384   2.062
 1535WAT     H1 4847   6.402   8.302   2.050
 1535WAT     H2 4848   6.365   8.426   2.151
 1536WAT      O 4849   0.740   1.345   2.962
 1536WAT     H1 4850   0.803   1.285   3.011
 1536WAT     H2 4851   0.764   1.348   2.865
 1537WAT      O 4852   6.500   0.718   6.731
 1537WAT     H1 4853   6.538   0.706   6.823
 1537WAT     H2 4854   6.528   0.806   6.694
 1538WAT      O 4855   8.484   7.973   3.734
 1538WAT     H1 4856   8.574   7.962   3.691
 1538WAT     H2 4857   8.418   8.002   3.665
 1539WAT      O 4858   0.618   3.992   1.501
 1539WAT     H1 4859   0.521   3.969   1.490
 1539WAT     H2 4860   0.631   4.041   1.587
 1540WAT      O 4861   6.668   7.811   2.340
 1540WAT     H1 4862   6.569   7.822   2.328
 1540WAT     H2 4863   6.706   7.761   2.262
 1541WAT      O 4864   2.122   9.751   9.621
 1541WAT     H1 4865   2.029   9.786   9.611
 1541WAT     H2 4866   2.153   9.711   9.535
 1542WAT      O 4867   1.981   3.404   8.636
 1542WAT     H1 4868   1.883   3.424   8.637
 1542WAT     H2 4869   2.011   3.383   8.729
 1543WAT      O 4870   2.861   3.378   6.454
 1543WAT     H1 4871   2.838   3.281   6.439
 1543WAT     H2 4872   2.915   3.411   6.376
 1544WAT      O 4873   1.254   5.449   0.161
 1544WAT     H1 4874   1.284   5.425   0.253
 1544WAT     H2 4875   1.287   5.380   0.096
 1545WAT      O 4876   8.040   8.399   7.401
 1545WAT     H1 4877   8.137   8.388   7.380
 1545WAT     H2 4878   8.004   8.313   7.436
 1546WAT      O 4879   8.632   1.682   7.256
 1546WAT     H1 4880   8.718   1.732   7.250
 1546WAT     H2 4881   8.646   1.598   7.309
 1547WAT      O 4882   4.801   5.739   5.734
 1547WAT     H1 4883   4.768   5.831   5.714
 1547WAT     H2 4884   4.809   5.687   5.649
 1548WAT      O 4885   2.375   0.530   8.115
 1548WAT     H1 4886   2.394   0.504   8.021
 1548WAT     H2 4887   2.459   0.526   8.169
 1549WAT      O 4888   0.441   0.625   9.403
 1549WAT     H1 4889   0.509   0.689   9.437
 1549WAT     H2 4890   0.484   0.560   9.340
 1550WAT      O 4891   6.791   6.413   0.958
 1550WAT     H1 4892   6.865   6.480   0.967
 1550WAT     H2 4893   6.719   6.452   0.899
 1551WAT      O 4894   5.933   0.848   5.808
 1551WAT     H1 4895   5.973   0.940   5.804
 1551WAT     H2 4896   5.944   0.811   5.901
 1552WAT      O 4897   2.903   9.589   3.100
 1552WAT     H1 4898   2.823   9.569   3.043
 1552WAT     H2 4899   2.876   9.648   3.176
 1553WAT      O 4900   7.115   4.175   5.058
 1553WAT     H1 4901   7.111   4.086   5.014
 1553WAT     H2 4902   7.025   4.219   5.054
 1554WAT      O 4903   3.879   0.448   3.348
 1554WAT     H1 4904   3.933   0.376   3.304
 1554WAT     H2 4905   3.933   0.532   3.353
 1555WAT      O 4906   6.343   2.331   2.418
 1555WAT     H1 4907   6.285   2.368   2.490
 1555WAT     H2 4908   6.300   2.346   2.329
 1556WAT      O 4909   5.364   3.590   4.188
 1556WAT     H1 4910   5.453   3.576   4.232
 1556WAT     H2 4911   5.315   3.664   4.234
 1557WAT      O 4912   4.792   6.558   1.801
 1557WAT     H1 4913   4.821   6.577   1.895
 1557WAT     H2 4914   4.771   6.461   1.792
 1558WAT      O 4915   9.052   4.330   0.701
 1558WAT     H1 4916   9.019   4.238   0.678
 1558WAT     H2 4917   9.152   4.331   0.699
 1559WAT      O 4918   4.368   4.368   9.635
 1559WAT     H1 4919   4.290   4.430   9.620
 1559WAT     H2 4920   4.452   4.421   9.641
 1560WAT      O 4921   0.332   1.689   4.096
 1560WAT     H1 4922   0.354   1.619   4.163
 1560WAT     H2 4923   0.362   1.778   4.129
 1561WAT      O 4924   0.032   7.410   7.007
 1561WAT     H1 4925  -0.006   7.332   6.957
 1561WAT     H2 4926  -0.025   7.429   7.086
 1562WAT      O 4927   1.700   1.692   6.191
 1562WAT     H1 4928   1.769   1.734   6.250
 1562WAT     H2 4929   1.622   1.661   6.246
 1563WAT      O 4930   7.160   0.278   0.008
 1563WAT     H1 4931   7.201   0.369   0.016
 1563WAT     H2 4932   7.061   0.286   0.004
 1564WAT      O 4933   5.575   1.538   5.346
 1564WAT     H1 4934   5.668   1.530   5.310
 1564WAT     H2 4935   5.532   1.620   5.308
 1565WAT      O 4936   1.564   0.530   6.261
 1565WAT     H1 4937   1.635   0.476   6.306
 1565WAT     H2 4938   1.551   0.496   6.168
 1566WAT      O 4939   3.285   7.857   8.638
 1566WAT     H1 4940   3.292   7.910   8.722
 1566WAT     H2 4941   3.295   7.760   8.658
 1567WAT      O 4942   2.223   3.621   1.391
 1567WAT     H1 4943   2.290   3.689   1.362
 1567WAT     H2 4944   2.189   3.571   1.311
 1568WAT      O 4945   7.775   2.682   5.697
 1568WAT     H1 4946   7.799   2.587   5.717
 1568WAT     H2 4947   7.696   2.709   5.752
 1569WAT      O 4948   9.110   6.802   5.130
 1569WAT     H1 4949   9.208   6.817   5.143
 1569WAT     H2 4950   9.086   6.712   5.165
 1570WAT      O 4951   8.103   9.718   3.950
 1570WAT     H1 4952   8.152   9.794   3.908
 1570WAT     H2 4953   8.093   9.644   3.884
 1571WAT      O 4954   2.249   5.674   3.460
 1571WAT     H1 4955   2.269   5.577   3.475
 1571WAT     H2 4956   2.258   5.696   3.363
 1572WAT      O 4957   6.722   6.170   3.804
 1572WAT     H1 4958   6.798   6.135   3.859
 1572WAT     H2 4959   6.636   6.139   3.844
 1573WAT      O 4960   0.795   6.158   2.247
 1573WAT     H1 4961   0.838   6.226   2.187
 1573WAT     H2 4962   0.782   6.073   2.197
 1574WAT      O 4963   2.379   3.991   9.645
 1574WAT     H1 4964   2.470   3.968   9.611
 1574WAT     H2 4965   2.370   4.091   9.649
 1575WAT      O 4966   7.971   6.946   2.692
 1575WAT     H1 4967   7.991   6.948   2.790
 1575WAT     H2 4968   7.875   6.922   2.677
 1576WAT      O 4969   8.360   0.631   8.326
 1576WAT     H1 4970   8.442   0.649   8.272
 1576WAT     H2 4971   8.358   0.693   8.405
 1577WAT      O 4972   9.445   3.370   8.066
 1577WAT     H1 4973   9.444   3.458   8.020
 1577WAT     H2 4974   9.353   3.347   8.097
 1578WAT      O 4975   8.952   8.305   0.146
 1578WAT     H1 4976   9.050   8.319   0.159
 1578WAT     H2 4977   8.931   8.207   0.153
 1579WAT      O 4978   4.193   9.682   7.362
 1579WAT     H1 4979   4.224   9.668   7.455
 1579WAT     H2 4980   4.172   9.594   7.319
 1580WAT      O 4981   9.150   5.281   5.175
 1580WAT     H1 4982   9.095   5.210   5.218
 1580WAT     H2 4983   9.174   5.252   5.082
 1581WAT      O 4984   3.767   1.366   4.945
 1581WAT     H1 4985   3.827   1.299   4.902
 1581WAT     H2 4986   3.805   1.394   5.033
 1582WAT      O 4987   7.218   0.656   8.695
 1582WAT     H1 4988   7.184   0.609   8.613
 1582WAT     H2 4989   7.229   0.753   8.676
 1583WAT      O 4990   5.722   3.314   6.270
 1583WAT     H1 4991   5.751   3.229   6.315
 1583WAT     H2 4992   5.778   3.329   6.188
 1584WAT      O 4993   7.977   2.328   3.639
 1584WAT     H1 4994   7.916   2.405   3.619
 1584WAT     H2 4995   7.967   2.302   3.735
 1585WAT      O 4996   5.078   7.595   0.396
 1585WAT     H1 4997   5.126   7.569   0.312
 1585WAT     H2 4998   5.039   7.514   0.439
 1586WAT      O 4999   8.096   1.198   5.701
 1586WAT     H1 5000   8.079   1.110   5.657
 1586WAT     H2 5001   8.118   1.266   5.632
 1587WAT      O 5002   4.290   6.802   2.361
 1587WAT     H1 5003   4.251   6.806   2.453
 1587WAT     H2 5004   4.236   6.859   2.299
 1588WAT      O 5005   4.852   1.424   8.591
 1588WAT     H1 5006   4.926   1.403   8.655
 1588WAT     H2 5007   4.834   1.523   8.592
 1589WAT      O 5008   5.817   0.792   1.918
 1589WAT     H1 5009   5.829   0.854   1.840
 1589WAT     H2 5010   5.786   0.845   1.997
 1590WAT      O 5011   1.999   8.596   2.249
 1590WAT     H1 5012   1.979   8.663   2.177
 1590WAT     H2 5013   1.936   8.608   2.325
 1591WAT      O 5014   8.273   2.958   2.906
 1591WAT     H1 5015   8.320   2.975   2.819
 1591WAT     H2 5016   8.186   3.006   2.907
 1592WAT      O 5017   2.303   4.695   4.362
 1592WAT     H1 5018   2.226   4.752   4.392
 1592WAT     H2 5019   2.283   4.658   4.271
 1593WAT      O 5020   7.922   1.433   5.356
 1593WAT     H1 5021   7.912   1.337   5.380
 1593WAT     H2 5022   7.865   1.489   5.416
 1594WAT      O 5023   2.996   6.267   1.662
 1594WAT     H1 5024   3.080   6.229   1.623
 1594WAT     H2 5025   3.015   6.300   1.755
 1595WAT      O 5026   3.457   7.853   9.094
 1595WAT     H1 5027   3.384   7.793   9.063
 1595WAT     H2 5028   3.535   7.845   9.032
 1596WAT      O 5029   2.533   1.728   6.073
 1596WAT     H1 5030   2.582   1.646   6.101
 1596WAT     H2 5031   2.560   1.754   5.981
 1597WAT      O 5032   7.032   4.062   6.002
 1597WAT     H1 5033   6.984   4.082   5.916
 1597WAT     H2 5034   7.002   4.127   6.072
 1598WAT      O 5035   8.627   8.362   3.926
 1598WAT     H1 5036   8.678   8.304   3.862
 1598WAT     H2 5037   8.591   8.306   4.000
 1599WAT      O 5038   7.827   2.723   8.506
 1599WAT     H1 5039   7.824   2.642   8.565
 1599WAT     H2 5040   7.922   2.740   8.479
 1600WAT      O 5041   1.944   2.932   1.533
 1600WAT     H1 5042   1.956   2.855   1.595
 1600WAT     H2 5043   1.960   2.903   1.439
 1601WAT      O 5044   4.806   0.847   1.615
 1601WAT     H1 5045   4.774   0.941   1.630
 1601WAT     H2 5046   4.826   0.804   1.703
 1602WAT      O 5047   7.517   2.255   3.767
 1602WAT     H1 5048   7.540   2.182   3.831
 1602WAT     H2 5049   7.440   2.307   3.803
 1603WAT      O 5050   8.826   2.290   5.382
 1603WAT     H1 5051   8.871   2.219   5.437
 1603WAT     H2 5052   8.728   2.271   5.376
 1604WAT      O 5053   7.523   1.851   5.847
 1604WAT     H1 5054   7.465   1.774   5.873
 1604WAT     H2 5055   7.586   1.872   5.923
 1605WAT      O 5056   5.290   0.397   0.379
 1605WAT     H1 5057   5.305   0.386   0.280
 1605WAT     H2 5058   5.208   0.346   0.405
 1606WAT      O 5059   4.661   2.176   9.508
 1606WAT     H1 5060   4.571   2.157   9.548
 1606WAT     H2 5061   4.650   2.238   9.431
 1607WAT      O 5062   6.570   2.474   2.734
 1607WAT     H1 5063   6.583   2.565   2.695
 1607WAT     H2 5064   6.584   2.405   2.663
 1608WAT      O 5065   4.337   3.000   8.142
 1608WAT     H1 5066   4.247   3.001   8.184
 1608WAT     H2 5067   4.405   3.034   8.207
 1609WAT      O 5068   0.115   7.412   2.998
 1609WAT     H1 5069   0.118   7.396   2.899
 1609WAT     H2 5070   0.152   7.332   3.045
 1610WAT      O 5071   2.432   5.952   4.742
 1610WAT     H1 5072   2.377   5.868   4.747
 1610WAT     H2 5073   2.374   6.028   4.715
 1611WAT      O 5074   0.224   2.340   7.680
 1611WAT     H1 5075   0.308   2.307   7.638
 1611WAT     H2 5076   0.222   2.313   7.777
 1612WAT      O 5077   2.098   8.876   5.151
 1612WAT     H1 5078   2.030   8.852   5.221
 1612WAT     H2 5079   2.162   8.942   5.188
 1613WAT      O 5080   7.866   2.308   3.904
 1613WAT     H1 5081   7.799   2.234   3.895
 1613WAT     H2 5082   7.821   2.391   3.937
 1614WAT      O 5083   4.506   1.968   9.815
 1614WAT     H1 5084   4.478   1.872   9.819
 1614WAT     H2 5085   4.478   2.008   9.729
 1615WAT      O 5086   9.710   1.275   1.110
 1615WAT     H1 5087   9.699   1.176   1.124
 1615WAT     H2 5088   9.706   1.321   1.199
 1616WAT      O 5089   4.680   9.771   6.225
 1616WAT     H1 5090   4.594   9.784   6.274
 1616WAT     H2 5091   4.744   9.720   6.284
 1617WAT      O 5092   3.590   9.660   6.731
 1617WAT     H1 5093   3.672   9.617   6.694
 1617WAT     H2 5094   3.617   9.736   6.791
 1618WAT      O 5095   1.042   1.077   2.138
 1618WAT     H1 5096   1.112   1.120   2.195
 1618WAT     H2 5097   1.031   1.130   2.054
 1619WAT      O 5098   5.477   7.818   1.274
 1619WAT     H1 5099   5.540   7.860   1.340
 1619WAT     H2 5100   5.384   7.821   1.309
 1620WAT      O 5101   0.191   3.065   5.144
 1620WAT     H1 5102   0.143   2.979   5.127
 1620WAT     H2 5103   0.269   3.048   5.204
 1621WAT      O 5104   0.315   5.184   7.007
 1621WAT     H1 5105   0.375   5.260   7.032
 1621WAT     H2 5106   0.271   5.204   6.919
 1622WAT      O 5107   7.480   5.991   6.134
 1622WAT     H1 5108   7.546   5.962   6.203
 1622WAT     H2 5109   7.474   5.922   6.062
 1623WAT      O 5110   9.304   9.571   0.043
 1623WAT     H1 5111   9.362   9.518   0.105
 1623WAT     H2 5112   9.211   9.535   0.045
 1624WAT      O 5113   9.263   4.458   6.424
 1624WAT     H1 5114   9.266   4.359   6.440
 1624WAT     H2 5115   9.276   4.476   6.327
 1625WAT      O 5116   7.480   0.410   0.824
 1625WAT     H1 5117   7.578   0.431   0.815
 1625WAT     H2 5118   7.453   0.345   0.754
 1626WAT      O 5119   9.242   5.916   7.376
 1626WAT     H1 5120   9.279   5.967   7.298
 1626WAT     H2 5121   9.269   5.820   7.368
 1627WAT      O 5122   6.928   8.269   0.091
 1627WAT     H1 5123   6.934   8.352   0.147
 1627WAT     H2 5124   6.981   8.196   0.132
 1628WAT      O 5125   2.919   6.153   1.162
 1628WAT     H1 5126   2.955   6.244   1.187
 1628WAT     H2 5127   2.984   6.083   1.193
 1629WAT      O 5128   2.978   6.424   1.905
 1629WAT     H1 5129   2.973   6.483   1.986
 1629WAT     H2 5130   2.920   6.462   1.833
 1630WAT      O 5131   8.962   5.976   5.667
 1630WAT     H1 5132   8.980   5.900   5.729
 1630WAT     H2 5133   8.867   5.971   5.636
 1631WAT      O 5134   3.872   6.266   1.463
 1631WAT     H1 5135   3.951   6.279   1.403
 1631WAT     H2 5136   3.839   6.172   1.455
 1632WAT      O 5137   7.137   2.379   1.824
 1632WAT     H1 5138   7.060   2.354   1.884
 1632WAT     H2 5139   7.190   2.452   1.867
 1633WAT      O 5140   5.355   8.990   9.358
 1633WAT     H1 5141   5.260   8.958   9.357
 1633WAT     H2 5142   5.417   8.911   9.360
 1634WAT      O 5143   5.726   6.720   9.342
 1634WAT     H1 5144   5.719   6.633   9.391
 1634WAT     H2 5145   5.671   6.789   9.389
 1635WAT      O 5146   0.194   9.806   9.224
 1635WAT     H1 5147   0.156   9.722   9.184
 1635WAT     H2 5148   0.292   9.811   9.205
 1636WAT      O 5149   3.102   5.673   4.714
 1636WAT     H1 5150   3.149   5.598   4.668
 1636WAT     H2 5151   3.043   5.636   4.786
 1637WAT      O 5152   4.207   8.602   7.219
 1637WAT     H1 5153   4.165   8.596   7.129
 1637WAT     H2 5154   4.145   8.648   7.283
 1638WAT      O 5155   3.933   8.173   1.736
 1638WAT     H1 5156   3.952   8.086   1.689
 1638WAT     H2 5157   3.917   8.244   1.668
 1639WAT      O 5158   8.137   1.556   2.615
 1639WAT     H1 5159   8.063   1.529   2.676
 1639WAT     H2 5160   8.203   1.482   2.607
 1640WAT      O 5161   4.785   0.943   0.523
 1640WAT     H1 5162   4.758   0.937   0.619
 1640WAT     H2 5163   4.704   0.957   0.466
 1641WAT      O 5164   1.105   3.488   0.704
 1641WAT     H1 5165   1.027   3.467   0.646
 1641WAT     H2 5166   1.165   3.407   0.711
 1642WAT      O 5167   4.081   1.586   0.933
 1642WAT     H1 5168   4.169   1.538   0.921
 1642WAT     H2 5169   4.008   1.531   0.894
 1643WAT      O 5170   2.786   9.359   1.914
 1643WAT     H1 5171   2.714   9.309   1.962
 1643WAT     H2 5172   2.778   9.457   1.936
 1644WAT      O 5173   6.965   2.542   2.899
 1644WAT     H1 5174   6.940   2.562   2.994
 1644WAT     H2 5175   6.910   2.467   2.865
 1645WAT      O 5176   8.323   9.014   4.821
 1645WAT     H1 5177   8.319   9.072   4.903
 1645WAT     H2 5178   8.360   9.068   4.745
 1646WAT      O 5179   4.490   4.386   5.984
 1646WAT     H1 5180   4.568   4.333   5.951
 1646WAT     H2 5181   4.461   4.351   6.073
 1647WAT      O 5182   3.389   4.728   2.812
 1647WAT     H1 5183   3.382   4.642   2.863
 1647WAT     H2 5184   3.427   4.799   2.872
 1648WAT      O 5185   2.988   0.470   2.511
 1648WAT     H1 5186   3.082   0.453   2.484
 1648WAT     H2 5187   2.943   0.382   2.530
 1649WAT      O 5188   5.336   0.417   1.264
 1649WAT     H1 5189   5.295   0.328   1.246
 1649WAT     H2 5190   5.264   0.481   1.293
 1650WAT      O 5191   3.804   0.418   2.408
 1650WAT     H1 5192   3.879   0.367   2.367
 1650WAT     H2 5193   3.717   0.372   2.386
 1651WAT      O 5194   8.980   6.706   3.277
 1651WAT     H1 5195   8.989   6.801   3.309
 1651WAT     H2 5196   9.010   6.700   3.182
 1652WAT      O 5197   0.235   8.992   9.162
 1652WAT     H1 5198   0.295   9.055   9.113
 1652WAT     H2 5199   0.143   9.030   9.166
 1653WAT      O 5200   4.358   1.382   9.615
 1653WAT     H1 5201   4.405   1.294   9.627
 1653WAT     H2 5202   4.322   1.413   9.703
 1654WAT      O 5203   8.054   8.410   2.282
 1654WAT     H1 5204   8.037   8.424   2.380
 1654WAT     H2 5205   7.981   8.453   2.229
 1655WAT      O 5206   5.027   7.466   8.438
 1655WAT     H1 5207   4.941   7.441   8.395
 1655WAT     H2 5208   5.103   7.441   8.378
 1656WAT      O 5209   0.212   7.926   5.377
 1656WAT     H1 5210   0.166   7.971   5.454
 1656WAT     H2 5211   0.153   7.855   5.339
 1657WAT      O 5212   6.177   3.491   0.258
 1657WAT     H1 5213   6.136   3.577   0.288
 1657WAT     H2 5214   6.263   3.509   0.211
 1658WAT      O 5215   4.072   0.786   2.369
 1658WAT     H1 5216   4.127   0.772   2.450
 1658WAT     H2 5217   3.977   0.761   2.388
 1659WAT      O 5218   2.559   3.005   4.536
 1659WAT     H1 5219   2.562   3.100   4.507
 1659WAT     H2 5220   2.566   2.945   4.456
 1660WAT      O 5221   4.116   6.694   8.716
 1660WAT     H1 5222   4.041   6.627   8.718
 1660WAT     H2 5223   4.181   6.669   8.644
 1661WAT      O 5224   8.179   8.264   6.480
 1661WAT     H1 5225   8.241   8.284   6.404
 1661WAT     H2 5226   8.210   8.313   6.561
 1662WAT      O 5227   5.654   9.619   9.558
 1662WAT     H1 5228   5.730   9.668   9.600
 1662WAT     H2 5229   5.568   9.664   9.582
 1663WAT      O 5230   7.078   7.778   8.464
 1663WAT     H1 5231   7.171   7.749   8.486
 1663WAT     H2 5232   7.050   7.851   8.527
 1664WAT      O 5233   9.793   1.007   9.513
 1664WAT     H1 5234   9.753   0.916   9.513
 1664WAT     H2 5235   9.891   1.000   9.534
 1665WAT      O 5236   9.744   8.692   5.990
 1665WAT     H1 5237   9.710   8.633   5.917
 1665WAT     H2 5238   9.760   8.784   5.953
 1666WAT      O 5239   5.855   2.687   7.271
 1666WAT     H1 5240   5.914   2.687   7.352
 1666WAT     H2 5241   5.891   2.623   7.203
 1667WAT      O 5242   6.269   0.855   8.679
 1667WAT     H1 5243   6.237   0.892   8.766
 1667WAT     H2 5244   6.296   0.931   8.618
 1668WAT      O 5245   6.119   3.059   0.125
 1668WAT     H1 5246   6.129   3.094   0.032
 1668WAT     H2 5247   6.061   2.977   0.125
 1669WAT      O 5248   5.299   6.846   3.342
 1669WAT     H1 5249   5.371   6.823   3.276
 1669WAT     H2 5250   5.322   6.807   3.431
 1670WAT      O 5251   2.206   6.657   9.185
 1670WAT     H1 5252   2.158   6.632   9.101
 1670WAT     H2 5253   2.264   6.581   9.214
 1671WAT      O 5254   5.964   5.088   0.238
 1671WAT     H1 5255   5.966   5.058   0.334
 1671WAT     H2 5256   5.903   5.167   0.230
 1672WAT      O 5257   9.193   8.555   1.237
 1672WAT     H1 5258   9.240   8.503   1.308
 1672WAT     H2 5259   9.105   8.588   1.273
 1673WAT      O 5260   0.133   6.372   4.853
 1673WAT     H1 5261   0.184   6.370   4.767
 1673WAT     H2 5262   0.038   6.395   4.835
 1674WAT      O 5263   8.727   9.558   5.659
 1674WAT     H1 5264   8.821   9.572   5.688
 1674WAT     H2 5265   8.714   9.462   5.633
 1675WAT      O 5266   1.615   2.334   7.070
 1675WAT     H1 5267   1.704   2.377   7.084
 1675WAT     H2 5268   1.629   2.242   7.034
 1676WAT      O 5269   6.982   6.950   5.021
 1676WAT     H1 5270   7.062   7.010   5.027
 1676WAT     H2 5271   6.926   6.963   5.103
 1677WAT      O 5272   0.077   7.482   8.273
 1677WAT     H1 5273   0.025   7.562   8.243
 1677WAT     H2 5274   0.163   7.478   8.222
 1678WAT      O 5275   1.723   2.987   0.750
 1678WAT     H1 5276   1.760   2.961   0.661
 1678WAT     H2 5277   1.784   2.954   0.823
 1679WAT      O 5278   7.281   3.405   8.615
 1679WAT     H1 5279   7.378   3.412   8.591
 1679WAT     H2 5280   7.270   3.421   8.713
 1680WAT      O 5281   7.969   6.491   4.622
 1680WAT     H1 5282   8.025   6.504   4.704
 1680WAT     H2 5283   8.029   6.480   4.542
 1681WAT      O 5284   9.422   7.601   0.017
 1681WAT     H1 5285   9.508   7.650   0.005
 1681WAT     H2 5286   9.441   7.503   0.028
 1682WAT      O 5287   4.419   3.928   5.311
 1682WAT     H1 5288   4.393   3.968   5.224
 1682WAT     H2 5289   4.519   3.926   5.319
 1683WAT      O 5290   6.470   1.434   6.591
 1683WAT     H1 5291   6.389   1.389   6.553
 1683WAT     H2 5292   6.457   1.452   6.688
 1684WAT      O 5293   0.227   3.964   8.003
 1684WAT     H1 5294   0.143   4.017   8.016
 1684WAT     H2 5295   0.242   3.906   8.082
 1685WAT      O 5296   1.094   4.722   0.378
 1685WAT     H1 5297   1.174   4.782   0.376
 1685WAT     H2 5298   1.084   4.682   0.469
 1686WAT      O 5299   5.109   3.135   0.044
 1686WAT     H1 5300   5.047   3.155   0.120
 1686WAT     H2 5301   5.204   3.146   0.074
 1687WAT      O 5302   2.865   2.619   6.049
 1687WAT     H1 5303   2.840   2.714   6.031
 1687WAT     H2 5304   2.939   2.592   5.987
 1688WAT      O 5305   1.202   0.910   3.003
 1688WAT     H1 5306   1.266   0.913   2.927
 1688WAT     H2 5307   1.114   0.874   2.970
 1689WAT      O 5308   4.551   0.503   6.529
 1689WAT     H1 5309   4.615   0.427   6.526
 1689WAT     H2 5310   4.548   0.541   6.622
 1690WAT      O 5311   6.947   8.204   0.854
 1690WAT     H1 5312   6.921   8.282   0.798
 1690WAT     H2 5313   6.915   8.218   0.948
 1691WAT      O 5314   1.669   4.205   9.820
 1691WAT     H1 5315   1.683   4.194   9.919
 1691WAT     H2 5316   1.733   4.273   9.785
 1692WAT      O 5317   5.858   7.365   2.710
 1692WAT     H1 5318   5.826   7.456   2.734
 1692WAT     H2 5319   5.811   7.334   2.627
 1693WAT      O 5320   9.824   3.901   0.745
 1693WAT     H1 5321   9.772   3.930   0.826
 1693WAT     H2 5322   9.913   3.867   0.773
 1694WAT      O 5323   3.119   0.763   6.252
 1694WAT     H1 5324   3.153   0.846   6.295
 1694WAT     H2 5325   3.186   0.689   6.264
 1695WAT      O 5326   0.270   9.827   9.800
 1695WAT     H1 5327   0.211   9.749   9.778
 1695WAT     H2 5328   0.352   9.794   9.846
 1696WAT      O 5329   7.938   3.586   2.196
 1696WAT     H1 5330   7.872   3.657   2.170
 1696WAT     H2 5331   7.980   3.610   2.283
 1697WAT      O 5332   9.731   4.238   3.671
 1697WAT     H1 5333   9.637   4.243   3.637
 1697WAT     H2 5334   9.731   4.207   3.766
 1698WAT      O 5335   0.367   5.173   2.245
 1698WAT     H1 5336   0.437   5.112   2.282
 1698WAT     H2 5337   0.286   5.170   2.304
 1699WAT      O 5338   1.541   8.614   2.446
 1699WAT     H1 5339   1.540   8.714   2.445
 1699WAT     H2 5340   1.453   8.581   2.480
 1700WAT      O 5341   9.482   3.799   5.601
 1700WAT     H1 5342   9.488   3.843   5.511
 1700WAT     H2 5343   9.434   3.712   5.592
 1701WAT      O 5344   4.712   9.293   8.331
 1701WAT     H1 5345   4.650   9.326   8.402
 1701WAT     H2 5346   4.737   9.198   8.350
 1702WAT      O 5347   2.669   8.639   6.024
 1702WAT     H1 5348   2.700   8.631   6.119
 1702WAT     H2 5349   2.683   8.733   5.993
 1703WAT      O 5350   7.632   7.628   1.367
 1703WAT     H1 5351   7.631   7.555   1.299
 1703WAT     H2 5352   7.599   7.713   1.326
 1704WAT      O 5353   6.416   8.200   5.819
 1704WAT     H1 5354   6.480   8.229   5.749
 1704WAT     H2 5355   6.325   8.188   5.779
 1705WAT      O 5356   7.416   6.503   9.451
 1705WAT     H1 5357   7.436   6.418   9.501
 1705WAT     H2 5358   7.461   6.580   9.496
 1706WAT      O 5359   1.740   6.378   8.878
 1706WAT     H1 5360   1.752   6.287   8.917
 1706WAT     H2 5361   1.668   6.426   8.928
 1707WAT      O 5362   2.602   1.190   7.530
 1707WAT     H1 5363   2.572   1.234   7.445
 1707WAT     H2 5364   2.691   1.146   7.516
 1708WAT      O 5365   5.494   7.377   6.956
 1708WAT     H1 5366   5.522   7.401   6.863
 1708WAT     H2 5367   5.422   7.309   6.953
 1709WAT      O 5368   2.588   8.490   6.685
 1709WAT     H1 5369   2.581   8.589   6.703
 1709WAT     H2 5370   2.546   8.440   6.761
 1710WAT      O 5371   1.658   5.190   1.106
 1710WAT     H1 5372   1.702   5.125   1.168
 1710WAT     H2 5373   1.718   5.208   1.028
 1711WAT      O 5374   6.584   5.834   4.589
 1711WAT     H1 5375   6.679   5.835   4.619
 1711WAT     H2 5376   6.559   5.926   4.556
 1712WAT      O 5377   1.782   0.103   7.679
 1712WAT     H1 5378   1.705   0.044   7.657
 1712WAT     H2 5379   1.863   0.046   7.697
 1713WAT      O 5380   6.098   9.823   8.274
 1713WAT     H1 5381   6.064   9.849   8.184
 1713WAT     H2 5382   6.189   9.783   8.265
 1714WAT      O 5383   4.380   3.615   4.311
 1714WAT     H1 5384   4.327   3.609   4.227
 1714WAT     H2 5385   4.321   3.597   4.389
 1715WAT      O 5386   3.990   2.324   8.724
 1715WAT     H1 5387   3.996   2.419   8.693
 1715WAT     H2 5388   3.970   2.265   8.646
 1716WAT      O 5389   5.736   9.765   6.200
 1716WAT     H1 5390   5.834   9.772   6.219
 1716WAT     H2 5391   5.719   9.684   6.143
 1717WAT      O 5392   3.323   8.472   2.912
 1717WAT     H1 5393   3.328   8.446   2.816
 1717WAT     H2 5394   3.415   8.485   2.948
 1718WAT      O 5395   7.281   1.940   1.238
 1718WAT     H1 5396   7.304   1.878   1.163
 1718WAT     H2 5397   7.361   1.953   1.296
 1719WAT      O 5398   3.429   9.670   5.123
 1719WAT     H1 5399   3.503   9.653   5.188
 1719WAT     H2 5400   3.452   9.749   5.066
 1720WAT      O 5401   2.970   6.454   9.404
 1720WAT     H1 5402   2.920   6.375   9.369
 1720WAT     H2 5403   2.925   6.538   9.374
 1721WAT      O 5404   3.781   1.989   8.714
 1721WAT     H1 5405   3.743   1.926   8.646
 1721WAT     H2 5406   3.842   2.053   8.668
 1722WAT      O 5407   0.071   1.465   3.439
 1722WAT     H1 5408   0.012   1.530   3.487
 1722WAT     H2 5409   0.016   1.398   3.390
 1723WAT      O 5410   8.668   7.600   9.562
 1723WAT     H1 5411   8.607   7.646   9.627
 1723WAT     H2 5412   8.745   7.661   9.540
 1724WAT      O 5413   9.243   8.679   2.089
 1724WAT     H1 5414   9.167   8.664   2.152
 1724WAT     H2 5415   9.260   8.596   2.037
 1725WAT      O 5416   1.822   7.687   7.658
 1725WAT     H1 5417   1.885   7.707   7.733
 1725WAT     H2 5418   1.852   7.734   7.575
 1726WAT      O 5419   1.530   0.286   6.840
 1726WAT     H1 5420   1.458   0.228   6.801
 1726WAT     H2 5421   1.569   0.242   6.921
 1727WAT      O 5422   0.005   4.978   6.650
 1727WAT     H1 5423  -0.029   5.022   6.733
 1727WAT     H2 5424  -0.042   4.891   6.637
 1728WAT      O 5425   4.388   5.387   2.913
 1728WAT     H1 5426   4.401   5.475   2.867
 1728WAT     H2 5427   4.336   5.400   2.997
 1729WAT      O 5428   9.647   6.103   8.078
 1729WAT     H1 5429   9.569   6.049   8.110
 1729WAT     H2 5430   9.616   6.192   8.045
 1730WAT      O 5431   6.773   7.106   2.302
 1730WAT     H1 5432   6.698   7.112   2.237
 1730WAT     H2 5433   6.821   7.019   2.290
 1731WAT      O 5434   2.681   8.619   9.646
 1731WAT     H1 5435   2.591   8.645   9.612
 1731WAT     H2 5436   2.677   8.526   9.681
 1732WAT      O 5437   0.580   1.750   3.932
 1732WAT     H1 5438   0.636   1.709   4.005
 1732WAT     H2 5439   0.484   1.727   3.946
 1733WAT      O 5440   2.843   9.206   0.824
 1733WAT     H1 5441   2.818   9.147   0.747
 1733WAT     H2 5442   2.865   9.149   0.903
 1734WAT      O 5443   4.039   7.654   5.706
 1734WAT     H1 5444   4.027   7.591   5.629
 1734WAT     H2 5445   4.119   7.711   5.690
 1735WAT      O 5446   2.173   1.740   5.689
 1735WAT     H1 5447   2.229   1.674   5.640
 1735WAT     H2 5448   2.220   1.828   5.693
 1736WAT      O 5449   3.849   4.672   6.204
 1736WAT     H1 5450   3.870   4.761   6.164
 1736WAT     H2 5451   3.756   4.645   6.178
 1737WAT      O 5452   9.019   1.307   3.511
 1737WAT     H1 5453   9.089   1.346   3.450
 1737WAT     H2 5454   9.007   1.366   3.590
 1738WAT      O 5455   7.257   2.253   2.625
 1738WAT     H1 5456   7.313   2.171   2.614
 1738WAT     H2 5457   7.310   2.323   2.672
 1739WAT      O 5458   0.666   5.249   5.934
 1739WAT     H1 5459   0.702   5.190   5.862
 1739WAT     H2 5460   0.712   5.338   5.930
 1740WAT      O 5461   9.106   4.777   2.947
 1740WAT     H1 5462   9.166   4.698   2.939
 1740WAT     H2 5463   9.011   4.748   2.937
 1741WAT      O 5464   8.472   1.260   2.633
 1741WAT     H1 5465   8.467   1.163   2.608
 1741WAT     H2 5466   8.556   1.277   2.683
 1742WAT      O 5467   6.112   1.810   6.907
 1742WAT     H1 5468   6.047   1.881   6.880
 1742WAT     H2 5469   6.202   1.831   6.871
 1743WAT      O 5470   9.184   7.019   5.838
 1743WAT     H1 5471   9.232   7.097   5.798
 1743WAT     H2 5472   9.182   7.028   5.938
 1744WAT      O 5473   4.267   2.956   7.689
 1744WAT     H1 5474   4.283   3.026   7.759
 1744WAT     H2 5475   4.216   2.995   7.613
 1745WAT      O 5476   7.187   4.588   5.072
 1745WAT     H1 5477   7.150   4.614   4.983
 1745WAT     H2 5478   7.224   4.495   5.067
 1746WAT      O 5479   5.914   8.210   8.725
 1746WAT     H1 5480   5.829   8.240   8.682
 1746WAT     H2 5481   5.972   8.289   8.745
 1747WAT      O 5482   0.976   4.377   4.633
 1747WAT     H1 5483   0.930   4.416   4.713
 1747WAT     H2 5484   0.954   4.432   4.552
 1748WAT      O 5485   4.584   8.738   1.309
 1748WAT     H1 5486   4.560   8.699   1.398
 1748WAT     H2 5487   4.672   8.700   1.280
 1749WAT      O 5488   9.052   3.231   4.225
 1749WAT     H1 5489   8.965   3.214   4.180
 1749WAT     H2 5490   9.041   3.226   4.324
 1750WAT      O 5491   0.519   6.841   6.236
 1750WAT     H1 5492   0.523   6.777   6.312
 1750WAT     H2 5493   0.574   6.922   6.256
 1751WAT      O 5494   5.891   8.356   5.580
 1751WAT     H1 5495   5.961   8.381   5.647
 1751WAT     H2 5496   5.827   8.433   5.569
 1752WAT      O 5497   0.212   2.580   9.363
 1752WAT     H1 5498   0.294   2.538   9.325
 1752WAT     H2 5499   0.133   2.521   9.344
 1753WAT      O 5500   7.235   0.846   9.680
 1753WAT     H1 5501   7.227   0.879   9.774
 1753WAT     H2 5502   7.291   0.910   9.627
 1754WAT      O 5503   8.251   4.139   9.739
 1754WAT     H1 5504   8.326   4.084   9.776
 1754WAT     H2 5505   8.172   4.131   9.799
 1755WAT      O 5506   6.623   5.781   1.435
 1755WAT     H1 5507   6.657   5.772   1.529
 1755WAT     H2 5508   6.555   5.854   1.431
 1756WAT      O 5509   0.708   5.531   1.676
 1756WAT     H1 5510   0.633   5.514   1.612
 1756WAT     H2 5511   0.791   5.554   1.625
 1757WAT      O 5512   9.344   7.586   3.096
 1757WAT     H1 5513   9.412   7.535   3.150
 1757WAT     H2 5514   9.329   7.539   3.009
 1758WAT      O 5515   0.931   9.287   5.813
 1758WAT     H1 5516   0.977   9.368   5.777
 1758WAT     H2 5517   0.834   9.306   5.826
 1759WAT      O 5518   7.628   2.184   0.332
 1759WAT     H1 5519   7.607   2.281   0.351
 1759WAT     H2 5520   7.716   2.178   0.286
 1760WAT      O 5521   6.764   4.660   9.099
 1760WAT     H1 5522   6.808   4.710   9.024
 1760WAT     H2 5523   6.667   4.648   9.078
 1761WAT      O 5524   3.896   6.078   2.795
 1761WAT     H1 5525   3.925   6.173   2.784
 1761WAT     H2 5526   3.961   6.030   2.854
 1762WAT      O 5527   1.821   3.158   1.524
 1762WAT     H1 5528   1.860   3.071   1.551
 1762WAT     H2 5529   1.860   3.186   1.436
 1763WAT      O 5530   9.154   8.918   1.921
 1763WAT     H1 5531   9.102   9.003   1.913
 1763WAT     H2 5532   9.132   8.874   2.008
 1764WAT      O 5533   4.668   1.113   5.524
 1764WAT     H1 5534   4.572   1.139   5.521
 1764WAT     H2 5535   4.676   1.020   5.559
 1765WAT      O 5536   8.677   5.513   5.409
 1765WAT     H1 5537   8.706   5.431   5.359
 1765WAT     H2 5538   8.621   5.570   5.349
 1766WAT      O 5539   7.817   4.972   3.834
 1766WAT     H1 5540   7.847   5.062   3.802
 1766WAT     H2 5541   7.717   4.970   3.839
 1767WAT      O 5542   7.465   1.893   5.357
 1767WAT     H1 5543   7.458   1.809   5.410
 1767WAT     H2 5544   7.500   1.873   5.266
 1768WAT      O 5545   6.088   1.721   1.079
 1768WAT     H1 5546   6.094   1.641   1.138
 1768WAT     H2 5547   6.102   1.694   0.984
 1769WAT      O 5548   2.951   6.720   3.226
 1769WAT     H1 5549   2.860   6.739   3.189
 1769WAT     H2 5550   2.960   6.762   3.316
 1770WAT      O 5551   5.737   8.576   3.577
 1770WAT     H1 5552   5.698   8.658   3.619
 1770WAT     H2 5553   5.723   8.578   3.478
 1771WAT      O 5554   7.293   7.154   2.889
 1771WAT     H1 5555   7.393   7.144   2.882
 1771WAT     H2 5556   7.253   7.069   2.923
 1772WAT      O 5557   0.904   0.458   4.626
 1772WAT     H1 5558   0.939   0.396   4.696
 1772WAT     H2 5559   0.980   0.507   4.584
 1773WAT      O 5560   7.949   3.317   2.271
 1773WAT     H1 5561   7.933   3.410   2.238
 1773WAT     H2 5562   7.863   3.267   2.276
 1774WAT      O 5563   8.556   5.893   9.137
 1774WAT     H1 5564   8.598   5.865   9.223
 1774WAT     H2 5565   8.532   5.812   9.083
 1775WAT      O 5566   4.255   2.663   3.341
 1775WAT     H1 5567   4.284   2.757   3.362
 1775WAT     H2 5568   4.165   2.646   3.380
 1776WAT      O 5569   0.087   3.521   1.835
 1776WAT     H1 5570   0.167   3.529   1.776
 1776WAT     H2 5571   0.009   3.565   1.791
 1777WAT      O 5572   4.023   6.256   7.968
 1777WAT     H1 5573   4.061   6.243   8.059
 1777WAT     H2 5574   4.046   6.177   7.911
 1778WAT      O 5575   8.311   4.458   3.250
 1778WAT     H1 5576   8.386   4.517   3.222
 1778WAT     H2 5577   8.327   4.365   3.215
 1779WAT      O 5578   1.303   1.755   6.191
 1779WAT     H1 5579   1.225   1.817   6.189
 1779WAT     H2 5580   1.360   1.776   6.271
 1780WAT      O 5581   8.947   6.622   5.450
 1780WAT     H1 5582   8.964   6.585   5.359
 1780WAT     H2 5583   9.032   6.660   5.487
 1781WAT      O 5584   6.246   6.879   5.491
 1781WAT     H1 5585   6.161   6.931   5.499
 1781WAT     H2 5586   6.323   6.935   5.519
 1782WAT      O 5587   6.607   1.420   9.657
 1782WAT     H1 5588   6.670   1.478   9.708
 1782WAT     H2 5589   6.619   1.435   9.559
 1783WAT      O 5590   3.635   1.423   0.063
 1783WAT     H1 5591   3.640   1.475   0.148
 1783WAT     H2 5592   3.563   1.354   0.070
 1784WAT      O 5593   2.647   4.182   3.540
 1784WAT     H1 5594   2.679   4.222   3.626
 1784WAT     H2 5595   2.723   4.175   3.476
 1785WAT      O 5596   7.667   0.424   2.300
 1785WAT     H1 5597   7.641   0.416   2.396
 1785WAT     H2 5598   7.688   0.334   2.263
 1786WAT      O 5599   9.720   2.208   2.986
 1786WAT     H1 5600   9.659   2.282   2.958
 1786WAT     H2 5601   9.689   2.171   3.074
 1787WAT      O 5602   6.047   3.952   2.529
 1787WAT     H1 5603   6.042   4.031   2.590
 1787WAT     H2 5604   5.971   3.890   2.548
 1788WAT      O 5605   7.138   7.162   9.067
 1788WAT     H1 5606   7.161   7.146   8.971
 1788WAT     H2 5607   7.061   7.226   9.072
 1789WAT      O 5608   0.018   7.168   8.658
 1789WAT     H1 5609   0.083   7.134   8.726
 1789WAT     H2 5610  -0.075   7.149   8.689
 1790WAT      O 5611   8.384   6.361   7.356
 1790WAT     H1 5612   8.337   6.405   7.280
 1790WAT     H2 5613   8.482   6.377   7.348
 1791WAT      O 5614   6.674   0.583   6.929
 1791WAT     H1 5615   6.720   0.672   6.927
 1791WAT     H2 5616   6.650   0.560   7.023
 1792WAT      O 5617   1.126   6.293   4.218
 1792WAT     H1 5618   1.124   6.262   4.313
 1792WAT     H2 5619   1.214   6.338   4.200
 1793WAT      O 5620   1.207   2.738   2.852
 1793WAT     H1 5621   1.180   2.681   2.930
 1793WAT     H2 5622   1.125   2.771   2.806
 1794WAT      O 5623   2.771   3.766   4.915
 1794WAT     H1 5624   2.707   3.758   4.838
 1794WAT     H2 5625   2.813   3.677   4.933
 1795WAT      O 5626   4.277   4.598   5.328
 1795WAT     H1 5627   4.328   4.515   5.303
 1795WAT     H2 5628   4.328   4.679   5.298
 1796WAT      O 5629   0.420   2.293   5.139
 1796WAT     H1 5630   0.407   2.315   5.235
 1796WAT     H2 5631   0.365   2.213   5.115
 1797WAT      O 5632   9.587   2.068   3.215
 1797WAT     H1 5633   9.518   1.997   3.223
 1797WAT     H2 5634   9.550   2.155   3.247
 1798WAT      O 5635   8.377   3.214   5.205
 1798WAT     H1 5636   8.309   3.146   5.180
 1798WAT     H2 5637   8.409   3.262   5.123
 1799WAT      O 5638   4.919   1.356   5.315
 1799WAT     H1 5639   4.841   1.294   5.307
 1799WAT     H2 5640   4.896   1.443   5.271
 1800WAT      O 5641   5.731   8.008   8.453
 1800WAT     H1 5642   5.706   8.095   8.495
 1800WAT     H2 5643   5.830   8.008   8.434
 1801WAT      O 5644   3.688   7.843   0.153
 1801WAT     H1 5645   3.772   7.873   0.197
 1801WAT     H2 5646   3.612   7.846   0.218
 1802WAT      O 5647   4.196   3.704   9.749
 1802WAT     H1 5648   4.132   3.690   9.674
 1802WAT     H2 5649   4.182   3.795   9.788
 1803WAT      O 5650   9.731   7.272   0.853
 1803WAT     H1 5651   9.669   7.347   0.833
 1803WAT     H2 5652   9.769   7.235   0.768
 1804WAT      O 5653   6.095   7.084   0.360
 1804WAT     H1 5654   6.040   7.119   0.436
 1804WAT     H2 5655   6.073   7.136   0.277
 1805WAT      O 5656   3.992   0.304   9.545
 1805WAT     H1 5657   4.088   0.308   9.572
 1805WAT     H2 5658   3.934   0.299   9.626
 1806WAT      O 5659   8.099   1.142   1.131
 1806WAT     H1 5660   8.001   1.144   1.151
 1806WAT     H2 5661   8.114   1.164   1.035
 1807WAT      O 5662   8.230   4.928   8.620
 1807WAT     H1 5663   8.324   4.899   8.636
 1807WAT     H2 5664   8.228   5.000   8.551
 1808WAT      O 5665   4.085   1.840   3.979
 1808WAT     H1 5666   4.014   1.788   3.931
 1808WAT     H2 5667   4.163   1.856   3.918
 1809WAT      O 5668   2.406   3.111   7.671
 1809WAT     H1 5669   2.345   3.077   7.599
 1809WAT     H2 5670   2.423   3.038   7.737
 1810WAT      O 5671   6.179   2.850   0.534
 1810WAT     H1 5672   6.144   2.822   0.445
 1810WAT     H2 5673   6.275   2.823   0.542
 1811WAT      O 5674   2.255   7.737   3.255
 1811WAT     H1 5675   2.340   7.686   3.238
 1811WAT     H2 5676   2.238   7.800   3.180
 1812WAT      O 5677   4.038   5.368   1.292
 1812WAT     H1 5678   4.117   5.430   1.290
 1812WAT     H2 5679   4.020   5.333   1.200
 1813WAT      O 5680   9.295   5.941   8.505
 1813WAT     H1 5681   9.291   5.983   8.414
 1813WAT     H2 5682   9.297   5.841   8.496
 1814WAT      O 5683   6.645   6.621   2.429
 1814WAT     H1 5684   6.611   6.699   2.376
 1814WAT     H2 5685   6.721   6.651   2.487
 1815WAT      O 5686   1.843   9.334   5.051
 1815WAT     H1 5687   1.869   9.416   5.000
 1815WAT     H2 5688   1.769   9.287   5.003
 1816WAT      O 5689   9.582   2.567   4.664
 1816WAT     H1 5690   9.564   2.633   4.591
 1816WAT     H2 5691   9.677   2.536   4.658
 1817WAT      O 5692   6.314   8.036   4.294
 1817WAT     H1 5693   6.329   8.014   4.390
 1817WAT     H2 5694   6.342   7.959   4.237
 1818WAT      O 5695   9.413   1.163   8.609
 1818WAT     H1 5696   9.414   1.250   8.560
 1818WAT     H2 5697   9.365   1.174   8.696
 1819WAT      O 5698   4.448   9.356   9.284
 1819WAT     H1 5699   4.473   9.260   9.269
 1819WAT     H2 5700   4.384   9.362   9.360
 1820WAT      O 5701   8.451   5.215   1.808
 1820WAT     H1 5702   8.438   5.192   1.712
 1820WAT     H2 5703   8.546   5.195   1.834
 1821WAT      O 5704   7.229   7.959   4.921
 1821WAT     H1 5705   7.147   7.971   4.978
 1821WAT     H2 5706   7.308   7.999   4.968
 1822WAT      O 5707   1.048   8.506   7.148
 1822WAT     H1 5708   0.998   8.593   7.144
 1822WAT     H2 5709   1.144   8.524   7.169
 1823WAT      O 5710   6.418   2.372   3.078
 1823WAT     H1 5711   6.363   2.327   3.007
 1823WAT     H2 5712   6.515   2.368   3.053
 1824WAT      O 5713   6.183   0.954   6.109
 1824WAT     H1 5714   6.095   1.000   6.114
 1824WAT     H2 5715   6.256   1.022   6.103
 1825WAT      O 5716   4.094   8.948   0.761
 1825WAT     H1 5717   4.028   9.005   0.808
 1825WAT     H2 5718   4.162   9.006   0.715
 1826WAT      O 5719   0.949   3.395   3.703
 1826WAT     H1 5720   0.914   3.372   3.794
 1826WAT     H2 5721   1.047   3.416   3.709
 1827WAT      O 5722   2.791   8.316   9.006
 1827WAT     H1 5723   2.837   8.255   8.942
 1827WAT     H2 5724   2.706   8.349   8.965
 1828WAT      O 5725   3.324   5.614   5.528
 1828WAT     H1 5726   3.233   5.613   5.571
 1828WAT     H2 5727   3.346   5.522   5.496
 1829WAT      O 5728   0.974   5.369   0.127
 1829WAT     H1 5729   1.069   5.402   0.122
 1829WAT     H2 5730   0.918   5.437   0.174
 1830WAT      O 5731   6.418   5.639   1.329
 1830WAT     H1 5732   6.498   5.672   1.379
 1830WAT     H2 5733   6.359   5.717   1.305
 1831WAT      O 5734   0.454   7.301   5.740
 1831WAT     H1 5735   0.453   7.219   5.798
 1831WAT     H2 5736   0.541   7.349   5.754
 1832WAT      O 5737   2.008   2.871   1.288
 1832WAT     H1 5738   2.099   2.890   1.252
 1832WAT     H2 5739   1.942   2.932   1.244
 1833WAT      O 5740   4.796   8.764   3.605
 1833WAT     H1 5741   4.717   8.703   3.601
 1833WAT     H2 5742   4.834   8.776   3.513
 1834WAT      O 5743   6.262   1.536   0.946
 1834WAT     H1 5744   6.255   1.509   1.042
 1834WAT     H2 5745   6.176   1.517   0.899
 1835WAT      O 5746   0.288   6.304   1.446
 1835WAT     H1 5747   0.289   6.210   1.478
 1835WAT     H2 5748   0.195   6.328   1.417
 1836WAT      O 5749   2.793   0.482   0.279
 1836WAT     H1 5750   2.892   0.494   0.273
 1836WAT     H2 5751   2.748   0.569   0.259
 1837WAT      O 5752   6.142   2.707   3.814
 1837WAT     H1 5753   6.228   2.699   3.764
 1837WAT     H2 5754   6.161   2.725   3.911
 1838WAT      O 5755   4.731   5.672   2.020
 1838WAT     H1 5756   4.797   5.733   2.063
 1838WAT     H2 5757   4.759   5.577   2.034
 1839WAT      O 5758   5.383   8.583   8.492
 1839WAT     H1 5759   5.401   8.642   8.413
 1839WAT     H2 5760   5.285   8.578   8.509
 1840WAT      O 5761   2.560   5.184   7.659
 1840WAT     H1 5762   2.621   5.146   7.591
 1840WAT     H2 5763   2.527   5.112   7.719
 1841WAT      O 5764   4.826   7.368   2.782
 1841WAT     H1 5765   4.794   7.348   2.874
 1841WAT     H2 5766   4.749   7.400   2.726
 1842WAT      O 5767   7.662   7.625   5.052
 1842WAT     H1 5768   7.694   7.530   5.046
 1842WAT     H2 5769   7.740   7.687   5.049
 1843WAT      O 5770   0.921   9.252   4.238
 1843WAT     H1 5771   0.911   9.345   4.201
 1843WAT     H2 5772   0.970   9.257   4.326
 1844WAT      O 5773   2.526   9.462   7.852
 1844WAT     H1 5774   2.617   9.488   7.884
 1844WAT     H2 5775   2.527   9.450   7.753
 1845WAT      O 5776   8.089   8.642   5.975
 1845WAT     H1 5777   8.092   8.643   5.875
 1845WAT     H2 5778   8.131   8.558   6.009
 1846WAT      O 5779   9.577   2.021   6.303
 1846WAT     H1 5780   9.600   2.044   6.209
 1846WAT     H2 5781   9.608   2.095   6.363
 1847WAT      O 5782   7.406   2.399   0.680
 1847WAT     H1 5783   7.473   2.334   0.644
 1847WAT     H2 5784   7.339   2.349   0.736
 1848WAT      O 5785   1.112   4.679   9.308
 1848WAT     H1 5786   1.065   4.762   9.337
 1848WAT     H2 5787   1.057   4.632   9.239
 1849WAT      O 5788   6.626   5.029   8.825
 1849WAT     H1 5789   6.541   4.983   8.797
 1849WAT     H2 5790   6.610   5.127   8.834
 1850WAT      O 5791   6.458   2.064   8.478
 1850WAT     H1 5792   6.360   2.069   8.462
 1850WAT     H2 5793   6.506   2.063   8.390
 1851WAT      O 5794   0.356   1.913   1.807
 1851WAT     H1 5795   0.264   1.950   1.797
 1851WAT     H2 5796   0.406   1.923   1.721
 1852WAT      O 5797   0.814   7.922   2.827
 1852WAT     H1 5798   0.855   7.831   2.828
 1852WAT     H2 5799   0.751   7.931   2.905
 1853WAT      O 5800   6.520   5.986   7.160
 1853WAT     H1 5801   6.602   5.930   7.175
 1853WAT     H2 5802   6.481   6.010   7.249
 1854WAT      O 5803   0.718   9.212   3.496
 1854WAT     H1 5804   0.675   9.142   3.553
 1854WAT     H2 5805   0.818   9.206   3.506
 1855WAT      O 5806   8.380   7.569   6.158
 1855WAT     H1 5807   8.352   7.530   6.246
 1855WAT     H2 5808   8.431   7.654   6.173
 1856WAT      O 5809   6.470   4.624   2.366
 1856WAT     H1 5810   6.408   4.583   2.299
 1856WAT     H2 5811   6.497   4.555   2.433
 1857WAT      O 5812   5.623   6.633   5.689
 1857WAT     H1 5813   5.685   6.570   5.737
 1857WAT     H2 5814   5.606   6.600   5.597
 1858WAT      O 5815   2.341   2.367   5.820
 1858WAT     H1 5816   2.270   2.436   5.833
 1858WAT     H2 5817   2.400   2.394   5.744
 1859WAT      O 5818   3.855   4.127   0.961
 1859WAT     H1 5819   3.854   4.174   0.873
 1859WAT     H2 5820   3.788   4.053   0.960
 1860WAT      O 5821   1.354   6.797   9.736
 1860WAT     H1 5822   1.351   6.877   9.796
 1860WAT     H2 5823   1.361   6.827   9.641
 1861WAT      O 5824   8.380   6.308   0.860
 1861WAT     H1 5825   8.404   6.223   0.813
 1861WAT     H2 5826   8.318   6.361   0.802
 1862WAT      O 5827   2.565   8.838   7.544
 1862WAT     H1 5828   2.649   8.786   7.530
 1862WAT     H2 5829   2.489   8.775   7.558
 1863WAT      O 5830   9.520   1.193   9.471
 1863WAT     H1 5831   9.493   1.104   9.436
 1863WAT     H2 5832   9.619   1.203   9.465
 1864WAT      O 5833   4.527   0.972   8.459
 1864WAT     H1 5834   4.594   0.898   8.463
 1864WAT     H2 5835   4.534   1.026   8.543
 1865WAT      O 5836   2.928   3.751   9.618
 1865WAT     H1 5837   2.912   3.711   9.709
 1865WAT     H2 5838   2.912   3.849   9.622
 1866WAT      O 5839   6.023   4.121   7.401
 1866WAT     H1 5840   5.950   4.062   7.434
 1866WAT     H2 5841   6.086   4.067   7.345
 1867WAT      O 5842   9.263   3.822   8.314
 1867WAT     H1 5843   9.255   3.908   8.365
 1867WAT     H2 5844   9.178   3.804   8.265
 1868WAT      O 5845   2.743   8.198   7.975
 1868WAT     H1 5846   2.720   8.200   7.878
 1868WAT     H2 5847   2.777   8.107   7.999
 1869WAT      O 5848   7.650   9.556   6.182
 1869WAT     H1 5849   7.728   9.604   6.222
 1869WAT     H2 5850   7.569   9.572   6.238
 1870WAT      O 5851   7.948   5.956   0.825
 1870WAT     H1 5852   7.909   5.950   0.734
 1870WAT     H2 5853   7.897   5.895   0.887
 1871WAT      O 5854   1.592   4.000   7.309
 1871WAT     H1 5855   1.548   3.972   7.394
 1871WAT     H2 5856   1.662   4.069   7.328
 1872WAT      O 5857   2.997   6.080   9.832
 1872WAT     H1 5858   2.981   6.102   9.928
 1872WAT     H2 5859   3.033   5.987   9.825
 1873WAT      O 5860   1.352   1.731   2.474
 1873WAT     H1 5861   1.319   1.788   2.399
 1873WAT     H2 5862   1.374   1.788   2.553
 1874WAT      O 5863   4.403   1.653   0.170
 1874WAT     H1 5864   4.357   1.724   0.117
 1874WAT     H2 5865   4.453   1.592   0.108
 1875WAT      O 5866   0.977   1.413   0.661
 1875WAT     H1 5867   0.901   1.478   0.658
 1875WAT     H2 5868   0.966   1.345   0.588
 1876WAT      O 5869   0.089   4.869   5.329
 1876WAT     H1 5870   0.173   4.852   5.278
 1876WAT     H2 5871   0.010   4.858   5.268
 1877WAT      O 5872   5.076   6.480   0.544
 1877WAT     H1 5873   5.063   6.525   0.632
 1877WAT     H2 5874   5.048   6.385   0.550
 1878WAT      O 5875   3.097   5.391   3.115
 1878WAT     H1 5876   3.091   5.490   3.100
 1878WAT     H2 5877   3.033   5.365   3.188
 1879WAT      O 5878   4.718   1.608   8.241
 1879WAT     H1 5879   4.739   1.533   8.179
 1879WAT     H2 5880   4.684   1.571   8.328
 1880WAT      O 5881   7.442   3.834   8.514
 1880WAT     H1 5882   7.508   3.775   8.468
 1880WAT     H2 5883   7.485   3.920   8.539
 1881WAT      O 5884   3.506   0.093   1.162
 1881WAT     H1 5885   3.577   0.023   1.159
 1881WAT     H2 5886   3.518   0.148   1.244
 1882WAT      O 5887   2.933   7.756   0.214
 1882WAT     H1 5888   3.000   7.829   0.224
 1882WAT     H2 5889   2.902   7.751   0.119
 1883WAT      O 5890   7.537   6.219   2.339
 1883WAT     H1 5891   7.607   6.213   2.268
 1883WAT     H2 5892   7.497   6.129   2.354
 1884WAT      O 5893   9.733   8.968   1.036
 1884WAT     H1 5894   9.659   8.918   1.081
 1884WAT     H2 5895   9.811   8.974   1.098
 1885WAT      O 5896   3.215   1.194   0.340
 1885WAT     H1 5897   3.153   1.256   0.291
 1885WAT     H2 5898   3.293   1.245   0.376
 1886WAT      O 5899   1.367   7.992   1.901
 1886WAT     H1 5900   1.364   7.927   1.825
 1886WAT     H2 5901   1.316   8.074   1.877
 1887WAT      O 5902   8.448   8.928   1.446
 1887WAT     H1 5903   8.500   8.843   1.445
 1887WAT     H2 5904   8.420   8.949   1.540
 1888WAT      O 5905   6.355   5.458   3.009
 1888WAT     H1 5906   6.427   5.521   3.037
 1888WAT     H2 5907   6.350   5.382   3.074
 1889WAT      O 5908   3.682   3.368   0.054
 1889WAT     H1 5909   3.685   3.453   0.107
 1889WAT     H2 5910   3.769   3.353   0.008
 1890WAT      O 5911   7.990   7.290   0.918
 1890WAT     H1 5912   8.071   7.248   0.876
 1890WAT     H2 5913   7.965   7.373   0.867
 1891WAT      O 5914   4.668   3.562   7.020
 1891WAT     H1 5915   4.741   3.495   7.004
 1891WAT     H2 5916   4.629   3.591   6.932
 1892WAT      O 5917   7.675   5.869   0.400
 1892WAT     H1 5918   7.721   5.830   0.320
 1892WAT     H2 5919   7.576   5.872   0.383
 1893WAT      O 5920   8.350   0.858   1.440
 1893WAT     H1 5921   8.329   0.878   1.344
 1893WAT     H2 5922   8.285   0.792   1.476
 1894WAT      O 5923   5.231   3.231   3.563
 1894WAT     H1 5924   5.222   3.281   3.477
 1894WAT     H2 5925   5.150   3.248   3.620
 1895WAT      O 5926   8.474   3.661   3.273
 1895WAT     H1 5927   8.555   3.655   3.331
 1895WAT     H2 5928   8.392   3.661   3.330
 1896WAT      O 5929   0.879   6.129   7.935
 1896WAT     H1 5930   0.893   6.208   7.994
 1896WAT     H2 5931   0.899   6.045   7.986
 1897WAT      O 5932   9.449   4.946   7.192
 1897WAT     H1 5933   9.401   4.948   7.104
 1897WAT     H2 5934   9.453   5.039   7.229
 1898WAT      O 5935   6.315   5.605   1.594
 1898WAT     H1 5936   6.350   5.605   1.500
 1898WAT     H2 5937   6.385   5.568   1.655
 1899WAT      O 5938   3.240   3.730   8.766
 1899WAT     H1 5939   3.207   3.754   8.857
 1899WAT     H2 5940   3.337   3.708   8.771
 1900WAT      O 5941   6.400   5.917   4.305
 1900WAT     H1 5942   6.317   5.943   4.256
 1900WAT     H2 5943   6.402   5.962   4.394
 1901WAT      O 5944   7.347   8.022   3.150
 1901WAT     H1 5945   7.331   8.117   3.179
 1901WAT     H2 5946   7.273   7.994   3.088
 1902WAT      O 5947   6.795   6.202   4.607
 1902WAT     H1 5948   6.815   6.125   4.668
 1902WAT     H2 5949   6.714   6.180   4.553
 1903WAT      O 5950   9.029   7.543   9.360
 1903WAT     H1 5951   9.128   7.543   9.366
 1903WAT     H2 5952   8.991   7.486   9.434
 1904WAT      O 5953   0.660   6.665   2.109
 1904WAT     H1 5954   0.624   6.750   2.072
 1904WAT     H2 5955   0.597   6.590   2.089
 1905WAT      O 5956   1.051   8.779   8.841
 1905WAT     H1 5957   1.093   8.740   8.923
 1905WAT     H2 5958   1.123   8.809   8.778
 1906WAT      O 5959   9.839   3.747   1.059
 1906WAT     H1 5960   9.912   3.735   0.992
 1906WAT     H2 5961   9.865   3.819   1.124
 1907WAT      O 5962   6.912   4.397   4.023
 1907WAT     H1 5963   6.885   4.379   4.118
 1907WAT     H2 5964   6.948   4.490   4.016
 1908WAT      O 5965   9.767   6.085   1.948
 1908WAT     H1 5966   9.807   5.993   1.938
 1908WAT     H2 5967   9.684   6.078   2.003
 1909WAT      O 5968   2.633   6.904   1.640
 1909WAT     H1 5969   2.707   6.846   1.606
 1909WAT     H2 5970   2.670   6.971   1.705
 1910WAT      O 5971   9.193   3.306   5.217
 1910WAT     H1 5972   9.282   3.260   5.221
 1910WAT     H2 5973   9.195   3.386   5.278
 1911WAT      O 5974   4.470   7.536   2.072
 1911WAT     H1 5975   4.379   7.507   2.100
 1911WAT     H2 5976   4.498   7.486   1.990
 1912WAT      O 5977   7.044   3.569   4.919
 1912WAT     H1 5978   7.136   3.608   4.922
 1912WAT     H2 5979   6.991   3.601   4.997
 1913WAT      O 5980   6.912   4.438   0.454
 1913WAT     H1 5981   6.892   4.353   0.405
 1913WAT     H2 5982   6.976   4.493   0.400
 1914WAT      O 5983   8.309   2.547   6.773
 1914WAT     H1 5984   8.226   2.549   6.829
 1914WAT     H2 5985   8.367   2.471   6.801
 1915WAT      O 5986   3.238   6.771   5.501
 1915WAT     H1 5987   3.299   6.701   5.464
 1915WAT     H2 5988   3.191   6.735   5.582
 1916WAT      O 5989   7.487   6.214   9.147
 1916WAT     H1 5990   7.407   6.193   9.204
 1916WAT     H2 5991   7.556   6.143   9.160
 1917WAT      O 5992   3.928   6.845   9.778
 1917WAT     H1 5993   3.864   6.902   9.726
 1917WAT     H2 5994   3.915   6.861   9.876
 1918WAT      O 5995   9.307   0.125   5.218
 1918WAT     H1 5996   9.329   0.046   5.275
 1918WAT     H2 5997   9.208   0.134   5.212
 1919WAT      O 5998   8.849   3.737   7.143
 1919WAT     H1 5999   8.811   3.671   7.078
 1919WAT     H2 6000   8.805   3.724   7.232
 1920WAT      O 6001   8.939   0.367   5.726
 1920WAT     H1 6002   8.904   0.455   5.760
 1920WAT     H2 6003   8.909   0.354   5.632
 1921WAT      O 6004   6.788   0.873   2.617
 1921WAT     H1 6005   6.871   0.919   2.587
 1921WAT     H2 6006   6.719   0.878   2.544
 1922WAT      O 6007   8.720   0.529   7.750
 1922WAT     H1 6008   8.794   0.590   7.777
 1922WAT     H2 6009   8.638   0.583   7.728
 1923WAT      O 6010   1.918   1.955   6.149
 1923WAT     H1 6011   1.965   1.885   6.203
 1923WAT     H2 6012   1.892   2.031   6.207
 1924WAT      O 6013   8.812   1.050   1.487
 1924WAT     H1 6014   8.851   1.097   1.566
 1924WAT     H2 6015   8.726   1.006   1.514
 1925WAT      O 6016   6.076   1.678   1.915
 1925WAT     H1 6017   6.174   1.679   1.933
 1925WAT     H2 6018   6.039   1.588   1.935
 1926WAT      O 6019   2.617   3.891   3.549
 1926WAT     H1 6020   2.623   3.980   3.594
 1926WAT     H2 6021   2.530   3.847   3.574
 1927WAT      O 6022   6.738   3.852   3.127
 1927WAT     H1 6023   6.653   3.799   3.135
 1927WAT     H2 6024   6.735   3.929   3.191
 1928WAT      O 6025   0.065   2.383   1.069
 1928WAT     H1 6026  -0.002   2.430   1.012
 1928WAT     H2 6027   0.027   2.366   1.159
 1929WAT      O 6028   4.120   5.189   0.292
 1929WAT     H1 6029   4.152   5.097   0.271
 1929WAT     H2 6030   4.113   5.200   0.391
 1930WAT      O 6031   3.799   2.914   6.135
 1930WAT     H1 6032   3.801   3.012   6.153
 1930WAT     H2 6033   3.875   2.870   6.183
 1931WAT      O 6034   0.859   2.361   8.012
 1931WAT     H1 6035   0.910   2.412   8.082
 1931WAT     H2 6036   0.762   2.388   8.016
 1932WAT      O 6037   7.800   1.280   6.050
 1932WAT     H1 6038   7.878   1.224   6.020
 1932WAT     H2 6039   7.829   1.338   6.126
 1933WAT      O 6040   9.731   6.137   3.642
 1933WAT     H1 6041   9.647   6.110   3.691
 1933WAT     H2 6042   9.718   6.227   3.601
 1934WAT      O 6043   1.296   0.739   4.789
 1934WAT     H1 6044   1.303   0.642   4.764
 1934WAT     H2 6045   1.386   0.774   4.815
 1935WAT      O 6046   6.022   6.589   6.319
 1935WAT     H1 6047   5.965   6.571   6.400
 1935WAT     H2 6048   5.964   6.603   6.240
 1936WAT      O 6049   0.337   3.109   8.632
 1936WAT     H1 6050   0.332   3.162   8.716
 1936WAT     H2 6051   0.429   3.119   8.592
 1937WAT      O 6052   8.643   1.559   5.424
 1937WAT     H1 6053   8.737   1.560   5.390
 1937WAT     H2 6054   8.634   1.489   5.494
 1938WAT      O 6055   4.985   1.678   2.732
 1938WAT     H1 6056   5.078   1.707   2.758
 1938WAT     H2 6057   4.952   1.735   2.658
 1939WAT      O 6058   1.656   7.944   2.050
 1939WAT     H1 6059   1.574   7.989   2.015
 1939WAT     H2 6060   1.678   7.980   2.141
 1940WAT      O 6061   5.628   2.765   0.206
 1940WAT     H1 6062   5.655   2.726   0.294
 1940WAT     H2 6063   5.690   2.731   0.135
 1941WAT      O 6064   4.478   3.253   9.871
 1941WAT     H1 6065   4.408   3.243   9.942
 1941WAT     H2 6066   4.436   3.292   9.789
 1942WAT      O 6067   2.849   5.862   3.537
 1942WAT     H1 6068   2.853   5.784   3.599
 1942WAT     H2 6069   2.862   5.946   3.590
 1943WAT      O 6070   3.680   7.473   7.295
 1943WAT     H1 6071   3.656   7.405   7.226
 1943WAT     H2 6072   3.668   7.434   7.386
 1944WAT      O 6073   5.898   6.760   5.723
 1944WAT     H1 6074   5.826   6.786   5.787
 1944WAT     H2 6075   5.901   6.661   5.715
 1945WAT      O 6076   2.432   4.515   7.975
 1945WAT     H1 6077   2.434   4.429   7.925
 1945WAT     H2 6078   2.474   4.503   8.065
 1946WAT      O 6079   3.430   6.943   7.885
 1946WAT     H1 6080   3.465   7.011   7.949
 1946WAT     H2 6081   3.348   6.979   7.839
 1947WAT      O 6082   6.174   6.854   0.039
 1947WAT     H1 6083   6.220   6.833   0.126
 1947WAT     H2 6084   6.086   6.897   0.058
 1948WAT      O 6085   8.532   3.370   0.517
 1948WAT     H1 6086   8.494   3.441   0.458
 1948WAT     H2 6087   8.593   3.311   0.463
 1949WAT      O 6088   4.306   6.735   1.341
 1949WAT     H1 6089   4.391   6.748   1.392
 1949WAT     H2 6090   4.234   6.703   1.403
 1950WAT      O 6091   5.250   5.590   9.349
 1950WAT     H1 6092   5.345   5.619   9.364
 1950WAT     H2 6093   5.248   5.518   9.280
 1951WAT      O 6094   4.693   7.042   0.660
 1951WAT     H1 6095   4.681   6.950   0.698
 1951WAT     H2 6096   4.783   7.050   0.618
 1952WAT      O 6097   0.566   5.947   5.079
 1952WAT     H1 6098   0.475   5.912   5.060
 1952WAT     H2 6099   0.579   5.955   5.178
 1953WAT      O 6100   7.566   9.634   1.819
 1953WAT     H1 6101   7.540   9.703   1.886
 1953WAT     H2 6102   7.485   9.594   1.778
 1954WAT      O 6103   2.829   9.191   9.310
 1954WAT     H1 6104   2.856   9.286   9.297
 1954WAT     H2 6105   2.911   9.134   9.322
 1955WAT      O 6106   7.408   1.703   6.806
 1955WAT     H1 6107   7.404   1.673   6.711
 1955WAT     H2 6108   7.500   1.736   6.827
 1956WAT      O 6109   7.895   1.922   1.200
 1956WAT     H1 6110   7.954   1.928   1.119
 1956WAT     H2 6111   7.899   2.009   1.250
 1957WAT      O 6112   7.535   6.792   4.615
 1957WAT     H1 6113   7.618   6.743   4.590
 1957WAT     H2 6114   7.458   6.729   4.622
 1958WAT      O 6115   1.457   2.174   9.766
 1958WAT     H1 6116   1.368   2.129   9.758
 1958WAT     H2 6117   1.509   2.133   9.841
 1959WAT      O 6118   0.463   2.913   9.695
 1959WAT     H1 6119   0.545   2.890   9.747
 1959WAT     H2 6120   0.412   2.984   9.743
 1960WAT      O 6121   3.274   0.562   5.535
 1960WAT     H1 6122   3.251   0.634   5.600
 1960WAT     H2 6123   3.288   0.476   5.583
 1961WAT      O 6124   1.654   4.906   1.531
 1961WAT     H1 6125   1.649   4.943   1.438
 1961WAT     H2 6126   1.644   4.981   1.597
 1962WAT      O 6127   6.036   0.140   8.478
 1962WAT     H1 6128   5.995   0.221   8.436
 1962WAT     H2 6129   6.063   0.076   8.406
 1963WAT      O 6130   2.575   1.622   3.823
 1963WAT     H1 6131   2.582   1.611   3.723
 1963WAT     H2 6132   2.565   1.719   3.845
 1964WAT      O 6133   7.115   5.445   5.954
 1964WAT     H1 6134   7.044   5.512   5.973
 1964WAT     H2 6135   7.127   5.385   6.033
 1965WAT      O 6136   4.689   5.856   8.215
 1965WAT     H1 6137   4.715   5.830   8.308
 1965WAT     H2 6138   4.669   5.774   8.162
 1966WAT      O 6139   6.499   4.336   2.475
 1966WAT     H1 6140   6.477   4.404   2.545
 1966WAT     H2 6141   6.520   4.249   2.519
 1967WAT      O 6142   2.538   9.565   5.742
 1967WAT     H1 6143   2.630   9.598   5.762
 1967WAT     H2 6144   2.471   9.629   5.778
 1968WAT      O 6145   3.436   4.548   6.435
 1968WAT     H1 6146   3.523   4.501   6.422
 1968WAT     H2 6147   3.433   4.631   6.379
 1969WAT      O 6148   2.504   4.313   0.105
 1969WAT     H1 6149   2.477   4.372   0.030
 1969WAT     H2 6150   2.528   4.368   0.185
 1970WAT      O 6151   4.257   9.371   0.831
 1970WAT     H1 6152   4.271   9.322   0.916
 1970WAT     H2 6153   4.325   9.444   0.823
 1971WAT      O 6154   3.543   4.282   6.374
 1971WAT     H1 6155   3.519   4.191   6.341
 1971WAT     H2 6156   3.578   4.276   6.467
 1972WAT      O 6157   9.053   1.004   5.043
 1972WAT     H1 6158   9.104   1.052   4.971
 1972WAT     H2 6159   9.090   1.030   5.133
 1973WAT      O 6160   3.621   6.923   8.450
 1973WAT     H1 6161   3.553   6.869   8.401
 1973WAT     H2 6162   3.710   6.877   8.446
 1974WAT      O 6163   2.574   3.787   3.894
 1974WAT     H1 6164   2.556   3.883   3.917
 1974WAT     H2 6165   2.502   3.730   3.934
 1975WAT      O 6166   0.724   7.914   1.211
 1975WAT     H1 6167   0.789   7.846   1.246
 1975WAT     H2 6168   0.708   7.898   1.113
 1976WAT      O 6169   8.968   3.523   7.707
 1976WAT     H1 6170   8.911   3.471   7.643
 1976WAT     H2 6171   9.064   3.496   7.697
 1977WAT      O 6172   5.665   0.312   2.606
 1977WAT     H1 6173   5.695   0.257   2.528
 1977WAT     H2 6174   5.602   0.258   2.662
 1978WAT      O 6175   3.168   8.977   0.989
 1978WAT     H1 6176   3.257   8.956   1.029
 1978WAT     H2 6177   3.114   8.893   0.979
 1979WAT      O 6178   3.174   3.471   7.411
 1979WAT     H1 6179   3.190   3.557   7.460
 1979WAT     H2 6180   3.249   3.455   7.347
 1980WAT      O 6181   3.498   7.761   6.632
 1980WAT     H1 6182   3.557   7.751   6.712
 1980WAT     H2 6183   3.403   7.746   6.659
 1981WAT      O 6184   8.510   4.000   9.036
 1981WAT     H1 6185   8.453   3.981   9.116
 1981WAT     H2 6186   8.596   3.950   9.044
 1982WAT      O 6187   1.134   5.610   6.881
 1982WAT     H1 6188   1.207   5.554   6.843
 1982WAT     H2 6189   1.174   5.688   6.930
 1983WAT      O 6190   9.767   8.113   6.451
 1983WAT     H1 6191   9.801   8.195   6.495
 1983WAT     H2 6192   9.764   8.038   6.516
 1984WAT      O 6193   0.228   5.074   8.961
 1984WAT     H1 6194   0.312   5.094   8.911
 1984WAT     H2 6195   0.236   4.985   9.006
 1985WAT      O 6196   3.724   5.902   9.204
 1985WAT     H1 6197   3.814   5.867   9.229
 1985WAT     H2 6198   3.732   5.995   9.168
 1986WAT      O 6199   9.802   8.449   6.092
 1986WAT     H1 6200   9.763   8.441   6.184
 1986WAT     H2 6201   9.811   8.546   6.068
 1987WAT      O 6202   1.487   2.149   0.501
 1987WAT     H1 6203   1.539   2.198   0.430
 1987WAT     H2 6204   1.460   2.214   0.573
 1988WAT      O 6205   5.876   3.155   2.800
 1988WAT     H1 6206   5.931   3.139   2.717
 1988WAT     H2 6207   5.875   3.253   2.821
 1989WAT      O 6208   1.629   8.578   6.531
 1989WAT     H1 6209   1.610   8.550   6.625
 1989WAT     H2 6210   1.568   8.528   6.468
 1990WAT      O 6211   9.762   9.339   3.335
 1990WAT     H1 6212   9.722   9.265   3.390
 1990WAT     H2 6213   9.734   9.328   3.240
 1991WAT      O 6214   9.535   1.109   6.123
 1991WAT     H1 6215   9.621   1.111   6.073
 1991WAT     H2 6216   9.531   1.026   6.179
 1992WAT      O 6217   8.990   4.808   5.557
 1992WAT     H1 6218   8.975   4.754   5.640
 1992WAT     H2 6219   9.080   4.850   5.561
 1993WAT      O 6220   7.113   4.763   3.212
 1993WAT     H1 6221   7.160   4.694   3.157
 1993WAT     H2 6222   7.072   4.831   3.152
 1994WAT      O 6223   0.640   7.000   7.954
 1994WAT     H1 6224   0.641   7.082   7.896
 1994WAT     H2 6225   0.622   6.919   7.897
 1995WAT      O 6226   3.959   8.517   3.107
 1995WAT     H1 6227   3.975   8.606   3.151
 1995WAT     H2 6228   3.952   8.446   3.177
 1996WAT      O 6229   1.076   4.237   8.302
 1996WAT     H1 6230   1.057   4.333   8.322
 1996WAT     H2 6231   1.155   4.231   8.241
 1997WAT      O 6232   8.595   8.975   6.364
 1997WAT     H1 6233   8.495   8.968   6.366
 1997WAT     H2 6234   8.622   9.070   6.353
 1998WAT      O 6235   7.778   2.807   3.597
 1998WAT     H1 6236   7.836   2.882   3.628
 1998WAT     H2 6237   7.682   2.831   3.613
 1999WAT      O 6238   7.819   5.267   1.803
 1999WAT     H1 6239   7.738   5.321   1.825
 1999WAT     H2 6240   7.835   5.272   1.704
 2000WAT      O 6241   6.748   5.818   9.604
 2000WAT     H1 6242   6.824   5.860   9.653
 2000WAT     H2 6243   6.666   5.818   9.662
 2001WAT      O 6244   6.060   8.560   0.553
 2001WAT     H1 6245   6.153   8.562   0.517
 2001WAT     H2 6246   6.048   8.478   0.609
 2002WAT      O 6247   6.250   7.628   0.964
 2002WAT     H1 6248   6.289   7.713   0.929
 2002WAT     H2 6249   6.277   7.616   1.059
 2003WAT      O 6250   8.794   2.274   0.703
 2003WAT     H1 6251   8.779   2.218   0.785
 2003WAT     H2 6252   8.845   2.220   0.636
 2004WAT      O 6253   0.514   5.427   2.913
 2004WAT     H1 6254   0.531   5.344   2.860
 2004WAT     H2 6255   0.550   5.415   3.006
 2005WAT      O 6256   6.575   9.775   4.631
 2005WAT     H1 6257   6.490   9.807   4.673
 2005WAT     H2 6258   6.622   9.713   4.693
 2006WAT      O 6259   6.422   2.021   6.572
 2006WAT     H1 6260   6.489   2.077   6.523
 2006WAT     H2 6261   6.468   1.973   6.647
 2007WAT      O 6262   8.730   8.374   0.760
 2007WAT     H1 6263   8.697   8.347   0.850
 2007WAT     H2 6264   8.829   8.391   0.763
 2008WAT      O 6265   4.283   7.018   1.417
 2008WAT     H1 6266   4.330   6.936   1.387
 2008WAT     H2 6267   4.255   7.072   1.338
 2009WAT      O 6268   3.827   6.531   3.719
 2009WAT     H1 6269   3.915   6.546   3.674
 2009WAT     H2 6270   3.776   6.617   3.722
 2010WAT      O 6271   9.423   4.154   4.257
 2010WAT     H1 6272   9.407   4.239   4.308
 2010WAT     H2 6273   9.458   4.084   4.320
 2011WAT      O 6274   5.438   9.038   0.107
 2011WAT     H1 6275   5.522   9.028   0.053
 2011WAT     H2 6276   5.392   9.124   0.081
 2012WAT      O 6277   7.346   6.504   7.871
 2012WAT     H1 6278   7.380   6.433   7.932
 2012WAT     H2 6279   7.393   6.498   7.783
 2013WAT      O 6280   6.234   1.345   6.162
 2013WAT     H1 6281   6.136   1.364   6.173
 2013WAT     H2 6282   6.265   1.380   6.074
 2014WAT      O 6283   4.906   7.481   6.860
 2014WAT     H1 6284   4.868   7.520   6.944
 2014WAT     H2 6285   4.901   7.549   6.787
 2015WAT      O 6286   8.251   1.279   8.031
 2015WAT     H1 6287   8.194   1.210   7.987
 2015WAT     H2 6288   8.344   1.242   8.043
 2016WAT      O 6289   9.843   4.784   7.913
 2016WAT     H1 6290   9.919   4.838   7.947
 2016WAT     H2 6291   9.803   4.730   7.988
 2017WAT      O 6292   3.468   0.639   2.643
 2017WAT     H1 6293   3.530   0.616   2.718
 2017WAT     H2 6294   3.374   0.640   2.676
 2018WAT      O 6295   1.197   1.789   3.144
 2018WAT     H1 6296   1.156   1.701   3.119
 2018WAT     H2 6297   1.295   1.786   3.126
 2019WAT      O 6298   7.600   8.304   8.379
 2019WAT     H1 6299   7.578   8.245   8.301
 2019WAT     H2 6300   7.523   8.304   8.443
 2020WAT      O 6301   9.227   8.057   8.446
 2020WAT     H1 6302   9.288   8.108   8.507
 2020WAT     H2 6303   9.280   8.020   8.370
 2021WAT      O 6304   9.626   7.220   8.409
 2021WAT     H1 6305   9.566   7.163   8.353
 2021WAT     H2 6306   9.711   7.172   8.426
 2022WAT      O 6307   9.306   4.107   0.224
 2022WAT     H1 6308   9.241   4.154   0.283
 2022WAT     H2 6309   9.320   4.014   0.257
 2023WAT      O 6310   0.036   2.188   2.790
 2023WAT     H1 6311   0.123   2.231   2.814
 2023WAT     H2 6312  -0.027   2.195   2.868
 2024WAT      O 6313   0.210   7.442   0.249
 2024WAT     H1 6314   0.125   7.464   0.297
 2024WAT     H2 6315   0.223   7.507   0.174
 2025WAT      O 6316   0.903   5.433   7.684
 2025WAT     H1 6317   0.897   5.335   7.665
 2025WAT     H2 6318   0.839   5.482   7.625
 2026WAT      O 6319   1.745   6.430   5.330
 2026WAT     H1 6320   1.721   6.508   5.273
 2026WAT     H2 6321   1.753   6.348   5.272
 2027WAT      O 6322   9.428   1.239   1.985
 2027WAT     H1 6323   9.527   1.254   1.990
 2027WAT     H2 6324   9.394   1.271   1.897
 2028WAT      O 6325   1.315   2.561   2.663
 2028WAT     H1 6326   1.334   2.474   2.709
 2028WAT     H2 6327   1.283   2.627   2.730
 2029WAT      O 6328   6.138   7.825   2.163
 2029WAT     H1 6329   6.196   7.750   2.195
 2029WAT     H2 6330   6.118   7.812   2.066
 2030WAT      O 6331   8.179   2.383   9.274
 2030WAT     H1 6332   8.189   2.426   9.364
 2030WAT     H2 6333   8.100   2.422   9.227
 2031WAT      O 6334   9.255   7.841   4.454
 2031WAT     H1 6335   9.176   7.901   4.460
 2031WAT     H2 6336   9.224   7.746   4.454
 2032WAT      O 6337   7.187   6.204   6.827
 2032WAT     H1 6338   7.123   6.150   6.882
 2032WAT     H2 6339   7.166   6.191   6.730
 2033WAT      O 6340   5.796   4.314   1.891
 2033WAT     H1 6341   5.862   4.365   1.946
 2033WAT     H2 6342   5.703   4.338   1.919
 2034WAT      O 6343   5.366   4.161   8.336
 2034WAT     H1 6344   5.341   4.092   8.268
 2034WAT     H2 6345   5.282   4.196   8.380
 2035WAT      O 6346   5.327   8.883   3.209
 2035WAT     H1 6347   5.274   8.845   3.133
 2035WAT     H2 6348   5.315   8.825   3.290
 2036WAT      O 6349   5.935   7.466   2.034
 2036WAT     H1 6350   5.908   7.562   2.026
 2036WAT     H2 6351   5.941   7.440   2.130
 2037WAT      O 6352   4.578   7.738   4.386
 2037WAT     H1 6353   4.483   7.730   4.355
 2037WAT     H2 6354   4.640   7.730   4.308
 2038WAT      O 6355   8.221   2.354   8.209
 2038WAT     H1 6356   8.158   2.430   8.228
 2038WAT     H2 6357   8.202   2.316   8.119
 2039WAT      O 6358   7.902   9.437   2.593
 2039WAT     H1 6359   7.916   9.520   2.539
 2039WAT     H2 6360   7.846   9.372   2.540
 2040WAT      O 6361   6.520   9.116   0.065
 2040WAT     H1 6362   6.585   9.139  -0.008
 2040WAT     H2 6363   6.563   9.133   0.154
 2041WAT      O 6364   1.290   4.774   8.476
 2041WAT     H1 6365   1.341   4.753   8.559
 2041WAT     H2 6366   1.192   4.777   8.497
 2042WAT      O 6367   1.905   4.435   6.017
 2042WAT     H1 6368   1.973   4.397   6.080
 2042WAT     H2 6369   1.828   4.472   6.068
 2043WAT      O 6370   4.762   2.854   3.482
 2043WAT     H1 6371   4.820   2.910   3.541
 2043WAT     H2 6372   4.666   2.881   3.493
 2044WAT      O 6373   0.369   1.707   0.411
 2044WAT     H1 6374   0.285   1.728   0.461
 2044WAT     H2 6375   0.346   1.653   0.329
 2045WAT      O 6376   3.352   1.857   6.206
 2045WAT     H1 6377   3.429   1.919   6.184
 2045WAT     H2 6378   3.311   1.825   6.121
 2046WAT      O 6379   1.578   6.072   7.754
 2046WAT     H1 6380   1.526   6.091   7.837
 2046WAT     H2 6381   1.665   6.121   7.758
 2047WAT      O 6382   6.559   7.129   0.577
 2047WAT     H1 6383   6.627   7.201   0.566
 2047WAT     H2 6384   6.497   7.127   0.498
 2048WAT      O 6385   5.129   0.732   8.536
 2048WAT     H1 6386   5.056   0.668   8.511
 2048WAT     H2 6387   5.171   0.769   8.453
 2049WAT      O 6388   4.166   6.790   2.867
 2049WAT     H1 6389   4.217   6.711   2.832
 2049WAT     H2 6390   4.112   6.763   2.946
 2050WAT      O 6391   5.984   4.023   5.400
 2050WAT     H1 6392   5.965   3.946   5.462
 2050WAT     H2 6393   6.000   4.106   5.454
 2051WAT      O 6394   9.738   0.671   6.572
 2051WAT     H1 6395   9.713   0.758   6.613
 2051WAT     H2 6396   9.814   0.684   6.508
 2052WAT      O 6397   7.284   3.857   5.470
 2052WAT     H1 6398   7.290   3.956   5.458
 2052WAT     H2 6399   7.204   3.821   5.423
 2053WAT      O 6400   6.837   0.034   9.479
 2053WAT     H1 6401   6.756  -0.016   9.451
 2053WAT     H2 6402   6.817   0.086   9.562
 2054WAT      O 6403   2.811   4.432   7.383
 2054WAT     H1 6404   2.835   4.523   7.351
 2054WAT     H2 6405   2.894   4.380   7.402
 2055WAT      O 6406   7.408   0.920   2.492
 2055WAT     H1 6407   7.505   0.895   2.488
 2055WAT     H2 6408   7.400   1.014   2.525
 2056WAT      O 6409   3.767   8.197   4.656
 2056WAT     H1 6410   3.673   8.168   4.669
 2056WAT     H2 6411   3.770   8.296   4.637
 2057WAT      O 6412   6.178   3.149   0.522
 2057WAT     H1 6413   6.114   3.185   0.454
 2057WAT     H2 6414   6.170   3.049   0.525
 2058WAT      O 6415   0.142   3.172   0.785
 2058WAT     H1 6416   0.077   3.245   0.806
 2058WAT     H2 6417   0.235   3.203   0.807
 2059WAT      O 6418   6.225   5.361   9.435
 2059WAT     H1 6419   6.260   5.437   9.379
 2059WAT     H2 6420   6.234   5.275   9.384
 2060WAT      O 6421   4.960   1.692   3.043
 2060WAT     H1 6422   4.871   1.711   3.000
 2060WAT     H2 6423   4.951   1.613   3.103
 2061WAT      O 6424   0.186   3.317   8.123
 2061WAT     H1 6425   0.152   3.247   8.187
 2061WAT     H2 6426   0.117   3.389   8.113
 2062WAT      O 6427   9.278   8.377   5.084
 2062WAT     H1 6428   9.246   8.425   5.002
 2062WAT     H2 6429   9.210   8.385   5.157
 2063WAT      O 6430   2.210   2.049   3.167
 2063WAT     H1 6431   2.271   2.032   3.245
 2063WAT     H2 6432   2.126   1.996   3.178
 2064WAT      O 6433   6.124   2.254   9.419
 2064WAT     H1 6434   6.049   2.190   9.438
 2064WAT     H2 6435   6.169   2.280   9.504
 2065WAT      O 6436   9.748   5.599   9.076
 2065WAT     H1 6437   9.741   5.502   9.052
 2065WAT     H2 6438   9.657   5.640   9.078
 2066WAT      O 6439   1.403   3.862   0.071
 2066WAT     H1 6440   1.403   3.811   0.157
 2066WAT     H2 6441   1.481   3.924   0.070
 2067WAT      O 6442   6.420   6.527   9.254
 2067WAT     H1 6443   6.355   6.582   9.201
 2067WAT     H2 6444   6.384   6.435   9.266
 2068WAT      O 6445   6.653   1.713   3.417
 2068WAT     H1 6446   6.566   1.666   3.426
 2068WAT     H2 6447   6.652   1.770   3.335
 2069WAT      O 6448   9.101   4.865   5.279
 2069WAT     H1 6449   9.178   4.802   5.275
 2069WAT     H2 6450   9.031   4.829   5.341
 2070WAT      O 6451   9.141   1.378   2.565
 2070WAT     H1 6452   9.101   1.386   2.656
 2070WAT     H2 6453   9.078   1.416   2.497
 2071WAT      O 6454   2.508   6.135   2.123
 2071WAT     H1 6455   2.500   6.232   2.143
 2071WAT     H2 6456   2.446   6.083   2.182
 2072WAT      O 6457   8.864   8.790   2.961
 2072WAT     H1 6458   8.907   8.709   3.003
 2072WAT     H2 6459   8.796   8.827   3.024
 2073WAT      O 6460   4.092   2.676   7.998
 2073WAT     H1 6461   4.181   2.682   8.044
 2073WAT     H2 6462   4.022   2.648   8.064
 2074WAT      O 6463   4.934   8.234   1.651
 2074WAT     H1 6464   4.916   8.295   1.575
 2074WAT     H2 6465   5.008   8.170   1.627
 2075WAT      O 6466   4.499   2.631   2.276
 2075WAT     H1 6467   4.473   2.612   2.182
 2075WAT     H2 6468   4.532   2.548   2.320
 2076WAT      O 6469   5.344   5.103   6.398
 2076WAT     H1 6470   5.275   5.172   6.377
 2076WAT     H2 6471   5.418   5.108   6.330
 2077WAT      O 6472   5.186   3.404   2.466
 2077WAT     H1 6473   5.273   3.412   2.417
 2077WAT     H2 6474   5.124   3.476   2.435
 2078WAT      O 6475   9.312   1.955   7.028
 2078WAT     H1 6476   9.369   1.927   6.951
 2078WAT     H2 6477   9.235   1.891   7.037
 2079WAT      O 6478   6.016   4.280   9.272
 2079WAT     H1 6479   5.927   4.300   9.232
 2079WAT     H2 6480   6.056   4.363   9.309
 2080WAT      O 6481   9.226   7.625   0.191
 2080WAT     H1 6482   9.306   7.632   0.132
 2080WAT     H2 6483   9.169   7.548   0.162
 2081WAT      O 6484   0.842   3.162   7.467
 2081WAT     H1 6485   0.913   3.203   7.411
 2081WAT     H2 6486   0.752   3.190   7.433
 2082WAT      O 6487   9.580   7.145   6.126
 2082WAT     H1 6488   9.501   7.086   6.138
 2082WAT     H2 6489   9.662   7.097   6.157
 2083WAT      O 6490   6.649   7.753   7.744
 2083WAT     H1 6491   6.559   7.716   7.721
 2083WAT     H2 6492   6.647   7.853   7.740
 2084WAT      O 6493   7.149   2.588   5.057
 2084WAT     H1 6494   7.181   2.639   5.137
 2084WAT     H2 6495   7.131   2.493   5.083
 2085WAT      O 6496   5.833   7.053   1.362
 2085WAT     H1 6497   5.862   7.120   1.430
 2085WAT     H2 6498   5.832   6.962   1.402
 2086WAT      O 6499   5.456   4.757   8.357
 2086WAT     H1 6500   5.464   4.710   8.269
 2086WAT     H2 6501   5.547   4.769   8.397
 2087WAT      O 6502   9.808   2.611   6.020
 2087WAT     H1 6503   9.846   2.519   6.031
 2087WAT     H2 6504   9.831   2.646   5.929
 2088WAT      O 6505   0.087   3.151   7.055
 2088WAT     H1 6506   0.152   3.183   7.124
 2088WAT     H2 6507  -0.006   3.168   7.087
 2089WAT      O 6508   1.458   2.450   0.351
 2089WAT     H1 6509   1.486   2.536   0.393
 2089WAT     H2 6510   1.491   2.446   0.257
 2090WAT      O 6511   5.179   7.481   5.002
 2090WAT     H1 6512   5.167   7.466   5.100
 2090WAT     H2 6513   5.146   7.572   4.978
 2091WAT      O 6514   7.719   5.437   8.214
 2091WAT     H1 6515   7.692   5.497   8.139
 2091WAT     H2 6516   7.727   5.343   8.181
 2092WAT      O 6517   5.354   2.438   8.587
 2092WAT     H1 6518   5.425   2.464   8.520
 2092WAT     H2 6519   5.264   2.456   8.548
 2093WAT      O 6520   0.335   9.604   1.415
 2093WAT     H1 6521   0.245   9.639   1.439
 2093WAT     H2 6522   0.357   9.525   1.472
 2094WAT      O 6523   4.530   9.386   4.556
 2094WAT     H1 6524   4.484   9.405   4.470
 2094WAT     H2 6525   4.470   9.408   4.632
 2095WAT      O 6526   4.873   4.758   2.179
 2095WAT     H1 6527   4.950   4.820   2.197
 2095WAT     H2 6528   4.901   4.690   2.112
 2096WAT      O 6529   5.713   3.679   4.926
 2096WAT     H1 6530   5.619   3.646   4.939
 2096WAT     H2 6531   5.714   3.779   4.930
 2097WAT      O 6532   5.044   2.013   3.691
 2097WAT     H1 6533   4.984   1.934   3.705
 2097WAT     H2 6534   5.001   2.077   3.628
 2098WAT      O 6535   2.885   7.579   0.754
 2098WAT     H1 6536   2.849   7.657   0.805
 2098WAT     H2 6537   2.981   7.596   0.730
 2099WAT      O 6538   2.682   0.675   7.852
 2099WAT     H1 6539   2.699   0.725   7.768
 2099WAT     H2 6540   2.584   0.653   7.859
 2100WAT      O 6541   3.397   9.514   9.877
 2100WAT     H1 6542   3.393   9.429   9.823
 2100WAT     H2 6543   3.492   9.533   9.902
 2101WAT      O 6544   5.220   6.146   7.228
 2101WAT     H1 6545   5.251   6.184   7.141
 2101WAT     H2 6546   5.256   6.201   7.304
 2102WAT      O 6547   7.861   8.851   6.276
 2102WAT     H1 6548   7.765   8.833   6.296
 2102WAT     H2 6549   7.889   8.935   6.322
 2103WAT      O 6550   6.212   2.588   5.584
 2103WAT     H1 6551   6.299   2.539   5.592
 2103WAT     H2 6552   6.188   2.627   5.672
 2104WAT      O 6553   2.358   5.918   9.629
 2104WAT     H1 6554   2.310   5.866   9.559
 2104WAT     H2 6555   2.293   5.950   9.698
 2105WAT      O 6556   9.167   1.356   7.753
 2105WAT     H1 6557   9.201   1.314   7.669
 2105WAT     H2 6558   9.182   1.294   7.830
 2106WAT      O 6559   2.097   5.978   3.424
 2106WAT     H1 6560   2.129   5.946   3.513
 2106WAT     H2 6561   1.998   5.997   3.429
 2107WAT      O 6562   6.159   5.849   1.988
 2107WAT     H1 6563   6.210   5.894   1.915
 2107WAT     H2 6564   6.075   5.901   2.006
 2108WAT      O 6565   1.207   5.547   6.264
 2108WAT     H1 6566   1.192   5.461   6.312
 2108WAT     H2 6567   1.138   5.614   6.292
 2109WAT      O 6568   6.481   3.287   9.880
 2109WAT     H1 6569   6.557   3.340   9.843
 2109WAT     H2 6570   6.460   3.211   9.818
 2110WAT      O 6571   1.314   7.329   0.463
 2110WAT     H1 6572   1.229   7.381   0.472
 2110WAT     H2 6573   1.347   7.302   0.554
 2111WAT      O 6574   2.396   4.933   9.346
 2111WAT     H1 6575   2.336   4.913   9.268
 2111WAT     H2 6576   2.486   4.963   9.313
 2112WAT      O 6577   5.238   8.443   7.620
 2112WAT     H1 6578   5.326   8.458   7.573
 2112WAT     H2 6579   5.164   8.476   7.562
 2113WAT      O 6580   2.633   7.493   6.743
 2113WAT     H1 6581   2.562   7.440   6.790
 2113WAT     H2 6582   2.656   7.448   6.657
 2114WAT      O 6583   4.233   7.829   5.567
 2114WAT     H1 6584   4.176   7.900   5.528
 2114WAT     H2 6585   4.236   7.751   5.505
 2115WAT      O 6586   6.113   2.690   0.330
 2115WAT     H1 6587   6.171   2.632   0.273
 2115WAT     H2 6588   6.047   2.738   0.271
 2116WAT      O 6589   2.394   4.473   1.003
 2116WAT     H1 6590   2.412   4.553   1.060
 2116WAT     H2 6591   2.316   4.491   0.944
 2117WAT      O 6592   5.625   5.891   6.815
 2117WAT     H1 6593   5.566   5.964   6.848
 2117WAT     H2 6594   5.638   5.824   6.888
 2118WAT      O 6595   8.240   7.264   4.101
 2118WAT     H1 6596   8.202   7.339   4.156
 2118WAT     H2 6597   8.165   7.205   4.069
 2119WAT      O 6598   3.150   4.088   5.517
 2119WAT     H1 6599   3.240   4.085   5.471
 2119WAT     H2 6600   3.081   4.051   5.455
 2120WAT      O 6601   4.825   7.189   7.253
 2120WAT     H1 6602   4.735   7.185   7.296
 2120WAT     H2 6603   4.830   7.121   7.180
 2121WAT      O 6604   5.048   6.588   3.122
 2121WAT     H1 6605   5.067   6.499   3.081
 2121WAT     H2 6606   5.099   6.596   3.208
 2122WAT      O 6607   6.577   6.639   9.442
 2122WAT     H1 6608   6.520   6.557   9.449
 2122WAT     H2 6609   6.556   6.688   9.358
 2123WAT      O 6610   5.737   4.959   1.645
 2123WAT     H1 6611   5.669   4.984   1.714
 2123WAT     H2 6612   5.829   4.969   1.683
 2124WAT      O 6613   0.714   1.042   6.842
 2124WAT     H1 6614   0.683   0.964   6.788
 2124WAT     H2 6615   0.654   1.121   6.824
 2125WAT      O 6616   7.471   2.922   2.001
 2125WAT     H1 6617   7.565   2.902   2.029
 2125WAT     H2 6618   7.472   2.983   1.922
 2126WAT      O 6619   7.371   2.800   1.658
 2126WAT     H1 6620   7.459   2.773   1.696
 2126WAT     H2 6621   7.383   2.831   1.564
 2127WAT      O 6622   8.012   3.534   4.242
 2127WAT     H1 6623   8.064   3.451   4.265
 2127WAT     H2 6624   8.046   3.572   4.156
 2128WAT      O 6625   5.531   0.658   1.252
 2128WAT     H1 6626   5.505   0.562   1.240
 2128WAT     H2 6627   5.626   0.663   1.283
 2129WAT      O 6628   0.239   8.663   4.659
 2129WAT     H1 6629   0.252   8.735   4.591
 2129WAT     H2 6630   0.144   8.665   4.691
 2130WAT      O 6631   9.215   3.286   4.589
 2130WAT     H1 6632   9.294   3.233   4.557
 2130WAT     H2 6633   9.200   3.267   4.686
 2131WAT      O 6634   2.444   9.015   8.412
 2131WAT     H1 6635   2.353   9.049   8.386
 2131WAT     H2 6636   2.462   9.039   8.507
 2132WAT      O 6637   4.811   8.536   2.171
 2132WAT     H1 6638   4.778   8.555   2.264
 2132WAT     H2 6639   4.806   8.619   2.116
 2133WAT      O 6640   5.268   2.912   7.895
 2133WAT     H1 6641   5.283   2.997   7.945
 2133WAT     H2 6642   5.227   2.844   7.955
 2134WAT      O 6643   4.678   9.341   8.062
 2134WAT     H1 6644   4.698   9.318   8.157
 2134WAT     H2 6645   4.666   9.257   8.009
 2135WAT      O 6646   7.062   6.393   6.640
 2135WAT     H1 6647   7.065   6.459   6.715
 2135WAT     H2 6648   7.149   6.343   6.635
 2136WAT      O 6649   3.224   9.310   8.678
 2136WAT     H1 6650   3.153   9.266   8.625
 2136WAT     H2 6651   3.200   9.406   8.693
 2137WAT      O 6652   0.324   5.203   2.636
 2137WAT     H1 6653   0.233   5.161   2.639
 2137WAT     H2 6654   0.324   5.276   2.568
 2138WAT      O 6655   8.978   4.735   5.967
 2138WAT     H1 6656   8.964   4.826   5.927
 2138WAT     H2 6657   9.065   4.733   6.016
 2139WAT      O 6658   5.272   2.535   5.679
 2139WAT     H1 6659   5.338   2.582   5.736
 2139WAT     H2 6660   5.319   2.488   5.604
 2140WAT      O 6661   7.567   7.930   9.147
 2140WAT     H1 6662   7.481   7.895   9.185
 2140WAT     H2 6663   7.575   8.027   9.167
 2141WAT      O 6664   5.478   5.054   3.308
 2141WAT     H1 6665   5.466   4.957   3.328
 2141WAT     H2 6666   5.388   5.095   3.289
 2142WAT      O 6667   6.495   1.694   2.440
 2142WAT     H1 6668   6.528   1.775   2.392
 2142WAT     H2 6669   6.522   1.612   2.389
 2143WAT      O 6670   7.405   1.473   1.627
 2143WAT     H1 6671   7.416   1.420   1.543
 2143WAT     H2 6672   7.359   1.559   1.607
 2144WAT      O 6673   4.115   6.120   7.712
 2144WAT     H1 6674   4.092   6.183   7.637
 2144WAT     H2 6675   4.088   6.027   7.687
 2145WAT      O 6676   0.499   7.606   6.971
 2145WAT     H1 6677   0.406   7.583   7.000
 2145WAT     H2 6678   0.501   7.701   6.939
 2146WAT      O 6679   2.924   5.003   3.550
 2146WAT     H1 6680   2.992   5.073   3.572
 2146WAT     H2 6681   2.948   4.961   3.462
 2147WAT      O 6682   6.599   6.220   4.277
 2147WAT     H1 6683   6.558   6.174   4.356
 2147WAT     H2 6684   6.607   6.318   4.296
 2148WAT      O 6685   3.062   2.463   9.601
 2148WAT     H1 6686   2.983   2.511   9.563
 2148WAT     H2 6687   3.145   2.489   9.552
 2149WAT      O 6688   2.812   4.218   0.918
 2149WAT     H1 6689   2.891   4.277   0.936
 2149WAT     H2 6690   2.737   4.273   0.883
 2150WAT      O 6691   3.460   3.133   2.955
 2150WAT     H1 6692   3.431   3.228   2.956
 2150WAT     H2 6693   3.560   3.128   2.954
 2151WAT      O 6694   1.176   1.999   2.991
 2151WAT     H1 6695   1.153   1.914   3.039
 2151WAT     H2 6696   1.271   2.023   3.010
 2152WAT      O 6697   8.466   5.019   6.703
 2152WAT     H1 6698   8.551   5.006   6.753
 2152WAT     H2 6699   8.460   4.953   6.628
 2153WAT      O 6700   4.697   2.004   7.522
 2153WAT     H1 6701   4.607   1.974   7.491
 2153WAT     H2 6702   4.768   1.954   7.471
 2154WAT      O 6703   9.592   5.912   4.841
 2154WAT     H1 6704   9.584   5.864   4.754
 2154WAT     H2 6705   9.646   5.995   4.829
 2155WAT      O 6706   9.814   4.338   0.878
 2155WAT     H1 6707   9.722   4.300   0.890
 2155WAT     H2 6708   9.827   4.367   0.783
 2156WAT      O 6709   4.984   3.607   1.037
 2156WAT     H1 6710   4.928   3.656   1.103
 2156WAT     H2 6711   4.947   3.620   0.945
 2157WAT      O 6712   8.144   5.708   8.658
 2157WAT     H1 6713   8.101   5.749   8.577
 2157WAT     H2 6714   8.239   5.683   8.636
 2158WAT      O 6715   4.289   9.281   2.243
 2158WAT     H1 6716   4.190   9.289   2.258
 2158WAT     H2 6717   4.319   9.189   2.270
 2159WAT      O 6718   9.607   5.835   5.531
 2159WAT     H1 6719   9.539   5.878   5.472
 2159WAT     H2 6720   9.631   5.745   5.494
 2160WAT      O 6721   5.308   3.261   9.284
 2160WAT     H1 6722   5.229   3.289   9.230
 2160WAT     H2 6723   5.296   3.166   9.315
 2161WAT      O 6724   5.771   5.356   7.261
 2161WAT     H1 6725   5.784   5.421   7.336
 2161WAT     H2 6726   5.854   5.302   7.250
 2162WAT      O 6727   6.114   0.141   7.008
 2162WAT     H1 6728   6.032   0.143   7.064
 2162WAT     H2 6729   6.105   0.070   6.938
 2163WAT      O 6730   5.334   1.189   2.452
 2163WAT     H1 6731   5.295   1.123   2.389
 2163WAT     H2 6732   5.272   1.267   2.462
 2164WAT      O 6733   0.251   5.527   8.923
 2164WAT     H1 6734   0.194   5.521   8.841
 2164WAT     H2 6735   0.235   5.446   8.981
 2165WAT      O 6736   7.114   9.819   2.588
 2165WAT     H1 6737   7.060   9.789   2.667
 2165WAT     H2 6738   7.201   9.770   2.587
 2166WAT      O 6739   8.867   0.311   4.051
 2166WAT     H1 6740   8.945   0.335   3.993
 2166WAT     H2 6741   8.784   0.307   3.994
 2167WAT      O 6742   4.691   9.244   0.374
 2167WAT     H1 6743   4.775   9.231   0.322
 2167WAT     H2 6744   4.706   9.315   0.443
 2168WAT      O 6745   9.769   4.506   4.571
 2168WAT     H1 6746   9.822   4.522   4.655
 2168WAT     H2 6747   9.672   4.502   4.593
 2169WAT      O 6748   1.871   1.571   0.647
 2169WAT     H1 6749   1.777   1.596   0.621
 2169WAT     H2 6750   1.869   1.486   0.700
 2170WAT      O 6751   4.148   3.309   6.583
 2170WAT     H1 6752   4.110   3.352   6.501
 2170WAT     H2 6753   4.162   3.378   6.653
 2171WAT      O 6754   0.294   0.154   8.378
 2171WAT     H1 6755   0.387   0.189   8.392
 2171WAT     H2 6756   0.237   0.227   8.340
 2172WAT      O 6757   1.712   8.374   6.914
 2172WAT     H1 6758   1.727   8.423   7.000
 2172WAT     H2 6759   1.659   8.433   6.852
 2173WAT      O 6760   8.866   1.836   8.772
 2173WAT     H1 6761   8.883   1.808   8.678
 2173WAT     H2 6762   8.769   1.828   8.793
 2174WAT      O 6763   2.696   3.296   8.250
 2174WAT     H1 6764   2.734   3.238   8.178
 2174WAT     H2 6765   2.654   3.377   8.208
 2175WAT      O 6766   0.747   3.945   7.281
 2175WAT     H1 6767   0.740   3.909   7.374
 2175WAT     H2 6768   0.704   3.882   7.218
 2176WAT      O 6769   9.765   5.602   6.425
 2176WAT     H1 6770   9.812   5.619   6.339
 2176WAT     H2 6771   9.756   5.503   6.439
 2177WAT      O 6772   3.936   7.680   1.760
 2177WAT     H1 6773   3.976   7.594   1.727
 2177WAT     H2 6774   3.839   7.666   1.780
 2178WAT      O 6775   0.955   8.321   6.992
 2178WAT     H1 6776   0.923   8.254   7.060
 2178WAT     H2 6777   1.009   8.392   7.039
 2179WAT      O 6778   7.057   5.251   1.423
 2179WAT     H1 6779   7.052   5.155   1.452
 2179WAT     H2 6780   6.969   5.279   1.386
 2180WAT      O 6781   1.250   4.003   5.666
 2180WAT     H1 6782   1.335   3.964   5.629
 2180WAT     H2 6783   1.226   3.955   5.751
 2181WAT      O 6784   4.445   7.918   4.795
 2181WAT     H1 6785   4.504   7.971   4.735
 2181WAT     H2 6786   4.428   7.828   4.755
 2182WAT      O 6787   0.205   4.615   5.744
 2182WAT     H1 6788   0.135   4.553   5.779
 2182WAT     H2 6789   0.190   4.706   5.783
 2183WAT      O 6790   1.383   8.197   4.005
 2183WAT     H1 6791   1.420   8.199   3.913
 2183WAT     H2 6792   1.296   8.147   4.005
 2184WAT      O 6793   3.892   7.534   3.243
 2184WAT     H1 6794   3.846   7.622   3.230
 2184WAT     H2 6795   3.827   7.469   3.284
 2185WAT      O 6796   2.731   7.664   4.552
 2185WAT     H1 6797   2.784   7.624   4.478
 2185WAT     H2 6798   2.793   7.699   4.623
 2186WAT      O 6799   6.822   1.287   4.302
 2186WAT     H1 6800   6.842   1.258   4.208
 2186WAT     H2 6801   6.733   1.250   4.330
 2187WAT      O 6802   5.977   1.815   5.989
 2187WAT     H1 6803   5.935   1.790   6.076
 2187WAT     H2 6804   6.048   1.749   5.966
 2188WAT      O 6805   8.955   0.369   3.055
 2188WAT     H1 6806   9.014   0.380   3.134
 2188WAT     H2 6807   8.903   0.454   3.040
 2189WAT      O 6808   3.699   6.850   4.966
 2189WAT     H1 6809   3.656   6.768   5.006
 2189WAT     H2 6810   3.792   6.859   5.001
 2190WAT      O 6811   0.795   4.749   4.186
 2190WAT     H1 6812   0.753   4.778   4.100
 2190WAT     H2 6813   0.756   4.802   4.262
 2191WAT      O 6814   6.420   8.955   3.033
 2191WAT     H1 6815   6.390   9.044   3.068
 2191WAT     H2 6816   6.407   8.885   3.103
 2192WAT      O 6817   1.318   1.633   8.804
 2192WAT     H1 6818   1.236   1.623   8.748
 2192WAT     H2 6819   1.292   1.644   8.900
 2193WAT      O 6820   9.682   8.658   4.018
 2193WAT     H1 6821   9.620   8.657   3.939
 2193WAT     H2 6822   9.708   8.753   4.038
 2194WAT      O 6823   3.287   2.869   1.872
 2194WAT     H1 6824   3.211   2.806   1.856
 2194WAT     H2 6825   3.273   2.952   1.817
 2195WAT      O 6826   9.815   0.564   5.901
 2195WAT     H1 6827   9.741   0.630   5.910
 2195WAT     H2 6828   9.783   0.485   5.848
 2196WAT      O 6829   9.654   2.823   1.644
 2196WAT     H1 6830   9.622   2.741   1.692
 2196WAT     H2 6831   9.747   2.845   1.673
 2197WAT      O 6832   0.213   1.345   5.194
 2197WAT     H1 6833   0.264   1.267   5.159
 2197WAT     H2 6834   0.263   1.387   5.269
 2198WAT      O 6835   7.234   7.540   2.962
 2198WAT     H1 6836   7.175   7.494   3.029
 2198WAT     H2 6837   7.183   7.613   2.917
 2199WAT      O 6838   0.209   3.234   7.282
 2199WAT     H1 6839   0.127   3.181   7.304
 2199WAT     H2 6840   0.196   3.329   7.309
 2200WAT      O 6841   4.536   1.766   5.544
 2200WAT     H1 6842   4.487   1.684   5.573
 2200WAT     H2 6843   4.490   1.806   5.464
 2201WAT      O 6844   8.709   3.638   5.548
 2201WAT     H1 6845   8.655   3.574   5.494
 2201WAT     H2 6846   8.753   3.588   5.624
 2202WAT      O 6847   9.271   2.611   9.328
 2202WAT     H1 6848   9.335   2.687   9.327
 2202WAT     H2 6849   9.237   2.597   9.421
 2203WAT      O 6850   4.845   5.447   8.949
 2203WAT     H1 6851   4.883   5.498   8.872
 2203WAT     H2 6852   4.801   5.364   8.915
 2204WAT      O 6853   4.563   1.548   2.963
 2204WAT     H1 6854   4.635   1.592   2.909
 2204WAT     H2 6855   4.478   1.544   2.910
 2205WAT      O 6856   2.390   9.801   4.962
 2205WAT     H1 6857   2.452   9.834   4.891
 2205WAT     H2 6858   2.302   9.777   4.920
 2206WAT      O 6859   7.023   2.902   3.148
 2206WAT     H1 6860   7.053   2.829   3.087
 2206WAT     H2 6861   6.973   2.862   3.225
 2207WAT      O 6862   7.352   8.245   1.519
 2207WAT     H1 6863   7.419   8.236   1.445
 2207WAT     H2 6864   7.399   8.238   1.607
 2208WAT      O 6865   7.948   7.781   2.048
 2208WAT     H1 6866   7.946   7.859   2.110
 2208WAT     H2 6867   7.970   7.698   2.099
 2209WAT      O 6868   7.158   9.036   0.981
 2209WAT     H1 6869   7.101   9.118   0.983
 2209WAT     H2 6870   7.184   9.011   1.075
 2210WAT      O 6871   9.779   5.076   3.628
 2210WAT     H1 6872   9.794   4.980   3.653
 2210WAT     H2 6873   9.859   5.130   3.652
 2211WAT      O 6874   8.235   5.152   4.754
 2211WAT     H1 6875   8.310   5.107   4.802
 2211WAT     H2 6876   8.236   5.250   4.774
 2212WAT      O 6877   2.888   1.937   8.587
 2212WAT     H1 6878   2.799   1.896   8.565
 2212WAT     H2 6879   2.880   1.989   8.672
 2213WAT      O 6880   3.843   9.432   2.640
 2213WAT     H1 6881   3.796   9.344   2.645
 2213WAT     H2 6882   3.824   9.485   2.723
 2214WAT      O 6883   0.538   1.924   6.736
 2214WAT     H1 6884   0.442   1.952   6.743
 2214WAT     H2 6885   0.593   2.002   6.706
 2215WAT      O 6886   6.323   7.010   8.452
 2215WAT     H1 6887   6.372   7.090   8.487
 2215WAT     H2 6888   6.298   6.950   8.528
 2216WAT      O 6889   5.126   0.983   3.734
 2216WAT     H1 6890   5.108   0.885   3.736
 2216WAT     H2 6891   5.116   1.021   3.826
 2217WAT      O 6892   7.811   5.775   2.980
 2217WAT     H1 6893   7.746   5.812   3.046
 2217WAT     H2 6894   7.845   5.687   3.013
 2218WAT      O 6895   5.876   7.283   3.977
 2218WAT     H1 6896   5.788   7.275   3.929
 2218WAT     H2 6897   5.925   7.363   3.942
 2219WAT      O 6898   0.015   1.859   7.553
 2219WAT     H1 6899   0.097   1.835   7.606
 2219WAT     H2 6900  -0.037   1.777   7.533
 2220WAT      O 6901   2.482   5.527   9.215
 2220WAT     H1 6902   2.511   5.585   9.291
 2220WAT     H2 6903   2.462   5.435   9.249
 2221WAT      O 6904   5.295   5.789   4.683
 2221WAT     H1 6905   5.300   5.748   4.775
 2221WAT     H2 6906   5.384   5.778   4.638
 2222WAT      O 6907   9.259   9.417   8.629
 2222WAT     H1 6908   9.300   9.326   8.635
 2222WAT     H2 6909   9.315   9.482   8.679
 2223WAT      O 6910   3.670   0.989   0.702
 2223WAT     H1 6911   3.733   0.915   0.679
 2223WAT     H2 6912   3.576   0.956   0.695
 2224WAT      O 6913   9.436   8.168   1.659
 2224WAT     H1 6914   9.344   8.208   1.654
 2224WAT     H2 6915   9.503   8.235   1.626
 2225WAT      O 6916   0.199   5.000   4.324
 2225WAT     H1 6917   0.151   5.074   4.277
 2225WAT     H2 6918   0.193   5.014   4.423
 2226WAT      O 6919   7.307   3.340   4.252
 2226WAT     H1 6920   7.355   3.394   4.321
 2226WAT     H2 6921   7.299   3.245   4.283
 2227WAT      O 6922   6.014   1.250   1.356
 2227WAT     H1 6923   6.063   1.253   1.442
 2227WAT     H2 6924   5.926   1.297   1.365
 2228WAT      O 6925   8.965   1.742   0.647
 2228WAT     H1 6926   9.010   1.662   0.609
 2228WAT     H2 6927   9.019   1.779   0.723
 2229WAT      O 6928   5.407   8.878   4.936
 2229WAT     H1 6929   5.409   8.781   4.959
 2229WAT     H2 6930   5.441   8.891   4.843
 2230WAT      O 6931   7.220   8.457   1.616
 2230WAT     H1 6932   7.123   8.436   1.626
 2230WAT     H2 6933   7.267   8.379   1.574
 2231WAT      O 6934   2.135   8.090   8.517
 2231WAT     H1 6935   2.097   8.183   8.519
 2231WAT     H2 6936   2.216   8.087   8.577
 2232WAT      O 6937   0.846   2.548   3.296
 2232WAT     H1 6938   0.774   2.494   3.251
 2232WAT     H2 6939   0.894   2.603   3.228
 2233WAT      O 6940   5.971   1.931   0.553
 2233WAT     H1 6941   6.043   1.951   0.619
 2233WAT     H2 6942   5.992   1.845   0.506
 2234WAT      O 6943   7.448   7.973   6.135
 2234WAT     H1 6944   7.365   7.932   6.173
 2234WAT     H2 6945   7.480   8.046   6.195
 2235WAT      O 6946   2.222   6.337   5.982
 2235WAT     H1 6947   2.177   6.267   5.928
 2235WAT     H2 6948   2.161   6.415   5.994
 2236WAT      O 6949   6.636   6.936   7.781
 2236WAT     H1 6950   6.679   6.996   7.849
 2236WAT     H2 6951   6.697   6.859   7.762
 2237WAT      O 6952   3.588   1.958   6.538
 2237WAT     H1 6953   3.531   1.877   6.520
 2237WAT     H2 6954   3.609   1.963   6.635
 2238WAT      O 6955   1.023   7.705   1.093
 2238WAT     H1 6956   0.951   7.727   1.158
 2238WAT     H2 6957   1.022   7.770   1.018
 2239WAT      O 6958   2.078   9.582   0.164
 2239WAT     H1 6959   2.137   9.564   0.242
 2239WAT     H2 6960   2.066   9.681   0.153
 2240WAT      O 6961   8.662   9.542   1.848
 2240WAT     H1 6962   8.746   9.519   1.798
 2240WAT     H2 6963   8.684   9.558   1.944
 2241WAT      O 6964   5.176   6.551   3.755
 2241WAT     H1 6965   5.188   6.643   3.794
 2241WAT     H2 6966   5.091   6.511   3.789
 2242WAT      O 6967   8.461   4.628   9.633
 2242WAT     H1 6968   8.368   4.608   9.663
 2242WAT     H2 6969   8.489   4.561   9.564
 2243WAT      O 6970   1.829   0.083   8.481
 2243WAT     H1 6971   1.813   0.065   8.578
 2243WAT     H2 6972   1.927   0.089   8.464
 2244WAT      O 6973   8.678   5.946   8.188
 2244WAT     H1 6974   8.736   5.867   8.171
 2244WAT     H2 6975   8.623   5.965   8.107
 2245WAT      O 6976   0.263   0.318   8.832
 2245WAT     H1 6977   0.281   0.225   8.800
 2245WAT     H2 6978   0.181   0.319   8.889
 2246WAT      O 6979   7.263   2.831   8.662
 2246WAT     H1 6980   7.186   2.883   8.698
 2246WAT     H2 6981   7.321   2.891   8.607
 2247WAT      O 6982   4.473   1.668   3.236
 2247WAT     H1 6983   4.512   1.643   3.147
 2247WAT     H2 6984   4.375   1.646   3.236
 2248WAT      O 6985   7.231   0.070   1.799
 2248WAT     H1 6986   7.148   0.029   1.839
 2248WAT     H2 6987   7.205   0.137   1.730
 2249WAT      O 6988   0.351   8.289   4.518
 2249WAT     H1 6989   0.391   8.361   4.574
 2249WAT     H2 6990   0.361   8.312   4.421
 2250WAT      O 6991   2.475   1.262   8.206
 2250WAT     H1 6992   2.444   1.331   8.141
 2250WAT     H2 6993   2.535   1.197   8.160
 2251WAT      O 6994   7.986   2.766   4.785
 2251WAT     H1 6995   7.936   2.682   4.805
 2251WAT     H2 6996   8.067   2.771   4.844
 2252WAT      O 6997   6.168   4.132   6.101
 2252WAT     H1 6998   6.157   4.231   6.089
 2252WAT     H2 6999   6.181   4.112   6.198
 2253WAT      O 7000   9.753   8.815   4.477
 2253WAT     H1 7001   9.837   8.862   4.450
 2253WAT     H2 7002   9.745   8.729   4.427
 2254WAT      O 7003   9.003   9.132   1.910
 2254WAT     H1 7004   8.983   9.143   1.813
 2254WAT     H2 7005   9.059   9.209   1.941
 2255WAT      O 7006   4.176   8.453   4.899
 2255WAT     H1 7007   4.205   8.435   4.993
 2255WAT     H2 7008   4.080   8.481   4.898
 2256WAT      O 7009   6.798   5.324   2.942
 2256WAT     H1 7010   6.773   5.419   2.922
 2256WAT     H2 7011   6.815   5.315   3.040
 2257WAT      O 7012   7.684   8.451   3.834
 2257WAT     H1 7013   7.698   8.353   3.848
 2257WAT     H2 7014   7.712   8.501   3.916
 2258WAT      O 7015   6.853   6.935   8.648
 2258WAT     H1 7016   6.879   6.881   8.728
 2258WAT     H2 7017   6.786   6.884   8.593
 2259WAT      O 7018   3.573   8.505   0.309
 2259WAT     H1 7019   3.510   8.428   0.314
 2259WAT     H2 7020   3.580   8.548   0.398
 2260WAT      O 7021   3.065   2.519   8.170
 2260WAT     H1 7022   3.083   2.548   8.076
 2260WAT     H2 7023   3.039   2.423   8.171
 2261WAT      O 7024   4.893   9.804   3.875
 2261WAT     H1 7025   4.832   9.738   3.830
 2261WAT     H2 7026   4.977   9.757   3.905
 2262WAT      O 7027   5.033   1.992   6.111
 2262WAT     H1 7028   5.094   2.071   6.116
 2262WAT     H2 7029   5.086   1.908   6.124
 2263WAT      O 7030   7.166   6.377   3.418
 2263WAT     H1 7031   7.084   6.405   3.468
 2263WAT     H2 7032   7.173   6.277   3.418
 2264WAT      O 7033   0.953   2.947   2.502
 2264WAT     H1 7034   0.919   2.853   2.497
 2264WAT     H2 7035   1.053   2.947   2.496
 2265WAT      O 7036   6.671   8.282   5.038
 2265WAT     H1 7037   6.616   8.212   5.084
 2265WAT     H2 7038   6.611   8.356   5.007
 2266WAT      O 7039   2.418   6.293   1.481
 2266WAT     H1 7040   2.342   6.259   1.536
 2266WAT     H2 7041   2.433   6.390   1.501
 2267WAT      O 7042   1.447   9.535   2.945
 2267WAT     H1 7043   1.434   9.634   2.947
 2267WAT     H2 7044   1.544   9.514   2.933
 2268WAT      O 7045   4.987   0.996   6.405
 2268WAT     H1 7046   5.070   0.975   6.458
 2268WAT     H2 7047   4.915   0.931   6.429
 2269WAT      O 7048   7.013   2.966   8.364
 2269WAT     H1 7049   7.049   3.043   8.418
 2269WAT     H2 7050   6.918   2.985   8.339
 2270WAT      O 7051   7.250   4.694   2.252
 2270WAT     H1 7052   7.215   4.646   2.171
 2270WAT     H2 7053   7.301   4.630   2.309
 2271WAT      O 7054   5.800   1.545   2.373
 2271WAT     H1 7055   5.796   1.471   2.440
 2271WAT     H2 7056   5.887   1.540   2.323
 2272WAT      O 7057   6.087   3.587   1.056
 2272WAT     H1 7058   6.115   3.672   1.011
 2272WAT     H2 7059   6.136   3.578   1.143
 2273WAT      O 7060   3.417   5.516   4.077
 2273WAT     H1 7061   3.483   5.453   4.035
 2273WAT     H2 7062   3.342   5.534   4.013
 2274WAT      O 7063   1.191   1.807   4.921
 2274WAT     H1 7064   1.288   1.806   4.946
 2274WAT     H2 7065   1.182   1.827   4.823
 2275WAT      O 7066   3.193   4.341   6.752
 2275WAT     H1 7067   3.250   4.331   6.670
 2275WAT     H2 7068   3.122   4.271   6.751
 2276WAT      O 7069   5.725   7.683   4.559
 2276WAT     H1 7070   5.784   7.673   4.479
 2276WAT     H2 7071   5.705   7.779   4.575
 2277WAT      O 7072   5.083   7.275   9.230
 2277WAT     H1 7073   5.024   7.198   9.253
 2277WAT     H2 7074   5.054   7.356   9.281
 2278WAT      O 7075   1.805   6.330   9.362
 2278WAT     H1 7076   1.836   6.423   9.343
 2278WAT     H2 7077   1.709   6.333   9.390
 2279WAT      O 7078   7.103   0.621   2.451
 2279WAT     H1 7079   7.142   0.613   2.543
 2279WAT     H2 7080   7.033   0.552   2.438
 2280WAT      O 7081   1.000   1.774   4.100
 2280WAT     H1 7082   0.940   1.731   4.167
 2280WAT     H2 7083   1.092   1.733   4.107
 2281WAT      O 7084   4.471   7.112   5.574
 2281WAT     H1 7085   4.416   7.165   5.638
 2281WAT     H2 7086   4.562   7.097   5.612
 2282WAT      O 7087   1.781   0.363   8.539
 2282WAT     H1 7088   1.787   0.270   8.502
 2282WAT     H2 7089   1.694   0.404   8.511
 2283WAT      O 7090   3.408   5.043   7.777
 2283WAT     H1 7091   3.469   5.121   7.794
 2283WAT     H2 7092   3.313   5.073   7.782
 2284WAT      O 7093   2.987   4.179   6.577
 2284WAT     H1 7094   3.047   4.225   6.511
 2284WAT     H2 7095   2.895   4.217   6.569
 2285WAT      O 7096   2.812   7.176   3.008
 2285WAT     H1 7097   2.896   7.191   3.060
 2285WAT     H2 7098   2.794   7.255   2.950
 2286WAT      O 7099   2.532   3.351   1.442
 2286WAT     H1 7100   2.525   3.430   1.503
 2286WAT     H2 7101   2.560   3.271   1.495
 2287WAT      O 7102   4.525   4.055   7.134
 2287WAT     H1 7103   4.505   4.152   7.119
 2287WAT     H2 7104   4.574   4.043   7.220
 2288WAT      O 7105   5.940   8.665   9.428
 2288WAT     H1 7106   5.874   8.612   9.481
 2288WAT     H2 7107   5.916   8.762   9.433
 2289WAT      O 7108   5.929   9.540   0.682
 2289WAT     H1 7109   5.897   9.623   0.726
 2289WAT     H2 7110   6.002   9.499   0.738
 2290WAT      O 7111   7.247   9.107   6.283
 2290WAT     H1 7112   7.336   9.145   6.261
 2290WAT     H2 7113   7.206   9.068   6.200
 2291WAT      O 7114   5.747   3.288   3.518
 2291WAT     H1 7115   5.767   3.190   3.527
 2291WAT     H2 7116   5.653   3.306   3.547
 2292WAT      O 7117   1.581   4.480   2.288
 2292WAT     H1 7118   1.662   4.424   2.309
 2292WAT     H2 7119   1.567   4.547   2.361
 2293WAT      O 7120   7.907   2.160   1.341
 2293WAT     H1 7121   7.998   2.190   1.370
 2293WAT     H2 7122   7.843   2.171   1.418
 2294WAT      O 7123   6.010   5.141   1.466
 2294WAT     H1 7124   6.048   5.233   1.451
 2294WAT     H2 7125   6.063   5.074   1.416
 2295WAT      O 7126   6.547   2.953   7.706
 2295WAT     H1 7127   6.590   3.004   7.781
 2295WAT     H2 7128   6.448   2.949   7.721
 2296WAT      O 7129   0.178   4.839   1.480
 2296WAT     H1 7130   0.130   4.759   1.443
 2296WAT     H2 7131   0.112   4.911   1.501
 2297WAT      O 7132   7.619   5.897   6.335
 2297WAT     H1 7133   7.608   5.805   6.372
 2297WAT     H2 7134   7.707   5.935   6.366
 2298WAT      O 7135   9.077   2.977   7.437
 2298WAT     H1 7136   9.005   2.964   7.504
 2298WAT     H2 7137   9.047   2.941   7.348
 2299WAT      O 7138   3.602   0.070   5.379
 2299WAT     H1 7139   3.652   0.027   5.304
 2299WAT     H2 7140   3.508   0.036   5.381
 2300WAT      O 7141   9.777   4.393   1.997
 2300WAT     H1 7142   9.738   4.452   1.926
 2300WAT     H2 7143   9.857   4.345   1.960
 2301WAT      O 7144   9.822   4.619   6.262
 2301WAT     H1 7145   9.882   4.638   6.185
 2301WAT     H2 7146   9.876   4.605   6.345
 2302WAT      O 7147   1.903   4.462   3.184
 2302WAT     H1 7148   1.985   4.488   3.234
 2302WAT     H2 7149   1.868   4.375   3.221
 2303WAT      O 7150   0.340   6.547   9.624
 2303WAT     H1 7151   0.381   6.637   9.640
 2303WAT     H2 7152   0.258   6.537   9.678
 2304WAT      O 7153   9.021   6.745   1.018
 2304WAT     H1 7154   8.999   6.648   1.008
 2304WAT     H2 7155   9.061   6.779   0.933
 2305WAT      O 7156   8.506   7.203   7.547
 2305WAT     H1 7157   8.582   7.146   7.579
 2305WAT     H2 7158   8.421   7.152   7.556
 2306WAT      O 7159   2.571   8.902   7.117
 2306WAT     H1 7160   2.634   8.831   7.149
 2306WAT     H2 7161   2.516   8.935   7.193
 2307WAT      O 7162   3.021   0.525   9.805
 2307WAT     H1 7163   2.945   0.475   9.846
 2307WAT     H2 7164   3.066   0.581   9.875
 2308WAT      O 7165   2.846   8.061   2.233
 2308WAT     H1 7166   2.856   8.145   2.180
 2308WAT     H2 7167   2.760   8.016   2.209
 2309WAT      O 7168   9.432   2.745   5.767
 2309WAT     H1 7169   9.477   2.662   5.735
 2309WAT     H2 7170   9.475   2.777   5.851
 2310WAT      O 7171   2.678   5.804   0.074
 2310WAT     H1 7172   2.613   5.788  -0.001
 2310WAT     H2 7173   2.628   5.831   0.156
 2311WAT      O 7174   7.334   9.529   2.143
 2311WAT     H1 7175   7.369   9.453   2.090
 2311WAT     H2 7176   7.301   9.496   2.231
 2312WAT      O 7177   3.351   7.728   6.018
 2312WAT     H1 7178   3.325   7.645   6.066
 2312WAT     H2 7179   3.398   7.704   5.933
 2313WAT      O 7180   5.848   3.231   4.904
 2313WAT     H1 7181   5.908   3.152   4.919
 2313WAT     H2 7182   5.769   3.224   4.966
 2314WAT      O 7183   5.890   0.478   2.384
 2314WAT     H1 7184   5.830   0.400   2.401
 2314WAT     H2 7185   5.876   0.511   2.291
 2315WAT      O 7186   2.216   2.959   7.153
 2315WAT     H1 7187   2.304   2.929   7.115
 2315WAT     H2 7188   2.146   2.954   7.082
 2316WAT      O 7189   5.314   1.963   5.766
 2316WAT     H1 7190   5.259   2.039   5.733
 2316WAT     H2 7191   5.259   1.879   5.769
 2317WAT      O 7192   8.706   4.112   4.529
 2317WAT     H1 7193   8.715   4.129   4.431
 2317WAT     H2 7194   8.611   4.124   4.556
 2318WAT      O 7195   6.212   4.924   9.376
 2318WAT     H1 7196   6.223   5.012   9.329
 2318WAT     H2 7197   6.302   4.890   9.405
 2319WAT      O 7198   2.826   0.427   7.893
 2319WAT     H1 7199   2.888   0.407   7.817
 2319WAT     H2 7200   2.769   0.505   7.870
 2320WAT      O 7201   2.615   8.024   0.691
 2320WAT     H1 7202   2.604   8.016   0.592
 2320WAT     H2 7203   2.706   8.058   0.712
 2321WAT      O 7204   8.251   8.640   0.951
 2321WAT     H1 7205   8.311   8.560   0.945
 2321WAT     H2 7206   8.180   8.624   1.019
 2322WAT      O 7207   7.695   3.761   2.219
 2322WAT     H1 7208   7.709   3.843   2.274
 2322WAT     H2 7209   7.679   3.682   2.279
 2323WAT      O 7210   7.300   3.446   7.321
 2323WAT     H1 7211   7.390   3.434   7.278
 2323WAT     H2 7212   7.253   3.358   7.324
 2324WAT      O 7213   5.962   9.148   0.454
 2324WAT     H1 7214   5.981   9.153   0.552
 2324WAT     H2 7215   6.021   9.212   0.405
 2325WAT      O 7216   6.990   7.665   4.023
 2325WAT     H1 7217   7.058   7.734   3.995
 2325WAT     H2 7218   7.030   7.574   4.012
 2326WAT      O 7219   5.019   9.702   0.347
 2326WAT     H1 7220   5.030   9.605   0.326
 2326WAT     H2 7221   4.946   9.740   0.290
 2327WAT      O 7222   7.879   0.432   6.439
 2327WAT     H1 7223   7.968   0.428   6.484
 2327WAT     H2 7224   7.822   0.501   6.483
 2328WAT      O 7225   9.311   7.860   8.273
 2328WAT     H1 7226   9.269   7.886   8.186
 2328WAT     H2 7227   9.287   7.766   8.294
 2329WAT      O 7228   0.735   3.683   5.885
 2329WAT     H1 7229   0.670   3.757   5.898
 2329WAT     H2 7230   0.824   3.721   5.857
 2330WAT      O 7231   2.234   9.800   8.892
 2330WAT     H1 7232   2.227   9.899   8.881
 2330WAT     H2 7233   2.142   9.760   8.895
 2331WAT      O 7234   4.863   0.419   6.295
 2331WAT     H1 7235   4.904   0.406   6.205
 2331WAT     H2 7236   4.919   0.483   6.349
 2332WAT      O 7237   8.196   5.212   3.949
 2332WAT     H1 7238   8.275   5.165   3.988
 2332WAT     H2 7239   8.121   5.212   4.015
 2333WAT      O 7240   7.860   5.910   0.575
 2333WAT     H1 7241   7.923   5.838   0.547
 2333WAT     H2 7242   7.783   5.914   0.512
 2334WAT      O 7243   8.209   9.368   7.004
 2334WAT     H1 7244   8.237   9.392   7.097
 2334WAT     H2 7245   8.271   9.298   6.968
 2335WAT      O 7246   8.441   9.380   1.767
 2335WAT     H1 7247   8.522   9.423   1.808
 2335WAT     H2 7248   8.449   9.384   1.667
 2336WAT      O 7249   7.393   5.382   6.058
 2336WAT     H1 7250   7.400   5.315   5.984
 2336WAT     H2 7251   7.310   5.364   6.111
 2337WAT      O 7252   5.596   1.531   4.516
 2337WAT     H1 7253   5.590   1.471   4.596
 2337WAT     H2 7254   5.628   1.621   4.544
 2338WAT      O 7255   0.712   4.403   3.198
 2338WAT     H1 7256   0.779   4.342   3.239
 2338WAT     H2 7257   0.717   4.492   3.243
 2339WAT      O 7258   9.759   0.110   7.042
 2339WAT     H1 7259   9.753   0.210   7.048
 2339WAT     H2 7260   9.846   0.085   7.000
 2340WAT      O 7261   9.279   5.286   2.017
 2340WAT     H1 7262   9.194   5.236   2.032
 2340WAT     H2 7263   9.311   5.271   1.923
 2341WAT      O 7264   9.042   1.521   9.154
 2341WAT     H1 7265   9.047   1.605   9.101
 2341WAT     H2 7266   8.986   1.454   9.106
 2342WAT      O 7267   7.757   5.211   1.344
 2342WAT     H1 7268   7.776   5.113   1.346
 2342WAT     H2 7269   7.773   5.245   1.251
 2343WAT      O 7270   1.969   2.909   5.714
 2343WAT     H1 7271   1.892   2.881   5.656
 2343WAT     H2 7272   2.040   2.839   5.711
 2344WAT      O 7273   5.922   8.964   5.810
 2344WAT     H1 7274   5.905   8.908   5.729
 2344WAT     H2 7275   5.962   9.052   5.783
 2345WAT      O 7276   8.742   6.380   4.664
 2345WAT     H1 7277   8.651   6.407   4.631
 2345WAT     H2 7278   8.776   6.450   4.727
 2346WAT      O 7279   4.686   3.530   3.067
 2346WAT     H1 7280   4.727   3.444   3.038
 2346WAT     H2 7281   4.749   3.578   3.128
 2347WAT      O 7282   7.746   4.037   4.860
 2347WAT     H1 7283   7.726   3.977   4.783
 2347WAT     H2 7284   7.672   4.102   4.872
 2348WAT      O 7285   1.715   2.412   9.345
 2348WAT     H1 7286   1.715   2.435   9.442
 2348WAT     H2 7287   1.803   2.371   9.320
 2349WAT      O 7288   6.054   6.999   1.859
 2349WAT     H1 7289   6.095   7.073   1.912
 2349WAT     H2 7290   5.955   6.997   1.875
 2350WAT      O 7291   1.404   9.187   2.206
 2350WAT     H1 7292   1.399   9.128   2.125
 2350WAT     H2 7293   1.496   9.226   2.213
 2351WAT      O 7294   4.159   2.119   7.753
 2351WAT     H1 7295   4.093   2.045   7.748
 2351WAT     H2 7296   4.164   2.153   7.847
 2352WAT      O 7297   6.908   7.872   5.888
 2352WAT     H1 7298   6.889   7.903   5.794
 2352WAT     H2 7299   6.867   7.936   5.953
 2353WAT      O 7300   0.817   6.318   3.855
 2353WAT     H1 7301   0.786   6.413   3.852
 2353WAT     H2 7302   0.842   6.295   3.949
 2354WAT      O 7303   9.611   4.378   2.897
 2354WAT     H1 7304   9.703   4.345   2.917
 2354WAT     H2 7305   9.591   4.457   2.954
 2355WAT      O 7306   4.383   4.319   6.892
 2355WAT     H1 7307   4.295   4.272   6.905
 2355WAT     H2 7308   4.427   4.333   6.981
 2356WAT      O 7309   8.588   6.008   1.545
 2356WAT     H1 7310   8.534   5.994   1.462
 2356WAT     H2 7311   8.622   5.919   1.577
 2357WAT      O 7312   4.195   5.495   7.915
 2357WAT     H1 7313   4.211   5.591   7.890
 2357WAT     H2 7314   4.228   5.436   7.841
 2358WAT      O 7315   8.808   3.733   4.038
 2358WAT     H1 7316   8.815   3.637   4.064
 2358WAT     H2 7317   8.851   3.790   4.108
 2359WAT      O 7318   7.152   8.775   7.590
 2359WAT     H1 7319   7.175   8.825   7.506
 2359WAT     H2 7320   7.053   8.776   7.604
 2360WAT      O 7321   7.491   4.694   4.108
 2360WAT     H1 7322   7.515   4.733   4.019
 2360WAT     H2 7323   7.392   4.678   4.111
 2361WAT      O 7324   1.175   5.074   3.782
 2361WAT     H1 7325   1.274   5.069   3.772
 2361WAT     H2 7326   1.140   5.151   3.727
 2362WAT      O 7327   1.644   9.804   6.651
 2362WAT     H1 7328   1.728   9.787   6.599
 2362WAT     H2 7329   1.590   9.720   6.655
 2363WAT      O 7330   7.097   1.567   1.767
 2363WAT     H1 7331   7.091   1.538   1.672
 2363WAT     H2 7332   7.052   1.500   1.826
 2364WAT      O 7333   2.576   0.899   9.737
 2364WAT     H1 7334   2.603   0.971   9.673
 2364WAT     H2 7335   2.495   0.928   9.788
 2365WAT      O 7336   4.097   7.331   2.388
 2365WAT     H1 7337   4.017   7.288   2.345
 2365WAT     H2 7338   4.112   7.421   2.347
 2366WAT      O 7339   8.376   3.255   2.276
 2366WAT     H1 7340   8.388   3.354   2.278
 2366WAT     H2 7341   8.464   3.209   2.290
 2367WAT      O 7342   6.195   0.143   4.489
 2367WAT     H1 7343   6.245   0.116   4.571
 2367WAT     H2 7344   6.134   0.068   4.461
 2368WAT      O 7345   0.607   2.455   8.009
 2368WAT     H1 7346   0.591   2.549   8.040
 2368WAT     H2 7347   0.532   2.397   8.040
 2369WAT      O 7348   7.520   2.377   6.721
 2369WAT     H1 7349   7.462   2.393   6.641
 2369WAT     H2 7350   7.527   2.279   6.738
 2370WAT      O 7351   8.386   1.635   3.299
 2370WAT     H1 7352   8.385   1.689   3.215
 2370WAT     H2 7353   8.386   1.538   3.276
 2371WAT      O 7354   3.921   0.717   3.279
 2371WAT     H1 7355   3.930   0.656   3.201
 2371WAT     H2 7356   3.827   0.750   3.286
 2372WAT      O 7357   4.729   2.498   0.500
 2372WAT     H1 7358   4.721   2.453   0.589
 2372WAT     H2 7359   4.650   2.556   0.485
 2373WAT      O 7360   5.693   4.712   8.488
 2373WAT     H1 7361   5.637   4.657   8.549
 2373WAT     H2 7362   5.734   4.788   8.539
 2374WAT      O 7363   5.094   3.659   6.534
 2374WAT     H1 7364   5.138   3.730   6.479
 2374WAT     H2 7365   5.124   3.569   6.504
 2375WAT      O 7366   2.587   2.182   8.956
 2375WAT     H1 7367   2.641   2.142   9.030
 2375WAT     H2 7368   2.647   2.237   8.898
 2376WAT      O 7369   8.127   0.339   9.122
 2376WAT     H1 7370   8.149   0.433   9.096
 2376WAT     H2 7371   8.028   0.329   9.129
 2377WAT      O 7372   5.010   2.753   9.666
 2377WAT     H1 7373   4.916   2.727   9.646
 2377WAT     H2 7374   5.072   2.682   9.633
 2378WAT      O 7375   0.968   5.481   8.715
 2378WAT     H1 7376   1.059   5.445   8.693
 2378WAT     H2 7377   0.975   5.578   8.738
 2379WAT      O 7378   1.476   7.638   7.200
 2379WAT     H1 7379   1.391   7.587   7.184
 2379WAT     H2 7380   1.478   7.719   7.141
 2380WAT      O 7381   4.382   3.338   5.055
 2380WAT     H1 7382   4.314   3.372   5.120
 2380WAT     H2 7383   4.422   3.416   5.006
 2381WAT      O 7384   8.697   4.476   6.967
 2381WAT     H1 7385   8.686   4.574   6.979
 2381WAT     H2 7386   8.708   4.432   7.057
 2382WAT      O 7387   0.403   3.427   8.259
 2382WAT     H1 7388   0.312   3.422   8.216
 2382WAT     H2 7389   0.393   3.452   8.355
 2383WAT      O 7390   1.506   3.322   0.506
 2383WAT     H1 7391   1.532   3.307   0.601
 2383WAT     H2 7392   1.477   3.417   0.494
 2384WAT      O 7393   9.477   9.623   8.969
 2384WAT     H1 7394   9.471   9.563   9.050
 2384WAT     H2 7395   9.401   9.688   8.970
 2385WAT      O 7396   5.166   1.432   5.415
 2385WAT     H1 7397   5.164   1.531   5.398
 2385WAT     H2 7398   5.090   1.389   5.367
 2386WAT      O 7399   1.304   7.301   0.728
 2386WAT     H1 7400   1.356   7.309   0.813
 2386WAT     H2 7401   1.237   7.227   0.737
 2387WAT      O 7402   0.963   8.804   5.981
 2387WAT     H1 7403   0.878   8.755   5.963
 2387WAT     H2 7404   1.012   8.761   6.057
 2388WAT      O 7405   5.110   6.839   0.270
 2388WAT     H1 7406   5.018   6.815   0.238
 2388WAT     H2 7407   5.112   6.839   0.370
 2389WAT      O 7408   7.253   4.363   5.552
 2389WAT     H1 7409   7.234   4.354   5.650
 2389WAT     H2 7410   7.261   4.460   5.528
 2390WAT      O 7411   5.974   2.061   2.170
 2390WAT     H1 7412   5.953   1.983   2.229
 2390WAT     H2 7413   5.960   2.146   2.222
 2391WAT      O 7414   4.215   2.886   0.871
 2391WAT     H1 7415   4.296   2.846   0.914
 2391WAT     H2 7416   4.153   2.920   0.942
 2392WAT      O 7417   8.233   2.487   7.201
 2392WAT     H1 7418   8.158   2.466   7.262
 2392WAT     H2 7419   8.199   2.496   7.107
 2393WAT      O 7420   3.201   6.501   9.526
 2393WAT     H1 7421   3.131   6.505   9.455
 2393WAT     H2 7422   3.250   6.588   9.530
 2394WAT      O 7423   3.409   9.688   3.579
 2394WAT     H1 7424   3.426   9.662   3.484
 2394WAT     H2 7425   3.489   9.736   3.615
 2395WAT      O 7426   7.547   5.092   5.605
 2395WAT     H1 7427   7.457   5.093   5.561
 2395WAT     H2 7428   7.587   5.001   5.596
 2396WAT      O 7429   8.390   3.251   9.479
 2396WAT     H1 7430   8.307   3.220   9.524
 2396WAT     H2 7431   8.403   3.198   9.394
 2397WAT      O 7432   4.550   2.177   2.772
 2397WAT     H1 7433   4.585   2.271   2.780
 2397WAT     H2 7434   4.523   2.144   2.862
 2398WAT      O 7435   6.011   9.809   6.229
 2398WAT     H1 7436   6.084   9.770   6.173
 2398WAT     H2 7437   6.008   9.908   6.215
 2399WAT      O 7438   0.704   7.529   7.159
 2399WAT     H1 7439   0.655   7.467   7.219
 2399WAT     H2 7440   0.640   7.597   7.122
 2400WAT      O 7441   4.591   8.332   9.684
 2400WAT     H1 7442   4.568   8.429   9.683
 2400WAT     H2 7443   4.613   8.301   9.591
 2401WAT      O 7444   1.539   9.419   7.313
 2401WAT     H1 7445   1.472   9.482   7.274
 2401WAT     H2 7446   1.623   9.424   7.259
 2402WAT      O 7447   6.556   9.832   9.511
 2402WAT     H1 7448   6.472   9.813   9.461
 2402WAT     H2 7449   6.544   9.807   9.607
 2403WAT      O 7450   6.833   4.398   2.508
 2403WAT     H1 7451   6.861   4.313   2.552
 2403WAT     H2 7452   6.865   4.475   2.563
 2404WAT      O 7453   4.780   6.653   1.366
 2404WAT     H1 7454   4.850   6.635   1.434
 2404WAT     H2 7455   4.790   6.589   1.290
 2405WAT      O 7456   3.867   4.753   8.692
 2405WAT     H1 7457   3.780   4.716   8.724
 2405WAT     H2 7458   3.940   4.688   8.713
 2406WAT      O 7459   0.070   7.079   5.040
 2406WAT     H1 7460   0.138   7.024   5.088
 2406WAT     H2 7461   0.042   7.155   5.097
 2407WAT      O 7462   2.645   5.613   4.249
 2407WAT     H1 7463   2.737   5.614   4.211
 2407WAT     H2 7464   2.649   5.629   4.348
 2408WAT      O 7465   5.892   9.707   3.041
 2408WAT     H1 7466   5.856   9.614   3.049
 2408WAT     H2 7467   5.950   9.728   3.119
 2409WAT      O 7468   3.508   2.139   8.337
 2409WAT     H1 7469   3.455   2.224   8.343
 2409WAT     H2 7470   3.453   2.069   8.290
 2410WAT      O 7471   0.223   2.921   8.217
 2410WAT     H1 7472   0.149   2.898   8.154
 2410WAT     H2 7473   0.224   3.020   8.232
 2411WAT      O 7474   6.722   5.788   1.688
 2411WAT     H1 7475   6.819   5.798   1.669
 2411WAT     H2 7476   6.689   5.866   1.741
 2412WAT      O 7477   7.054   2.191   7.326
 2412WAT     H1 7478   7.024   2.157   7.237
 2412WAT     H2 7479   7.053   2.117   7.393
 2413WAT      O 7480   4.681   3.799   5.667
 2413WAT     H1 7481   4.710   3.892   5.686
 2413WAT     H2 7482   4.597   3.801   5.612
 2414WAT      O 7483   0.729   0.353   6.314
 2414WAT     H1 7484   0.649   0.356   6.374
 2414WAT     H2 7485   0.754   0.257   6.297
 2415WAT      O 7486   2.252   3.537   2.440
 2415WAT     H1 7487   2.294   3.618   2.481
 2415WAT     H2 7488   2.225   3.472   2.512
 2416WAT      O 7489   0.225   0.516   4.598
 2416WAT     H1 7490   0.188   0.601   4.561
 2416WAT     H2 7491   0.151   0.460   4.633
 2417WAT      O 7492   3.349   5.571   1.084
 2417WAT     H1 7493   3.319   5.569   0.989
 2417WAT     H2 7494   3.315   5.654   1.128
 2418WAT      O 7495   6.417   3.900   1.660
 2418WAT     H1 7496   6.357   3.931   1.734
 2418WAT     H2 7497   6.388   3.942   1.574
 2419WAT      O 7498   7.630   4.895   6.250
 2419WAT     H1 7499   7.624   4.950   6.167
 2419WAT     H2 7500   7.564   4.927   6.317
 2420WAT      O 7501   4.727   6.031   5.724
 2420WAT     H1 7502   4.696   6.112   5.774
 2420WAT     H2 7503   4.825   6.037   5.706
 2421WAT      O 7504   7.444   9.170   4.343
 2421WAT     H1 7505   7.364   9.231   4.346
 2421WAT     H2 7506   7.506   9.200   4.271
 2422WAT      O 7507   4.424   7.502   8.646
 2422WAT     H1 7508   4.426   7.412   8.603
 2422WAT     H2 7509   4.432   7.492   8.745
 2423WAT      O 7510   7.850   0.517   4.027
 2423WAT     H1 7511   7.821   0.570   3.947
 2423WAT     H2 7512   7.875   0.580   4.101
 2424WAT      O 7513   0.948   5.832   9.579
 2424WAT     H1 7514   1.012   5.836   9.503
 2424WAT     H2 7515   0.933   5.736   9.604
 2425WAT      O 7516   0.995   6.481   7.876
 2425WAT     H1 7517   1.048   6.432   7.807
 2425WAT     H2 7518   1.056   6.519   7.945
 2426WAT      O 7519   7.937   1.647   7.865
 2426WAT     H1 7520   7.936   1.744   7.887
 2426WAT     H2 7521   8.019   1.604   7.904
 2427WAT      O 7522   9.129   8.259   3.639
 2427WAT     H1 7523   9.057   8.324   3.615
 2427WAT     H2 7524   9.093   8.165   3.630
 2428WAT      O 7525   5.351   2.410   0.738
 2428WAT     H1 7526   5.378   2.390   0.833
 2428WAT     H2 7527   5.251   2.404   0.730
 2429WAT      O 7528   0.062   6.940   1.161
 2429WAT     H1 7529   0.033   6.981   1.074
 2429WAT     H2 7530   0.156   6.968   1.181
 2430WAT      O 7531   3.533   1.340   6.807
 2430WAT     H1 7532   3.555   1.417   6.747
 2430WAT     H2 7533   3.456   1.364   6.865
 2431WAT      O 7534   5.407   0.844   1.932
 2431WAT     H1 7535   5.458   0.927   1.954
 2431WAT     H2 7536   5.312   0.867   1.911
 2432WAT      O 7537   9.249   5.732   1.882
 2432WAT     H1 7538   9.209   5.727   1.973
 2432WAT     H2 7539   9.346   5.753   1.889
 2433WAT      O 7540   5.041   8.556   7.433
 2433WAT     H1 7541   4.996   8.644   7.449
 2433WAT     H2 7542   4.972   8.488   7.408
 2434WAT      O 7543   9.376   6.347   8.241
 2434WAT     H1 7544   9.417   6.290   8.311
 2434WAT     H2 7545   9.288   6.309   8.214
 2435WAT      O 7546   9.667   3.985   4.957
 2435WAT     H1 7547   9.750   4.002   5.011
 2435WAT     H2 7548   9.666   3.889   4.928
 2436WAT      O 7549   0.515   2.690   4.825
 2436WAT     H1 7550   0.460   2.680   4.742
 2436WAT     H2 7551   0.525   2.601   4.869
 2437WAT      O 7552   8.907   5.220   3.115
 2437WAT     H1 7553   8.846   5.152   3.075
 2437WAT     H2 7554   8.934   5.190   3.207
 2438WAT      O 7555   1.268   2.125   3.844
 2438WAT     H1 7556   1.259   2.107   3.942
 2438WAT     H2 7557   1.256   2.040   3.794
 2439WAT      O 7558   3.578   0.012   2.407
 2439WAT     H1 7559   3.534  -0.012   2.493
 2439WAT     H2 7560   3.536  -0.040   2.332
 2440WAT      O 7561   5.521   3.638   5.676
 2440WAT     H1 7562   5.566   3.728   5.678
 2440WAT     H2 7563   5.590   3.566   5.676
 2441WAT      O 7564   7.985   0.338   2.191
 2441WAT     H1 7565   7.951   0.418   2.242
 2441WAT     H2 7566   8.084   0.332   2.201
 2442WAT      O 7567   0.633   6.067   8.868
 2442WAT     H1 7568   0.567   6.133   8.832
 2442WAT     H2 7569   0.587   5.979   8.883
 2443WAT      O 7570   5.554   8.192   8.860
 2443WAT     H1 7571   5.545   8.249   8.943
 2443WAT     H2 7572   5.621   8.119   8.877
 2444WAT      O 7573   4.507   5.511   6.463
 2444WAT     H1 7574   4.586   5.569   6.482
 2444WAT     H2 7575   4.469   5.532   6.373
 2445WAT      O 7576   1.911   8.201   1.437
 2445WAT     H1 7577   1.846   8.260   1.484
 2445WAT     H2 7578   1.876   8.180   1.345
 2446WAT      O 7579   4.931   8.483   7.046
 2446WAT     H1 7580   4.840   8.522   7.030
 2446WAT     H2 7581   4.950   8.413   6.978
 2447WAT      O 7582   3.795   8.905   0.251
 2447WAT     H1 7583   3.892   8.882   0.263
 2447WAT     H2 7584   3.745   8.824   0.219
 2448WAT      O 7585   4.130   1.112   2.533
 2448WAT     H1 7586   4.205   1.117   2.466
 2448WAT     H2 7587   4.161   1.149   2.620
 2449WAT      O 7588   7.114   7.563   9.134
 2449WAT     H1 7589   7.142   7.537   9.042
 2449WAT     H2 7590   7.047   7.637   9.129
 2450WAT      O 7591   4.690   9.102   5.107
 2450WAT     H1 7592   4.666   9.143   5.019
 2450WAT     H2 7593   4.787   9.079   5.108
 2451WAT      O 7594   1.632   1.721   0.585
 2451WAT     H1 7595   1.596   1.808   0.618
 2451WAT     H2 7596   1.657   1.729   0.489
 2452WAT      O 7597   9.095   1.803   1.769
 2452WAT     H1 7598   9.068   1.851   1.852
 2452WAT     H2 7599   9.043   1.718   1.762
 2453WAT      O 7600   7.439   8.490   2.768
 2453WAT     H1 7601   7.344   8.483   2.798
 2453WAT     H2 7602   7.441   8.499   2.668
 2454WAT      O 7603   4.801   7.845   3.391
 2454WAT     H1 7604   4.785   7.749   3.370
 2454WAT     H2 7605   4.887   7.855   3.441
 2455WAT      O 7606   5.573   2.048   7.689
 2455WAT     H1 7607   5.634   1.970   7.673
 2455WAT     H2 7608   5.490   2.038   7.634
 2456WAT      O 7609   5.567   8.319   9.397
 2456WAT     H1 7610   5.603   8.369   9.319
 2456WAT     H2 7611   5.615   8.231   9.405
 2457WAT      O 7612   8.560   4.482   9.445
 2457WAT     H1 7613   8.565   4.388   9.480
 2457WAT     H2 7614   8.554   4.479   9.345
 2458WAT      O 7615   4.782   2.655   2.826
 2458WAT     H1 7616   4.877   2.683   2.815
 2458WAT     H2 7617   4.774   2.593   2.904
 2459WAT      O 7618   4.546   7.688   6.598
 2459WAT     H1 7619   4.537   7.787   6.603
 2459WAT     H2 7620   4.542   7.649   6.690
 2460WAT      O 7621   2.302   6.712   9.580
 2460WAT     H1 7622   2.390   6.676   9.549
 2460WAT     H2 7623   2.259   6.763   9.505
 2461WAT      O 7624   5.970   7.207   0.544
 2461WAT     H1 7625   5.879   7.179   0.512
 2461WAT     H2 7626   5.962   7.291   0.597
 2462WAT      O 7627   0.137   8.251   8.272
 2462WAT     H1 7628   0.060   8.235   8.334
 2462WAT     H2 7629   0.205   8.178   8.283
 2463WAT      O 7630   7.211   0.119   4.933
 2463WAT     H1 7631   7.171   0.052   4.870
 2463WAT     H2 7632   7.203   0.084   5.027
 2464WAT      O 7633   6.864   9.378   9.191
 2464WAT     H1 7634   6.930   9.449   9.167
 2464WAT     H2 7635   6.776   9.421   9.213
 2465WAT      O 7636   4.107   6.152   9.270
 2465WAT     H1 7637   4.070   6.238   9.235
 2465WAT     H2 7638   4.157   6.170   9.355
 2466WAT      O 7639   1.578   2.752   3.045
 2466WAT     H1 7640   1.564   2.807   2.962
 2466WAT     H2 7641   1.619   2.810   3.116
 2467WAT      O 7642   0.586   5.837   2.776
 2467WAT     H1 7643   0.574   5.865   2.871
 2467WAT     H2 7644   0.518   5.768   2.752
 2468WAT      O 7645   6.048   7.023   8.438
 2468WAT     H1 7646   6.037   7.070   8.526
 2468WAT     H2 7647   6.144   7.027   8.410
 2469WAT      O 7648   6.210   2.963   7.583
 2469WAT     H1 7649   6.178   3.058   7.574
 2469WAT     H2 7650   6.271   2.940   7.507
 2470WAT      O 7651   3.443   7.907   2.585
 2470WAT     H1 7652   3.532   7.863   2.598
 2470WAT     H2 7653   3.443   7.996   2.629
 2471WAT      O 7654   2.438   5.427   5.054
 2471WAT     H1 7655   2.396   5.517   5.060
 2471WAT     H2 7656   2.413   5.384   4.968
 2472WAT      O 7657   4.556   0.588   4.935
 2472WAT     H1 7658   4.465   0.617   4.966
 2472WAT     H2 7659   4.621   0.662   4.949
 2473WAT      O 7660   7.531   5.205   7.507
 2473WAT     H1 7661   7.507   5.216   7.411
 2473WAT     H2 7662   7.457   5.239   7.565
 2474WAT      O 7663   5.216   2.612   5.282
 2474WAT     H1 7664   5.301   2.664   5.278
 2474WAT     H2 7665   5.169   2.631   5.369
 2475WAT      O 7666   3.968   1.063   5.156
 2475WAT     H1 7667   3.928   1.150   5.184
 2475WAT     H2 7668   4.023   1.076   5.074
 2476WAT      O 7669   2.251   0.273   7.858
 2476WAT     H1 7670   2.234   0.179   7.886
 2476WAT     H2 7671   2.335   0.305   7.902
 2477WAT      O 7672   5.619   3.701   6.235
 2477WAT     H1 7673   5.711   3.664   6.248
 2477WAT     H2 7674   5.622   3.777   6.171
 2478WAT      O 7675   4.306   8.458   5.129
 2478WAT     H1 7676   4.384   8.521   5.129
 2478WAT     H2 7677   4.259   8.464   5.217
 2479WAT      O 7678   3.839   8.835   8.466
 2479WAT     H1 7679   3.860   8.882   8.381
 2479WAT     H2 7680   3.757   8.779   8.454
 2480WAT      O 7681   1.393   5.492   2.230
 2480WAT     H1 7682   1.482   5.534   2.209
 2480WAT     H2 7683   1.328   5.514   2.158
 2481WAT      O 7684   8.390   4.453   6.830
 2481WAT     H1 7685   8.486   4.449   6.856
 2481WAT     H2 7686   8.336   4.489   6.906
 2482WAT      O 7687   9.212   2.626   2.173
 2482WAT     H1 7688   9.166   2.582   2.095
 2482WAT     H2 7689   9.147   2.685   2.221
 2483WAT      O 7690   4.423   2.954   5.547
 2483WAT     H1 7691   4.401   3.043   5.506
 2483WAT     H2 7692   4.414   2.961   5.647
 2484WAT      O 7693   0.843   1.333   6.548
 2484WAT     H1 7694   0.925   1.391   6.549
 2484WAT     H2 7695   0.767   1.382   6.591
 2485WAT      O 7696   4.784   7.926   6.842
 2485WAT     H1 7697   4.705   7.911   6.783
 2485WAT     H2 7698   4.795   8.024   6.859
 2486WAT      O 7699   5.660   6.978   2.685
 2486WAT     H1 7700   5.572   7.012   2.719
 2486WAT     H2 7701   5.694   7.039   2.613
 2487WAT      O 7702   3.613   6.170   8.529
 2487WAT     H1 7703   3.647   6.152   8.622
 2487WAT     H2 7704   3.598   6.268   8.518
 2488WAT      O 7705   4.809   6.473   2.584
 2488WAT     H1 7706   4.855   6.556   2.553
 2488WAT     H2 7707   4.852   6.393   2.542
 2489WAT      O 7708   8.848   3.320   0.129
 2489WAT     H1 7709   8.920   3.333   0.061
 2489WAT     H2 7710   8.883   3.262   0.203
 2490WAT      O 7711   8.925   4.293   8.582
 2490WAT     H1 7712   8.993   4.360   8.613
 2490WAT     H2 7713   8.924   4.290   8.482
 2491WAT      O 7714   2.366   0.412   6.435
 2491WAT     H1 7715   2.279   0.366   6.452
 2491WAT     H2 7716   2.433   0.346   6.401
 2492WAT      O 7717   0.142   2.921   4.746
 2492WAT     H1 7718   0.091   3.001   4.777
 2492WAT     H2 7719   0.234   2.923   4.785
 2493WAT      O 7720   8.526   5.026   3.875
 2493WAT     H1 7721   8.622   5.041   3.898
 2493WAT     H2 7722   8.517   5.018   3.776
 2494WAT      O 7723   1.889   8.236   6.752
 2494WAT     H1 7724   1.947   8.166   6.795
 2494WAT     H2 7725   1.831   8.278   6.821
 2495WAT      O 7726   5.050   6.795   7.696
 2495WAT     H1 7727   5.031   6.818   7.791
 2495WAT     H2 7728   5.149   6.783   7.683
 2496WAT      O 7729   7.828   4.776   7.820
 2496WAT     H1 7730   7.836   4.677   7.811
 2496WAT     H2 7731   7.766   4.798   7.895
 2497WAT      O 7732   1.375   4.156   0.988
 2497WAT     H1 7733   1.383   4.252   0.962
 2497WAT     H2 7734   1.434   4.100   0.929
 2498WAT      O 7735   4.556   0.161   5.920
 2498WAT     H1 7736   4.513   0.216   5.848
 2498WAT     H2 7737   4.486   0.118   5.977
 2499WAT      O 7738   6.118   9.172   3.646
 2499WAT     H1 7739   6.038   9.130   3.689
 2499WAT     H2 7740   6.171   9.220   3.716
 2500WAT      O 7741   0.852   8.016   5.628
 2500WAT     H1 7742   0.869   8.108   5.593
 2500WAT     H2 7743   0.935   7.962   5.622
 2501WAT      O 7744   4.360   2.147   5.654
 2501WAT     H1 7745   4.426   2.222   5.656
 2501WAT     H2 7746   4.306   2.148   5.739
 2502WAT      O 7747   7.664   1.600   9.834
 2502WAT     H1 7748   7.653   1.586   9.932
 2502WAT     H2 7749   7.741   1.662   9.818
 2503WAT      O 7750   6.833   3.550   2.222
 2503WAT     H1 7751   6.857   3.547   2.319
 2503WAT     H2 7752   6.785   3.635   2.201
 2504WAT      O 7753   3.921   3.914   6.796
 2504WAT     H1 7754   3.902   3.849   6.870
 2504WAT     H2 7755   3.911   3.867   6.708
 2505WAT      O 7756   8.746   7.133   3.099
 2505WAT     H1 7757   8.670   7.183   3.060
 2505WAT     H2 7758   8.721   7.100   3.191
 2506WAT      O 7759   0.425   0.661   1.963
 2506WAT     H1 7760   0.485   0.597   1.915
 2506WAT     H2 7761   0.461   0.754   1.952
 2507WAT      O 7762   8.768   2.488   3.388
 2507WAT     H1 7763   8.850   2.434   3.370
 2507WAT     H2 7764   8.736   2.471   3.481
 2508WAT      O 7765   2.575   6.724   7.723
 2508WAT     H1 7766   2.570   6.629   7.753
 2508WAT     H2 7767   2.670   6.755   7.723
 2509WAT      O 7768   6.213   4.002   8.562
 2509WAT     H1 7769   6.188   4.085   8.613
 2509WAT     H2 7770   6.305   3.973   8.589
 2510WAT      O 7771   4.311   7.972   5.323
 2510WAT     H1 7772   4.305   7.873   5.334
 2510WAT     H2 7773   4.362   7.993   5.239
 2511WAT      O 7774   0.747   7.173   6.965
 2511WAT     H1 7775   0.815   7.100   6.959
 2511WAT     H2 7776   0.793   7.262   6.966
 2512WAT      O 7777   7.092   9.292   3.996
 2512WAT     H1 7778   7.171   9.295   4.057
 2512WAT     H2 7779   7.095   9.368   3.932
 2513WAT      O 7780   7.750   4.170   4.461
 2513WAT     H1 7781   7.675   4.141   4.401
 2513WAT     H2 7782   7.778   4.093   4.518
 2514WAT      O 7783   0.759   7.467   5.325
 2514WAT     H1 7784   0.764   7.551   5.379
 2514WAT     H2 7785   0.677   7.468   5.268
 2515WAT      O 7786   5.157   4.226   6.100
 2515WAT     H1 7787   5.249   4.212   6.066
 2515WAT     H2 7788   5.148   4.320   6.134
 2516WAT      O 7789   6.838   8.900   7.079
 2516WAT     H1 7790   6.784   8.867   7.156
 2516WAT     H2 7791   6.935   8.883   7.096
 2517WAT      O 7792   2.756   6.478   7.244
 2517WAT     H1 7793   2.730   6.497   7.150
 2517WAT     H2 7794   2.856   6.482   7.253
 2518WAT      O 7795   3.672   0.633   6.156
 2518WAT     H1 7796   3.584   0.658   6.196
 2518WAT     H2 7797   3.660   0.551   6.100
 2519WAT      O 7798   2.065   7.524   0.041
 2519WAT     H1 7799   2.005   7.445   0.030
 2519WAT     H2 7800   2.012   7.608   0.028
 2520WAT      O 7801   8.741   7.801   8.708
 2520WAT     H1 7802   8.683   7.840   8.636
 2520WAT     H2 7803   8.832   7.843   8.704
 2521WAT      O 7804   7.519   7.481   9.266
 2521WAT     H1 7805   7.425   7.489   9.302
 2521WAT     H2 7806   7.519   7.421   9.186
 2522WAT      O 7807   8.883   7.748   9.569
 2522WAT     H1 7808   8.977   7.769   9.542
 2522WAT     H2 7809   8.864   7.790   9.658
 2523WAT      O 7810   9.072   9.148   1.411
 2523WAT     H1 7811   9.125   9.068   1.383
 2523WAT     H2 7812   9.030   9.190   1.331
 2524WAT      O 7813   0.854   9.277   3.791
 2524WAT     H1 7814   0.944   9.287   3.748
 2524WAT     H2 7815   0.847   9.188   3.834
 2525WAT      O 7816   0.583   6.432   2.359
 2525WAT     H1 7817   0.518   6.425   2.435
 2525WAT     H2 7818   0.665   6.481   2.389
 2526WAT      O 7819   1.759   0.266   3.584
 2526WAT     H1 7820   1.717   0.242   3.496
 2526WAT     H2 7821   1.828   0.198   3.607
 2527WAT      O 7822   2.695   8.376   4.864
 2527WAT     H1 7823   2.726   8.303   4.925
 2527WAT     H2 7824   2.668   8.338   4.776
 2528WAT      O 7825   4.105   1.970   4.509
 2528WAT     H1 7826   4.060   2.047   4.465
 2528WAT     H2 7827   4.051   1.939   4.587
 2529WAT      O 7828   2.958   8.796   2.622
 2529WAT     H1 7829   3.031   8.742   2.579
 2529WAT     H2 7830   2.901   8.836   2.550
 2530WAT      O 7831   8.602   3.313   9.165
 2530WAT     H1 7832   8.661   3.251   9.216
 2530WAT     H2 7833   8.634   3.407   9.176
 2531WAT      O 7834   1.445   1.813   5.023
 2531WAT     H1 7835   1.459   1.784   5.118
 2531WAT     H2 7836   1.521   1.782   4.966
 2532WAT      O 7837   3.044   2.884   6.656
 2532WAT     H1 7838   3.036   2.859   6.559
 2532WAT     H2 7839   2.956   2.921   6.687
 2533WAT      O 7840   2.565   6.802   0.249
 2533WAT     H1 7841   2.661   6.774   0.245
 2533WAT     H2 7842   2.559   6.901   0.242
 2534WAT      O 7843   3.022   1.611   3.201
 2534WAT     H1 7844   2.968   1.688   3.235
 2534WAT     H2 7845   3.022   1.611   3.101
 2535WAT      O 7846   7.035   2.656   4.422
 2535WAT     H1 7847   7.015   2.753   4.431
 2535WAT     H2 7848   7.128   2.638   4.454
 2536WAT      O 7849   8.953   7.863   2.533
 2536WAT     H1 7850   8.875   7.835   2.589
 2536WAT     H2 7851   8.967   7.796   2.460
 2537WAT      O 7852   9.176   7.221   7.114
 2537WAT     H1 7853   9.127   7.249   7.031
 2537WAT     H2 7854   9.259   7.171   7.089
 2538WAT      O 7855   7.481   3.342   3.053
 2538WAT     H1 7856   7.467   3.248   3.022
 2538WAT     H2 7857   7.430   3.405   2.994
 2539WAT      O 7858   8.309   5.125   1.023
 2539WAT     H1 7859   8.303   5.046   1.084
 2539WAT     H2 7860   8.406   5.149   1.010
 2540WAT      O 7861   7.723   7.624   4.786
 2540WAT     H1 7862   7.685   7.592   4.873
 2540WAT     H2 7863   7.681   7.575   4.710
 2541WAT      O 7864   2.880   3.354   1.806
 2541WAT     H1 7865   2.844   3.341   1.899
 2541WAT     H2 7866   2.847   3.441   1.770
 2542WAT      O 7867   9.286   3.824   7.300
 2542WAT     H1 7868   9.351   3.851   7.370
 2542WAT     H2 7869   9.335   3.795   7.217
 2543WAT      O 7870   2.461   2.828   7.097
 2543WAT     H1 7871   2.554   2.863   7.110
 2543WAT     H2 7872   2.450   2.742   7.146
 2544WAT      O 7873   6.571   5.234   1.042
 2544WAT     H1 7874   6.569   5.282   1.130
 2544WAT     H2 7875   6.524   5.289   0.973
 2545WAT      O 7876   5.854   1.723   2.576
 2545WAT     H1 7877   5.830   1.662   2.501
 2545WAT     H2 7878   5.812   1.690   2.661
 2546WAT      O 7879   9.598   0.361   0.448
 2546WAT     H1 7880   9.657   0.285   0.422
 2546WAT     H2 7881   9.639   0.447   0.420
 2547WAT      O 7882   8.163   0.117   6.349
 2547WAT     H1 7883   8.076   0.067   6.345
 2547WAT     H2 7884   8.230   0.072   6.290
 2548WAT      O 7885   3.207   3.651   6.045
 2548WAT     H1 7886   3.244   3.558   6.051
 2548WAT     H2 7887   3.147   3.658   5.966
 2549WAT      O 7888   2.455   3.359   3.016
 2549WAT     H1 7889   2.499   3.289   3.072
 2549WAT     H2 7890   2.514   3.440   3.010
 2550WAT      O 7891   6.593   4.557   6.153
 2550WAT     H1 7892   6.498   4.590   6.157
 2550WAT     H2 7893   6.655   4.634   6.169
 2551WAT      O 7894   7.002   0.852   5.216
 2551WAT     H1 7895   7.022   0.755   5.230
 2551WAT     H2 7896   6.921   0.861   5.158
 2552WAT      O 7897   5.112   4.972   4.697
 2552WAT     H1 7898   5.183   4.990   4.629
 2552WAT     H2 7899   5.098   4.874   4.705
 2553WAT      O 7900   2.096   5.412   8.408
 2553WAT     H1 7901   2.108   5.511   8.401
 2553WAT     H2 7902   2.123   5.369   8.322
 2554WAT      O 7903   6.519   2.476   6.521
 2554WAT     H1 7904   6.505   2.525   6.607
 2554WAT     H2 7905   6.452   2.402   6.514
 2555WAT      O 7906   9.550   2.373   6.727
 2555WAT     H1 7907   9.616   2.442   6.699
 2555WAT     H2 7908   9.563   2.351   6.824
 2556WAT      O 7909   5.334   3.806   7.026
 2556WAT     H1 7910   5.397   3.761   7.089
 2556WAT     H2 7911   5.321   3.901   7.054
 2557WAT      O 7912   5.072   5.957   3.525
 2557WAT     H1 7913   5.144   5.998   3.469
 2557WAT     H2 7914   5.094   5.969   3.622
 2558WAT      O 7915   1.546   1.990   1.999
 2558WAT     H1 7916   1.579   1.907   1.954
 2558WAT     H2 7917   1.543   1.975   2.098
 2559WAT      O 7918   6.426   4.112   3.714
 2559WAT     H1 7919   6.349   4.168   3.746
 2559WAT     H2 7920   6.467   4.155   3.634
 2560WAT      O 7921   7.117   1.206   8.974
 2560WAT     H1 7922   7.080   1.143   9.042
 2560WAT     H2 7923   7.099   1.171   8.882
 2561WAT      O 7924   6.999   6.128   4.958
 2561WAT     H1 7925   6.986   6.221   4.994
 2561WAT     H2 7926   6.913   6.092   4.923
 2562WAT      O 7927   5.516   0.441   3.279
 2562WAT     H1 7928   5.483   0.411   3.189
 2562WAT     H2 7929   5.582   0.375   3.314
 2563WAT      O 7930   0.828   9.622   5.174
 2563WAT     H1 7931   0.787   9.704   5.214
 2563WAT     H2 7932   0.909   9.596   5.226
 2564WAT      O 7933   6.193   9.084   1.062
 2564WAT     H1 7934   6.220   9.086   0.966
 2564WAT     H2 7935   6.141   9.167   1.084
 2565WAT      O 7936   8.382   2.045   2.708
 2565WAT     H1 7937   8.330   1.960   2.706
 2565WAT     H2 7938   8.480   2.025   2.709
 2566WAT      O 7939   8.616   7.471   5.595
 2566WAT     H1 7940   8.653   7.403   5.532
 2566WAT     H2 7941   8.597   7.428   5.683
 2567WAT      O 7942   4.830   7.166   3.031
 2567WAT     H1 7943   4.816   7.087   3.090
 2567WAT     H2 7944   4.919   7.158   2.985
 2568WAT      O 7945   8.305   1.675   4.451
 2568WAT     H1 7946   8.241   1.607   4.417
 2568WAT     H2 7947   8.255   1.759   4.473
 2569WAT      O 7948   3.662   7.886   0.909
 2569WAT     H1 7949   3.756   7.922   0.908
 2569WAT     H2 7950   3.631   7.872   0.815
 2570WAT      O 7951   4.282   6.169   5.915
 2570WAT     H1 7952   4.236   6.167   5.826
 2570WAT     H2 7953   4.303   6.264   5.939
 2571WAT      O 7954   7.760   8.011   8.022
 2571WAT     H1 7955   7.822   7.961   7.962
 2571WAT     H2 7956   7.814   8.058   8.093
 2572WAT      O 7957   5.569   0.514   0.062
 2572WAT     H1 7958   5.595   0.518   0.159
 2572WAT     H2 7959   5.552   0.606   0.028
 2573WAT      O 7960   7.420   0.556   3.314
 2573WAT     H1 7961   7.418   0.456   3.301
 2573WAT     H2 7962   7.378   0.578   3.402
 2574WAT      O 7963   8.067   8.394   9.417
 2574WAT     H1 7964   8.086   8.315   9.476
 2574WAT     H2 7965   7.969   8.396   9.395
 2575WAT      O 7966   5.661   7.926   9.145
 2575WAT     H1 7967   5.737   7.959   9.089
 2575WAT     H2 7968   5.584   7.902   9.086
 2576WAT      O 7969   9.121   1.957   2.401
 2576WAT     H1 7970   9.038   1.924   2.357
 2576WAT     H2 7971   9.160   1.885   2.458
 2577WAT      O 7972   2.147   1.837   6.471
 2577WAT     H1 7973   2.079   1.819   6.541
 2577WAT     H2 7974   2.239   1.820   6.508
 2578WAT      O 7975   7.959   5.988   4.188
 2578WAT     H1 7976   8.049   6.030   4.180
 2578WAT     H2 7977   7.968   5.889   4.176
 2579WAT      O 7978   7.913   6.731   1.760
 2579WAT     H1 7979   7.876   6.644   1.728
 2579WAT     H2 7980   7.959   6.777   1.685
 2580WAT      O 7981   7.906   1.500   8.584
 2580WAT     H1 7982   7.957   1.543   8.658
 2580WAT     H2 7983   7.808   1.499   8.607
 2581WAT      O 7984   7.488   3.837   0.961
 2581WAT     H1 7985   7.421   3.912   0.956
 2581WAT     H2 7986   7.496   3.793   0.872
 2582WAT      O 7987   2.136   8.286   4.298
 2582WAT     H1 7988   2.037   8.270   4.289
 2582WAT     H2 7989   2.171   8.231   4.373
 2583WAT      O 7990   2.339   2.743   1.922
 2583WAT     H1 7991   2.321   2.825   1.868
 2583WAT     H2 7992   2.397   2.766   1.999
 2584WAT      O 7993   1.283   6.404   7.706
 2584WAT     H1 7994   1.338   6.474   7.752
 2584WAT     H2 7995   1.323   6.314   7.725
 2585WAT      O 7996   7.379   9.717   2.625
 2585WAT     H1 7997   7.396   9.622   2.651
 2585WAT     H2 7998   7.466   9.767   2.623
 2586WAT      O 7999   8.026   3.208   9.133
 2586WAT     H1 8000   8.053   3.291   9.182
 2586WAT     H2 8001   8.106   3.151   9.118
 2587WAT      O 8002   3.587   7.633   4.246
 2587WAT     H1 8003   3.544   7.659   4.159
 2587WAT     H2 8004   3.627   7.714   4.289
 2588WAT      O 8005   8.228   7.373   3.130
 2588WAT     H1 8006   8.220   7.294   3.069
 2588WAT     H2 8007   8.285   7.348   3.209
 2589WAT      O 8008   7.469   1.744   7.957
 2589WAT     H1 8009   7.523   1.819   7.920
 2589WAT     H2 8010   7.492   1.659   7.909
 2590WAT      O 8011   8.566   1.212   3.156
 2590WAT     H1 8012   8.550   1.117   3.185
 2590WAT     H2 8013   8.490   1.269   3.186
 2591WAT      O 8014   8.554   5.519   2.695
 2591WAT     H1 8015   8.461   5.522   2.731
 2591WAT     H2 8016   8.550   5.494   2.598
 2592WAT      O 8017   8.722   9.369   3.372
 2592WAT     H1 8018   8.732   9.300   3.444
 2592WAT     H2 8019   8.626   9.399   3.368
 2593WAT      O 8020   9.173   7.299   0.268
 2593WAT     H1 8021   9.151   7.308   0.365
 2593WAT     H2 8022   9.110   7.356   0.214
 2594WAT      O 8023   8.331   5.030   9.075
 2594WAT     H1 8024   8.366   5.116   9.037
 2594WAT     H2 8025   8.400   4.958   9.066
 2595WAT      O 8026   9.681   5.610   7.898
 2595WAT     H1 8027   9.662   5.705   7.874
 2595WAT     H2 8028   9.622   5.550   7.844
 2596WAT      O 8029   4.168   1.788   4.878
 2596WAT     H1 8030   4.100   1.809   4.808
 2596WAT     H2 8031   4.125   1.792   4.968
 2597WAT      O 8032   2.135   2.919   0.492
 2597WAT     H1 8033   2.170   2.989   0.554
 2597WAT     H2 8034   2.187   2.835   0.505
 2598WAT      O 8035   6.631   1.516   9.410
 2598WAT     H1 8036   6.617   1.603   9.458
 2598WAT     H2 8037   6.606   1.526   9.314
 2599WAT      O 8038   5.442   9.680   1.504
 2599WAT     H1 8039   5.482   9.689   1.413
 2599WAT     H2 8040   5.463   9.590   1.542
 2600WAT      O 8041   3.455   0.037   1.643
 2600WAT     H1 8042   3.504  -0.041   1.604
 2600WAT     H2 8043   3.369   0.050   1.593
 2601WAT      O 8044   2.255   9.002   6.435
 2601WAT     H1 8045   2.279   9.089   6.392
 2601WAT     H2 8046   2.276   9.006   6.532
 2602WAT      O 8047   7.639   3.827   7.033
 2602WAT     H1 8048   7.611   3.908   7.085
 2602WAT     H2 8049   7.708   3.777   7.085
 2603WAT      O 8050   1.224   1.844   0.435
 2603WAT     H1 8051   1.263   1.903   0.364
 2603WAT     H2 8052   1.144   1.797   0.399
 2604WAT      O 8053   8.965   7.025   2.541
 2604WAT     H1 8054   9.033   6.953   2.538
 2604WAT     H2 8055   8.939   7.043   2.635
 2605WAT      O 8056   0.276   3.189   6.627
 2605WAT     H1 8057   0.347   3.189   6.557
 2605WAT     H2 8058   0.224   3.275   6.623
 2606WAT      O 8059   8.552   3.030   3.509
 2606WAT     H1 8060   8.569   2.951   3.567
 2606WAT     H2 8061   8.455   3.054   3.512
 2607WAT      O 8062   9.479  -0.002   1.044
 2607WAT     H1 8063   9.569   0.030   1.016
 2607WAT     H2 8064   9.423   0.076   1.073
 2608WAT      O 8065   5.849   4.591   3.727
 2608WAT     H1 8066   5.845   4.690   3.719
 2608WAT     H2 8067   5.933   4.557   3.684
 2609WAT      O 8068   3.405   7.286   6.317
 2609WAT     H1 8069   3.329   7.302   6.380
 2609WAT     H2 8070   3.405   7.189   6.290
 2610WAT      O 8071   5.012   8.538   4.730
 2610WAT     H1 8072   5.038   8.450   4.692
 2610WAT     H2 8073   5.052   8.612   4.675
 2611WAT      O 8074   1.276   2.414   0.973
 2611WAT     H1 8075   1.368   2.384   0.997
 2611WAT     H2 8076   1.209   2.365   1.030
 2612WAT      O 8077   2.727   6.795   9.717
 2612WAT     H1 8078   2.799   6.845   9.766
 2612WAT     H2 8079   2.695   6.719   9.774
 2613WAT      O 8080   5.454   5.087   6.876
 2613WAT     H1 8081   5.444   5.122   6.783
 2613WAT     H2 8082   5.550   5.061   6.892
 2614WAT      O 8083   3.106   4.431   8.760
 2614WAT     H1 8084   3.189   4.487   8.754
 2614WAT     H2 8085   3.038   4.465   8.694
 2615WAT      O 8086   5.226   0.603   3.086
 2615WAT     H1 8087   5.143   0.564   3.048
 2615WAT     H2 8088   5.207   0.693   3.126
 2616WAT      O 8089   3.675   5.324   5.986
 2616WAT     H1 8090   3.733   5.406   5.984
 2616WAT     H2 8091   3.714   5.254   5.926
 2617WAT      O 8092   1.681   2.639   4.802
 2617WAT     H1 8093   1.599   2.592   4.836
 2617WAT     H2 8094   1.747   2.649   4.877
 2618WAT      O 8095   6.047   2.821   5.196
 2618WAT     H1 8096   6.119   2.801   5.262
 2618WAT     H2 8097   5.968   2.762   5.214
 2619WAT      O 8098   4.748   4.281   5.950
 2619WAT     H1 8099   4.805   4.295   5.869
 2619WAT     H2 8100   4.728   4.183   5.960
 2620WAT      O 8101   1.852   5.803   5.371
 2620WAT     H1 8102   1.896   5.767   5.288
 2620WAT     H2 8103   1.850   5.902   5.367
 2621WAT      O 8104   4.652   7.680   3.060
 2621WAT     H1 8105   4.721   7.737   3.016
 2621WAT     H2 8106   4.668   7.678   3.159
 2622WAT      O 8107   5.136   6.754   5.664
 2622WAT     H1 8108   5.117   6.734   5.760
 2622WAT     H2 8109   5.226   6.797   5.656
 2623WAT      O 8110   8.363   3.406   9.213
 2623WAT     H1 8111   8.450   3.362   9.192
 2623WAT     H2 8112   8.362   3.498   9.175
 2624WAT      O 8113   7.646   1.878   4.334
 2624WAT     H1 8114   7.664   1.816   4.258
 2624WAT     H2 8115   7.727   1.885   4.392
 2625WAT      O 8116   9.697   1.278   2.096
 2625WAT     H1 8117   9.734   1.187   2.076
 2625WAT     H2 8118   9.760   1.348   2.062
 2626WAT      O 8119   0.044   6.977   9.712
 2626WAT     H1 8120   0.134   6.935   9.726
 2626WAT     H2 8121  -0.002   6.931   9.636
 2627WAT      O 8122   5.205   5.516   5.557
 2627WAT     H1 8123   5.207   5.522   5.656
 2627WAT     H2 8124   5.276   5.575   5.518
 2628WAT      O 8125   9.296   6.901   2.512
 2628WAT     H1 8126   9.252   6.878   2.426
 2628WAT     H2 8127   9.340   6.821   2.551
 2629WAT      O 8128   4.095   1.718   7.180
 2629WAT     H1 8129   4.106   1.769   7.095
 2629WAT     H2 8130   4.030   1.767   7.239
 2630WAT      O 8131   9.546   7.822   0.218
 2630WAT     H1 8132   9.509   7.878   0.292
 2630WAT     H2 8133   9.563   7.879   0.138
 2631WAT      O 8134   9.374   9.212   7.602
 2631WAT     H1 8135   9.386   9.148   7.678
 2631WAT     H2 8136   9.347   9.161   7.520
 2632WAT      O 8137   2.853   3.751   3.516
 2632WAT     H1 8138   2.792   3.824   3.547
 2632WAT     H2 8139   2.881   3.768   3.422
 2633WAT      O 8140   2.583   7.875   6.167
 2633WAT     H1 8141   2.552   7.967   6.140
 2633WAT     H2 8142   2.662   7.850   6.111
 2634WAT      O 8143   1.600   3.209   3.308
 2634WAT     H1 8144   1.573   3.184   3.215
 2634WAT     H2 8145   1.523   3.251   3.355
 2635WAT      O 8146   2.364   4.956   5.590
 2635WAT     H1 8147   2.406   4.954   5.680
 2635WAT     H2 8148   2.429   4.991   5.523
 2636WAT      O 8149   7.441   7.539   0.879
 2636WAT     H1 8150   7.495   7.463   0.842
 2636WAT     H2 8151   7.436   7.531   0.979
 2637WAT      O 8152   6.679   1.145   5.246
 2637WAT     H1 8153   6.717   1.237   5.249
 2637WAT     H2 8154   6.707   1.100   5.161
 2638WAT      O 8155   1.576   6.769   3.555
 2638WAT     H1 8156   1.579   6.692   3.492
 2638WAT     H2 8157   1.488   6.816   3.546
 2639WAT      O 8158   7.287   4.533   8.442
 2639WAT     H1 8159   7.380   4.528   8.478
 2639WAT     H2 8160   7.254   4.441   8.420
 2640WAT      O 8161   0.494   5.866   5.353
 2640WAT     H1 8162   0.418   5.820   5.399
 2640WAT     H2 8163   0.545   5.921   5.419
 2641WAT      O 8164   7.078   8.748   1.824
 2641WAT     H1 8165   7.066   8.845   1.844
 2641WAT     H2 8166   7.167   8.733   1.781
 2642WAT      O 8167   7.794   3.589   6.693
 2642WAT     H1 8168   7.713   3.616   6.745
 2642WAT     H2 8169   7.768   3.519   6.625
 2643WAT      O 8170   3.639   6.669   9.708
 2643WAT     H1 8171   3.634   6.764   9.679
 2643WAT     H2 8172   3.731   6.648   9.741
 2644WAT      O 8173   1.420   0.769   5.563
 2644WAT     H1 8174   1.471   0.854   5.566
 2644WAT     H2 8175   1.378   0.752   5.653
 2645WAT      O 8176   4.547   6.887   9.812
 2645WAT     H1 8177   4.640   6.856   9.792
 2645WAT     H2 8178   4.516   6.847   9.898
 2646WAT      O 8179   3.801   2.414   4.999
 2646WAT     H1 8180   3.807   2.407   4.900
 2646WAT     H2 8181   3.705   2.411   5.027
 2647WAT      O 8182   9.677   7.617   5.243
 2647WAT     H1 8183   9.732   7.701   5.239
 2647WAT     H2 8184   9.706   7.555   5.170
 2648WAT      O 8185   1.000   3.363   1.201
 2648WAT     H1 8186   1.055   3.429   1.251
 2648WAT     H2 8187   0.931   3.411   1.147
 2649WAT      O 8188   0.923   4.206   9.199
 2649WAT     H1 8189   0.916   4.194   9.100
 2649WAT     H2 8190   0.966   4.126   9.240
 2650WAT      O 8191   9.154   1.084   1.910
 2650WAT     H1 8192   9.155   1.162   1.972
 2650WAT     H2 8193   9.073   1.028   1.928
 2651WAT      O 8194   2.696   2.535   4.409
 2651WAT     H1 8195   2.786   2.506   4.442
 2651WAT     H2 8196   2.650   2.588   4.481
 2652WAT      O 8197   6.931   1.589   4.607
 2652WAT     H1 8198   6.945   1.651   4.684
 2652WAT     H2 8199   6.972   1.628   4.524
 2653WAT      O 8200   3.282   2.166   0.803
 2653WAT     H1 8201   3.350   2.159   0.876
 2653WAT     H2 8202   3.202   2.112   0.828
 2654WAT      O 8203   1.193   5.380   8.651
 2654WAT     H1 8204   1.280   5.422   8.676
 2654WAT     H2 8205   1.210   5.308   8.583
 2655WAT      O 8206   0.078   3.339   9.627
 2655WAT     H1 8207   0.086   3.242   9.647
 2655WAT     H2 8208   0.121   3.392   9.700
 2656WAT      O 8209   6.013   3.953   7.095
 2656WAT     H1 8210   6.089   3.949   7.159
 2656WAT     H2 8211   6.044   3.989   7.007
 2657WAT      O 8212   6.382   8.333   8.098
 2657WAT     H1 8213   6.350   8.240   8.116
 2657WAT     H2 8214   6.319   8.398   8.141
 2658WAT      O 8215   2.163   0.113   5.579
 2658WAT     H1 8216   2.165   0.142   5.483
 2658WAT     H2 8217   2.244   0.150   5.625
 2659WAT      O 8218   0.343   4.020   1.436
 2659WAT     H1 8219   0.294   4.102   1.463
 2659WAT     H2 8220   0.362   4.022   1.337
 2660WAT      O 8221   6.046   1.085   6.399
 2660WAT     H1 8222   6.124   1.023   6.405
 2660WAT     H2 8223   6.011   1.087   6.306
 2661WAT      O 8224   0.909   3.316   5.067
 2661WAT     H1 8225   0.848   3.394   5.059
 2661WAT     H2 8226   0.855   3.232   5.071
 2662WAT      O 8227   0.209   6.237   1.898
 2662WAT     H1 8228   0.206   6.158   1.836
 2662WAT     H2 8229   0.224   6.320   1.845
 2663WAT      O 8230   5.206   6.098   3.070
 2663WAT     H1 8231   5.253   6.186   3.064
 2663WAT     H2 8232   5.247   6.033   3.006
 2664WAT      O 8233   5.322   4.784   7.651
 2664WAT     H1 8234   5.422   4.787   7.642
 2664WAT     H2 8235   5.299   4.737   7.736
 2665WAT      O 8236   0.126   0.401   0.473
 2665WAT     H1 8237   0.163   0.439   0.388
 2665WAT     H2 8238   0.073   0.471   0.520
 2666WAT      O 8239   7.544   8.862   0.951
 2666WAT     H1 8240   7.481   8.861   1.029
 2666WAT     H2 8241   7.561   8.768   0.921
 2667WAT      O 8242   7.196   0.354   3.796
 2667WAT     H1 8243   7.175   0.276   3.854
 2667WAT     H2 8244   7.115   0.382   3.746
 2668WAT      O 8245   9.882   1.507   5.229
 2668WAT     H1 8246   9.953   1.446   5.193
 2668WAT     H2 8247   9.806   1.511   5.165
 2669WAT      O 8248   1.670   6.313   8.019
 2669WAT     H1 8249   1.729   6.351   8.089
 2669WAT     H2 8250   1.689   6.357   7.931
 2670WAT      O 8251   6.462   8.611   3.862
 2670WAT     H1 8252   6.532   8.682   3.871
 2670WAT     H2 8253   6.505   8.527   3.829
 2671WAT      O 8254   2.260   8.479   0.263
 2671WAT     H1 8255   2.242   8.479   0.165
 2671WAT     H2 8256   2.349   8.437   0.281
 2672WAT      O 8257   0.185   7.935   8.852
 2672WAT     H1 8258   0.250   7.923   8.777
 2672WAT     H2 8259   0.153   8.030   8.853
 2673WAT      O 8260   1.997   1.677   7.531
 2673WAT     H1 8261   2.035   1.671   7.439
 2673WAT     H2 8262   1.905   1.716   7.526
 2674WAT      O 8263   2.310   0.586   2.989
 2674WAT     H1 8264   2.319   0.579   3.088
 2674WAT     H2 8265   2.216   0.565   2.962
 2675WAT      O 8266   1.597   9.344   7.581
 2675WAT     H1 8267   1.571   9.305   7.493
 2675WAT     H2 8268   1.697   9.345   7.589
 2676WAT      O 8269   3.538   7.309   5.699
 2676WAT     H1 8270   3.495   7.264   5.777
 2676WAT     H2 8271   3.472   7.317   5.625
 2677WAT      O 8272   1.154   2.020   7.268
 2677WAT     H1 8273   1.251   2.032   7.285
 2677WAT     H2 8274   1.110   1.982   7.349
 2678WAT      O 8275   7.649   5.993   7.208
 2678WAT     H1 8276   7.579   5.986   7.279
 2678WAT     H2 8277   7.624   6.064   7.143
 2679WAT      O 8278   8.846   7.309   2.714
 2679WAT     H1 8279   8.912   7.380   2.741
 2679WAT     H2 8280   8.871   7.223   2.757
 2680WAT      O 8281   8.507   6.942   3.716
 2680WAT     H1 8282   8.605   6.933   3.696
 2680WAT     H2 8283   8.494   6.955   3.814
 2681WAT      O 8284   7.447   4.941   1.911
 2681WAT     H1 8285   7.447   5.041   1.898
 2681WAT     H2 8286   7.507   4.918   1.986
 2682WAT      O 8287   0.154   9.375   4.017
 2682WAT     H1 8288   0.069   9.417   4.049
 2682WAT     H2 8289   0.230   9.437   4.033
 2683WAT      O 8290  -0.001   8.453   9.528
 2683WAT     H1 8291   0.067   8.474   9.599
 2683WAT     H2 8292   0.045   8.447   9.439
 2684WAT      O 8293   6.176   3.533   5.921
 2684WAT     H1 8294   6.208   3.474   5.847
 2684WAT     H2 8295   6.137   3.617   5.883
 2685WAT      O 8296   1.804   4.812   0.244
 2685WAT     H1 8297   1.865   4.857   0.309
 2685WAT     H2 8298   1.831   4.717   0.232
 2686WAT      O 8299   9.283   1.134   3.821
 2686WAT     H1 8300   9.344   1.083   3.761
 2686WAT     H2 8301   9.309   1.119   3.916
 2687WAT      O 8302   5.796   2.027   2.640
 2687WAT     H1 8303   5.808   1.930   2.618
 2687WAT     H2 8304   5.713   2.061   2.596
 2688WAT      O 8305   2.046   4.354   8.365
 2688WAT     H1 8306   2.086   4.329   8.278
 2688WAT     H2 8307   1.986   4.433   8.353
 2689WAT      O 8308   1.683   6.429   1.223
 2689WAT     H1 8309   1.589   6.463   1.230
 2689WAT     H2 8310   1.744   6.505   1.200
 2690WAT      O 8311   1.817   8.785   2.834
 2690WAT     H1 8312   1.848   8.767   2.740
 2690WAT     H2 8313   1.756   8.865   2.834
 2691WAT      O 8314   5.462   6.250   3.322
 2691WAT     H1 8315   5.544   6.259   3.378
 2691WAT     H2 8316   5.461   6.322   3.252
 2692WAT      O 8317   8.086   7.912   6.026
 2692WAT     H1 8318   8.001   7.860   6.032
 2692WAT     H2 8319   8.066   8.009   6.032
 2693WAT      O 8320   2.654   3.037   9.547
 2693WAT     H1 8321   2.658   2.944   9.509
 2693WAT     H2 8322   2.670   3.033   9.646
 2694WAT      O 8323   0.063   5.808   0.826
 2694WAT     H1 8324   0.087   5.829   0.921
 2694WAT     H2 8325   0.142   5.828   0.767
 2695WAT      O 8326   4.795   6.998   4.072
 2695WAT     H1 8327   4.731   7.062   4.114
 2695WAT     H2 8328   4.778   6.905   4.106
 2696WAT      O 8329   1.618   3.004   4.585
 2696WAT     H1 8330   1.691   2.938   4.600
 2696WAT     H2 8331   1.606   3.019   4.486
 2697WAT      O 8332   2.017   7.884   6.269
 2697WAT     H1 8333   2.029   7.932   6.355
 2697WAT     H2 8334   2.107   7.865   6.228
 2698WAT      O 8335   2.694   4.816   8.308
 2698WAT     H1 8336   2.651   4.751   8.371
 2698WAT     H2 8337   2.632   4.834   8.232
 2699WAT      O 8338   5.937   1.976   6.736
 2699WAT     H1 8339   5.842   1.962   6.764
 2699WAT     H2 8340   5.974   2.056   6.783
 2700WAT      O 8341   3.570   7.253   3.583
 2700WAT     H1 8342   3.591   7.249   3.680
 2700WAT     H2 8343   3.497   7.188   3.562
 2701WAT      O 8344   4.560   5.248   2.356
 2701WAT     H1 8345   4.627   5.181   2.326
 2701WAT     H2 8346   4.510   5.212   2.434
 2702WAT      O 8347   7.453   2.240   3.081
 2702WAT     H1 8348   7.424   2.165   3.141
 2702WAT     H2 8349   7.410   2.325   3.112
 2703WAT      O 8350   6.064   6.949   9.464
 2703WAT     H1 8351   6.079   6.872   9.402
 2703WAT     H2 8352   5.984   6.931   9.521
 2704WAT      O 8353   4.102   0.350   8.950
 2704WAT     H1 8354   4.096   0.319   8.855
 2704WAT     H2 8355   4.113   0.449   8.952
 2705WAT      O 8356   0.942   6.734   9.027
 2705WAT     H1 8357   0.959   6.757   9.123
 2705WAT     H2 8358   0.902   6.642   9.022
 2706WAT      O 8359   7.862   9.418   5.165
 2706WAT     H1 8360   7.893   9.325   5.183
 2706WAT     H2 8361   7.929   9.483   5.200
 2707WAT      O 8362   2.799   9.637   1.950
 2707WAT     H1 8363   2.737   9.699   1.901
 2707WAT     H2 8364   2.880   9.688   1.980
 2708WAT      O 8365   8.499   6.355   5.670
 2708WAT     H1 8366   8.588   6.401   5.671
 2708WAT     H2 8367   8.510   6.262   5.633
 2709WAT      O 8368   4.905   2.773   0.245
 2709WAT     H1 8369   4.841   2.821   0.306
 2709WAT     H2 8370   4.945   2.838   0.181
 2710WAT      O 8371   3.875   9.101   7.683
 2710WAT     H1 8372   3.797   9.104   7.746
 2710WAT     H2 8373   3.863   9.026   7.619
 2711WAT      O 8374   1.531   0.973   6.497
 2711WAT     H1 8375   1.453   0.912   6.510
 2711WAT     H2 8376   1.616   0.924   6.519
 2712WAT      O 8377   3.571   0.917   5.380
 2712WAT     H1 8378   3.578   0.968   5.466
 2712WAT     H2 8379   3.632   0.838   5.383
 2713WAT      O 8380   8.108   5.568   7.337
 2713WAT     H1 8381   8.024   5.529   7.374
 2713WAT     H2 8382   8.184   5.504   7.349
 2714WAT      O 8383   0.464   6.625   8.549
 2714WAT     H1 8384   0.392   6.565   8.583
 2714WAT     H2 8385   0.518   6.660   8.625
 2715WAT      O 8386   3.514   9.760   1.867
 2715WAT     H1 8387   3.478   9.816   1.792
 2715WAT     H2 8388   3.441   9.739   1.931
 2716WAT      O 8389   2.633   5.202   1.582
 2716WAT     H1 8390   2.699   5.270   1.550
 2716WAT     H2 8391   2.635   5.122   1.521
 2717WAT      O 8392   9.464   6.853   8.597
 2717WAT     H1 8393   9.413   6.905   8.666
 2717WAT     H2 8394   9.429   6.876   8.506
 2718WAT      O 8395   4.855   3.819   9.826
 2718WAT     H1 8396   4.925   3.801   9.895
 2718WAT     H2 8397   4.886   3.890   9.764
 2719WAT      O 8398   6.764   1.833   8.390
 2719WAT     H1 8399   6.765   1.900   8.315
 2719WAT     H2 8400   6.836   1.766   8.375
 2720WAT      O 8401   3.840   6.964   7.531
 2720WAT     H1 8402   3.909   6.948   7.602
 2720WAT     H2 8403   3.872   7.035   7.469
 2721WAT      O 8404   7.328   5.773   4.108
 2721WAT     H1 8405   7.362   5.705   4.042
 2721WAT     H2 8406   7.363   5.752   4.199
 2722WAT      O 8407   8.458   9.168   3.468
 2722WAT     H1 8408   8.451   9.179   3.567
 2722WAT     H2 8409   8.388   9.223   3.423
 2723WAT      O 8410   7.165   4.499   3.797
 2723WAT     H1 8411   7.152   4.400   3.800
 2723WAT     H2 8412   7.103   4.542   3.863
 2724WAT      O 8413   8.160   1.540   8.006
 2724WAT     H1 8414   8.240   1.598   7.993
 2724WAT     H2 8415   8.189   1.449   8.036
 2725WAT      O 8416   3.571   4.119   9.387
 2725WAT     H1 8417   3.551   4.021   9.382
 2725WAT     H2 8418   3.625   4.146   9.308
 2726WAT      O 8419   3.934   1.264   3.723
 2726WAT     H1 8420   3.907   1.190   3.784
 2726WAT     H2 8421   3.856   1.291   3.666
 2727WAT      O 8422   1.709   9.643   7.434
 2727WAT     H1 8423   1.664   9.554   7.434
 2727WAT     H2 8424   1.778   9.645   7.362
 2728WAT      O 8425   8.835   2.894   6.387
 2728WAT     H1 8426   8.906   2.899   6.457
 2728WAT     H2 8427   8.832   2.802   6.349
 2729WAT      O 8428   5.145   0.871   3.259
 2729WAT     H1 8429   5.168   0.910   3.170
 2729WAT     H2 8430   5.192   0.922   3.331
 2730WAT      O 8431   7.890   4.835   2.898
 2730WAT     H1 8432   7.887   4.838   2.998
 2730WAT     H2 8433   7.921   4.745   2.868
 2731WAT      O 8434   6.023   4.823   7.179
 2731WAT     H1 8435   6.006   4.856   7.087
 2731WAT     H2 8436   5.977   4.735   7.192
 2732WAT      O 8437   9.583   4.398   4.086
 2732WAT     H1 8438   9.650   4.354   4.146
 2732WAT     H2 8439   9.536   4.328   4.032
 2733WAT      O 8440   4.425   6.153   0.385
 2733WAT     H1 8441   4.520   6.124   0.392
 2733WAT     H2 8442   4.415   6.244   0.424
 2734WAT      O 8443   6.115   3.394   1.705
 2734WAT     H1 8444   6.085   3.387   1.610
 2734WAT     H2 8445   6.043   3.361   1.766
 2735WAT      O 8446   3.285   4.086   6.633
 2735WAT     H1 8447   3.246   4.139   6.558
 2735WAT     H2 8448   3.219   4.017   6.662
 2736WAT      O 8449   9.055   6.645   3.007
 2736WAT     H1 8450   9.155   6.644   2.993
 2736WAT     H2 8451   9.020   6.551   2.998
 2737WAT      O 8452   4.168   0.591   1.586
 2737WAT     H1 8453   4.114   0.521   1.539
 2737WAT     H2 8454   4.118   0.622   1.667
 2738WAT      O 8455   3.987   2.648   3.475
 2738WAT     H1 8456   3.914   2.633   3.409
 2738WAT     H2 8457   3.949   2.683   3.560
 2739WAT      O 8458   2.487   3.710   3.083
 2739WAT     H1 8459   2.499   3.668   3.173
 2739WAT     H2 8460   2.445   3.800   3.093
 2740WAT      O 8461   2.172   2.093   1.599
 2740WAT     H1 8462   2.109   2.164   1.568
 2740WAT     H2 8463   2.176   2.093   1.698
 2741WAT      O 8464   6.287   8.080   0.391
 2741WAT     H1 8465   6.369   8.035   0.427
 2741WAT     H2 8466   6.281   8.172   0.429
 2742WAT      O 8467   0.564   5.221   1.009
 2742WAT     H1 8468   0.626   5.299   1.017
 2742WAT     H2 8469   0.606   5.140   1.050
 2743WAT      O 8470   2.968   6.329   3.723
 2743WAT     H1 8471   2.945   6.330   3.626
 2743WAT     H2 8472   2.899   6.380   3.775
 2744WAT      O 8473   3.947   2.111   2.916
 2744WAT     H1 8474   3.880   2.048   2.956
 2744WAT     H2 8475   3.937   2.201   2.957
 2745WAT      O 8476   3.474   9.088   8.279
 2745WAT     H1 8477   3.566   9.124   8.264
 2745WAT     H2 8478   3.434   9.132   8.360
 2746WAT      O 8479   2.506   2.658   5.769
 2746WAT     H1 8480   2.529   2.613   5.855
 2746WAT     H2 8481   2.567   2.737   5.756
 2747WAT      O 8482   6.359   1.801   4.056
 2747WAT     H1 8483   6.268   1.804   4.098
 2747WAT     H2 8484   6.380   1.889   4.015
 2748WAT      O 8485   3.136   0.998   0.522
 2748WAT     H1 8486   3.055   0.959   0.479
 2748WAT     H2 8487   3.156   1.087   0.481
 2749WAT      O 8488   2.476   5.654   4.045
 2749WAT     H1 8489   2.535   5.647   4.126
 2749WAT     H2 8490   2.506   5.589   3.976
 2750WAT      O 8491   7.900   6.163   5.667
 2750WAT     H1 8492   7.963   6.100   5.714
 2750WAT     H2 8493   7.908   6.254   5.708
 2751WAT      O 8494   6.090   5.950   1.095
 2751WAT     H1 8495   5.997   5.921   1.118
 2751WAT     H2 8496   6.087   6.041   1.053
 2752WAT      O 8497   7.433   6.752   6.758
 2752WAT     H1 8498   7.464   6.735   6.664
 2752WAT     H2 8499   7.356   6.816   6.756
 2753WAT      O 8500   2.177   8.758   6.348
 2753WAT     H1 8501   2.216   8.844   6.379
 2753WAT     H2 8502   2.078   8.758   6.364
 2754WAT      O 8503   5.155   8.537   6.769
 2754WAT     H1 8504   5.254   8.549   6.778
 2754WAT     H2 8505   5.125   8.459   6.825
 2755WAT      O 8506   5.572   7.089   3.270
 2755WAT     H1 8507   5.658   7.138   3.261
 2755WAT     H2 8508   5.562   7.054   3.363
 2756WAT      O 8509   9.003   4.781   8.076
 2756WAT     H1 8510   9.036   4.829   7.994
 2756WAT     H2 8511   8.907   4.755   8.062
 2757WAT      O 8512   8.912   2.161   7.404
 2757WAT     H1 8513   8.839   2.093   7.399
 2757WAT     H2 8514   8.944   2.184   7.312
 2758WAT      O 8515   8.842   9.335   9.506
 2758WAT     H1 8516   8.847   9.241   9.538
 2758WAT     H2 8517   8.747   9.360   9.488
 2759WAT      O 8518   6.094   2.347   3.926
 2759WAT     H1 8519   6.113   2.429   3.981
 2759WAT     H2 8520   6.124   2.266   3.976
 2760WAT      O 8521   5.556   5.498   5.576
 2760WAT     H1 8522   5.492   5.560   5.529
 2760WAT     H2 8523   5.532   5.493   5.673
 2761WAT      O 8524   9.403   5.288   6.973
 2761WAT     H1 8525   9.489   5.338   6.958
 2761WAT     H2 8526   9.347   5.337   7.038
 2762WAT      O 8527   0.277   5.111   5.209
 2762WAT     H1 8528   0.257   5.014   5.197
 2762WAT     H2 8529   0.375   5.127   5.196
 2763WAT      O 8530   6.139   7.241   9.767
 2763WAT     H1 8531   6.190   7.321   9.798
 2763WAT     H2 8532   6.183   7.202   9.686
 2764WAT      O 8533   4.672   7.457   4.192
 2764WAT     H1 8534   4.724   7.471   4.277
 2764WAT     H2 8535   4.736   7.452   4.115
 2765WAT      O 8536   8.477   4.793   9.138
 2765WAT     H1 8537   8.543   4.864   9.162
 2765WAT     H2 8538   8.485   4.772   9.041
 2766WAT      O 8539   6.697   6.136   8.319
 2766WAT     H1 8540   6.704   6.161   8.222
 2766WAT     H2 8541   6.753   6.055   8.336
 2767WAT      O 8542   8.389   4.422   9.871
 2767WAT     H1 8543   8.460   4.352   9.884
 2767WAT     H2 8544   8.371   4.434   9.774
 2768WAT      O 8545   6.997   7.252   3.696
 2768WAT     H1 8546   7.040   7.336   3.728
 2768WAT     H2 8547   7.027   7.232   3.603
 2769WAT      O 8548   0.397   2.307   2.637
 2769WAT     H1 8549   0.429   2.402   2.645
 2769WAT     H2 8550   0.327   2.302   2.566
 2770WAT      O 8551   1.895   1.196   3.269
 2770WAT     H1 8552   1.857   1.274   3.319
 2770WAT     H2 8553   1.821   1.134   3.243
 2771WAT      O 8554   4.225   2.622   7.294
 2771WAT     H1 8555   4.198   2.571   7.376
 2771WAT     H2 8556   4.144   2.637   7.237
 2772WAT      O 8557   8.833   7.910   7.564
 2772WAT     H1 8558   8.794   7.866   7.645
 2772WAT     H2 8559   8.826   7.848   7.486
 2773WAT      O 8560   8.361   3.507   9.750
 2773WAT     H1 8561   8.329   3.414   9.771
 2773WAT     H2 8562   8.401   3.547   9.833
 2774WAT      O 8563   5.066   9.105   0.726
 2774WAT     H1 8564   5.095   9.011   0.744
 2774WAT     H2 8565   5.094   9.163   0.803
 2775WAT      O 8566   0.257   8.702   2.198
 2775WAT     H1 8567   0.197   8.782   2.196
 2775WAT     H2 8568   0.281   8.676   2.104
 2776WAT      O 8569   0.698   8.151   8.268
 2776WAT     H1 8570   0.692   8.093   8.186
 2776WAT     H2 8571   0.651   8.107   8.344
 2777WAT      O 8572   3.469   5.786   7.414
 2777WAT     H1 8573   3.568   5.775   7.413
 2777WAT     H2 8574   3.426   5.710   7.364
 2778WAT      O 8575   6.781   0.473   2.003
 2778WAT     H1 8576   6.750   0.380   1.982
 2778WAT     H2 8577   6.770   0.530   1.922
 2779WAT      O 8578   3.559   3.249   8.691
 2779WAT     H1 8579   3.657   3.232   8.685
 2779WAT     H2 8580   3.534   3.321   8.627
 2780WAT      O 8581   3.273   3.292   3.217
 2780WAT     H1 8582   3.188   3.280   3.269
 2780WAT     H2 8583   3.263   3.249   3.127
 2781WAT      O 8584   7.746   2.131   8.537
 2781WAT     H1 8585   7.717   2.035   8.538
 2781WAT     H2 8586   7.831   2.138   8.484
 2782WAT      O 8587   3.314   7.287   7.864
 2782WAT     H1 8588   3.323   7.254   7.958
 2782WAT     H2 8589   3.267   7.375   7.864
 2783WAT      O 8590   1.231   3.770   6.579
 2783WAT     H1 8591   1.229   3.671   6.569
 2783WAT     H2 8592   1.158   3.798   6.641
 2784WAT      O 8593   7.842   4.481   4.734
 2784WAT     H1 8594   7.883   4.417   4.800
 2784WAT     H2 8595   7.873   4.574   4.754
 2785WAT      O 8596   8.973   2.679   4.333
 2785WAT     H1 8597   8.993   2.748   4.403
 2785WAT     H2 8598   8.949   2.593   4.378
 2786WAT      O 8599   6.200   1.014   4.121
 2786WAT     H1 8600   6.274   1.029   4.186
 2786WAT     H2 8601   6.195   0.917   4.098
 2787WAT      O 8602   9.259   0.191   2.969
 2787WAT     H1 8603   9.214   0.125   2.909
 2787WAT     H2 8604   9.317   0.143   3.035
 2788WAT      O 8605   1.061   5.504   1.850
 2788WAT     H1 8606   0.979   5.480   1.902
 2788WAT     H2 8607   1.114   5.422   1.830
 2789WAT      O 8608   6.158   4.603   5.459
 2789WAT     H1 8609   6.218   4.663   5.406
 2789WAT     H2 8610   6.212   4.537   5.509
 2790WAT      O 8611   9.148   9.681   7.627
 2790WAT     H1 8612   9.147   9.582   7.640
 2790WAT     H2 8613   9.111   9.702   7.536
 2791WAT      O 8614   0.955   5.515   7.212
 2791WAT     H1 8615   0.935   5.542   7.117
 2791WAT     H2 8616   0.883   5.548   7.272
 2792WAT      O 8617   7.504   3.494   9.388
 2792WAT     H1 8618   7.492   3.405   9.343
 2792WAT     H2 8619   7.450   3.496   9.472
 2793WAT      O 8620   2.971   4.140   7.866
 2793WAT     H1 8621   2.934   4.071   7.928
 2793WAT     H2 8622   2.928   4.131   7.776
 2794WAT      O 8623   6.732   8.569   2.889
 2794WAT     H1 8624   6.731   8.471   2.867
 2794WAT     H2 8625   6.697   8.583   2.982
 2795WAT      O 8626   7.216   9.070   4.946
 2795WAT     H1 8627   7.199   9.030   4.856
 2795WAT     H2 8628   7.222   8.997   5.014
 2796WAT      O 8629   5.336   1.578   8.149
 2796WAT     H1 8630   5.421   1.527   8.166
 2796WAT     H2 8631   5.351   1.643   8.075
 2797WAT      O 8632   0.853   6.408   5.092
 2797WAT     H1 8633   0.889   6.329   5.143
 2797WAT     H2 8634   0.848   6.385   4.995
 2798WAT      O 8635   5.685   5.060   4.278
 2798WAT     H1 8636   5.656   4.980   4.331
 2798WAT     H2 8637   5.781   5.079   4.297
 2799WAT      O 8638   7.331   2.443   3.843
 2799WAT     H1 8639   7.236   2.473   3.851
 2799WAT     H2 8640   7.388   2.520   3.816
 2800WAT      O 8641   7.738   2.753   9.748
 2800WAT     H1 8642   7.696   2.673   9.791
 2800WAT     H2 8643   7.836   2.753   9.765
 2801WAT      O 8644   6.412   8.413   8.726
 2801WAT     H1 8645   6.463   8.494   8.754
 2801WAT     H2 8646   6.330   8.441   8.677
 2802WAT      O 8647   0.514   6.195   0.636
 2802WAT     H1 8648   0.541   6.125   0.702
 2802WAT     H2 8649   0.472   6.272   0.685
 2803WAT      O 8650   1.914   0.383   9.672
 2803WAT     H1 8651   1.945   0.477   9.660
 2803WAT     H2 8652   1.881   0.347   9.585
 2804WAT      O 8653   4.626   1.196   8.326
 2804WAT     H1 8654   4.610   1.108   8.370
 2804WAT     H2 8655   4.556   1.212   8.256
 2805WAT      O 8656   0.546   9.041   1.513
 2805WAT     H1 8657   0.496   9.078   1.592
 2805WAT     H2 8658   0.527   8.942   1.506
 2806WAT      O 8659   2.995   1.707   4.265
 2806WAT     H1 8660   3.078   1.754   4.294
 2806WAT     H2 8661   2.916   1.743   4.315
 2807WAT      O 8662   5.581   0.085   6.394
 2807WAT     H1 8663   5.616   0.178   6.404
 2807WAT     H2 8664   5.651   0.027   6.353
 2808WAT      O 8665   0.760   8.981   4.624
 2808WAT     H1 8666   0.709   9.066   4.607
 2808WAT     H2 8667   0.854   9.003   4.650
 2809WAT      O 8668   8.261   0.999   4.539
 2809WAT     H1 8669   8.188   0.930   4.536
 2809WAT     H2 8670   8.340   0.961   4.587
 2810WAT      O 8671   5.701   2.507   9.182
 2810WAT     H1 8672   5.762   2.437   9.221
 2810WAT     H2 8673   5.711   2.591   9.235
 2811WAT      O 8674   7.936   3.006   8.002
 2811WAT     H1 8675   7.896   3.075   8.063
 2811WAT     H2 8676   7.923   3.035   7.907
 2812WAT      O 8677   9.138   4.087   9.248
 2812WAT     H1 8678   9.093   4.171   9.217
 2812WAT     H2 8679   9.077   4.036   9.308
 2813WAT      O 8680   1.964   2.533   2.365
 2813WAT     H1 8681   1.896   2.607   2.362
 2813WAT     H2 8682   1.975   2.502   2.459
 2814WAT      O 8683   1.710   3.712   8.498
 2814WAT     H1 8684   1.610   3.711   8.492
 2814WAT     H2 8685   1.738   3.765   8.578
 2815WAT      O 8686   8.238   2.064   1.400
 2815WAT     H1 8687   8.297   1.988   1.426
 2815WAT     H2 8688   8.268   2.101   1.312
 2816WAT      O 8689   2.617   2.847   4.338
 2816WAT     H1 8690   2.697   2.904   4.318
 2816WAT     H2 8691   2.645   2.770   4.394
 2817WAT      O 8692   5.566   5.468   5.258
 2817WAT     H1 8693   5.479   5.432   5.291
 2817WAT     H2 8694   5.565   5.568   5.264
 2818WAT      O 8695   3.479   4.509   2.584
 2818WAT     H1 8696   3.424   4.591   2.599
 2818WAT     H2 8697   3.567   4.519   2.631
 2819WAT      O 8698   2.714   7.837   8.271
 2819WAT     H1 8699   2.802   7.834   8.223
 2819WAT     H2 8700   2.685   7.743   8.292
 2820WAT      O 8701   2.749   0.109   0.836
 2820WAT     H1 8702   2.827   0.169   0.851
 2820WAT     H2 8703   2.754   0.071   0.743
 2821WAT      O 8704   4.896   2.050   8.023
 2821WAT     H1 8705   4.922   2.135   7.979
 2821WAT     H2 8706   4.967   1.982   8.009
 2822WAT      O 8707   7.938   5.531   6.336
 2822WAT     H1 8708   7.946   5.587   6.254
 2822WAT     H2 8709   7.988   5.575   6.411
 2823WAT      O 8710   5.937   1.976   8.604
 2823WAT     H1 8711   5.853   2.030   8.596
 2823WAT     H2 8712   5.915   1.879   8.591
 2824WAT      O 8713   0.036   4.089   3.036
 2824WAT     H1 8714   0.017   4.186   3.021
 2824WAT     H2 8715   0.116   4.062   2.982
 2825WAT      O 8716   3.862   2.411   1.946
 2825WAT     H1 8717   3.852   2.358   1.862
 2825WAT     H2 8718   3.873   2.508   1.923
 2826WAT      O 8719   5.739   6.152   8.982
 2826WAT     H1 8720   5.764   6.228   9.043
 2826WAT     H2 8721   5.653   6.174   8.935
 2827WAT      O 8722   6.640   1.615   9.153
 2827WAT     H1 8723   6.564   1.678   9.142
 2827WAT     H2 8724   6.716   1.662   9.198
 2828WAT      O 8725   8.458   1.903   1.032
 2828WAT     H1 8726   8.545   1.925   0.987
 2828WAT     H2 8727   8.447   1.804   1.036
 2829WAT      O 8728   1.463   6.350   6.582
 2829WAT     H1 8729   1.528   6.378   6.512
 2829WAT     H2 8730   1.374   6.392   6.563
 2830WAT      O 8731   6.493   2.732   6.797
 2830WAT     H1 8732   6.444   2.656   6.840
 2830WAT     H2 8733   6.469   2.817   6.844
 2831WAT      O 8734   2.232   7.802   8.919
 2831WAT     H1 8735   2.306   7.741   8.945
 2831WAT     H2 8736   2.171   7.756   8.854
 2832WAT      O 8737   4.348   4.966   6.058
 2832WAT     H1 8738   4.286   4.992   5.984
 2832WAT     H2 8739   4.385   5.048   6.101
 2833WAT      O 8740   7.559   5.286   3.325
 2833WAT     H1 8741   7.491   5.213   3.331
 2833WAT     H2 8742   7.513   5.374   3.316
 2834WAT      O 8743   5.717   8.881   5.459
 2834WAT     H1 8744   5.791   8.821   5.489
 2834WAT     H2 8745   5.644   8.826   5.418
 2835WAT      O 8746   5.900   8.329   9.182
 2835WAT     H1 8747   5.968   8.276   9.131
 2835WAT     H2 8748   5.894   8.293   9.275
 2836WAT      O 8749   1.526   4.196   5.045
 2836WAT     H1 8750   1.457   4.220   4.976
 2836WAT     H2 8751   1.504   4.107   5.085
 2837WAT      O 8752   7.772   5.359   7.200
 2837WAT     H1 8753   7.690   5.303   7.216
 2837WAT     H2 8754   7.812   5.384   7.288
 2838WAT      O 8755   6.045   3.037   1.562
 2838WAT     H1 8756   6.061   3.136   1.566
 2838WAT     H2 8757   6.000   3.015   1.475
 2839WAT      O 8758   8.429   2.288   4.336
 2839WAT     H1 8759   8.456   2.199   4.297
 2839WAT     H2 8760   8.435   2.358   4.265
 2840WAT      O 8761   1.378   8.330   7.727
 2840WAT     H1 8762   1.376   8.403   7.658
 2840WAT     H2 8763   1.457   8.271   7.709
 2841WAT      O 8764   5.286   0.123   6.624
 2841WAT     H1 8765   5.309   0.058   6.552
 2841WAT     H2 8766   5.220   0.080   6.686
 2842WAT      O 8767   4.924   0.347   1.326
 2842WAT     H1 8768   4.925   0.357   1.227
 2842WAT     H2 8769   5.008   0.301   1.356
 2843WAT      O 8770   0.503   1.178   3.030
 2843WAT     H1 8771   0.445   1.155   2.952
 2843WAT     H2 8772   0.553   1.262   3.011
 2844WAT      O 8773   8.360   9.434   5.032
 2844WAT     H1 8774   8.407   9.491   5.099
 2844WAT     H2 8775   8.271   9.474   5.011
 2845WAT      O 8776   2.936   0.226   6.685
 2845WAT     H1 8777   2.965   0.246   6.778
 2845WAT     H2 8778   3.000   0.267   6.620
 2846WAT      O 8779   3.620   7.399   4.401
 2846WAT     H1 8780   3.602   7.492   4.369
 2846WAT     H2 8781   3.709   7.397   4.448
 2847WAT      O 8782   6.079   1.086   4.846
 2847WAT     H1 8783   6.120   0.996   4.832
 2847WAT     H2 8784   6.120   1.152   4.782
 2848WAT      O 8785   6.646   4.944   7.429
 2848WAT     H1 8786   6.716   4.922   7.497
 2848WAT     H2 8787   6.592   5.023   7.460
 2849WAT      O 8788   9.289   8.483   0.722
 2849WAT     H1 8789   9.382   8.493   0.757
 2849WAT     H2 8790   9.255   8.572   0.693
 2850WAT      O 8791   7.272   4.427   0.417
 2850WAT     H1 8792   7.209   4.396   0.488
 2850WAT     H2 8793   7.270   4.527   0.411
 2851WAT      O 8794   5.572   8.745   2.139
 2851WAT     H1 8795   5.546   8.841   2.129
 2851WAT     H2 8796   5.561   8.717   2.235
 2852WAT      O 8797   8.737   5.556   3.340
 2852WAT     H1 8798   8.662   5.525   3.280
 2852WAT     H2 8799   8.700   5.584   3.428
 2853WAT      O 8800   4.218   7.336   4.017
 2853WAT     H1 8801   4.311   7.358   4.045
 2853WAT     H2 8802   4.155   7.350   4.094
 2854WAT      O 8803   0.056   9.080   1.944
 2854WAT     H1 8804   0.020   9.044   1.858
 2854WAT     H2 8805   0.051   9.010   2.014
 2855WAT      O 8806   6.985   2.069   5.653
 2855WAT     H1 8807   6.942   2.003   5.715
 2855WAT     H2 8808   6.914   2.115   5.600
 2856WAT      O 8809   8.992   0.653   1.716
 2856WAT     H1 8810   9.045   0.663   1.631
 2856WAT     H2 8811   8.976   0.744   1.755
 2857WAT      O 8812   1.182   5.179   7.945
 2857WAT     H1 8813   1.144   5.266   7.977
 2857WAT     H2 8814   1.208   5.123   8.024
 2858WAT      O 8815   4.087   8.759   2.373
 2858WAT     H1 8816   4.118   8.849   2.343
 2858WAT     H2 8817   4.132   8.735   2.459
 2859WAT      O 8818   6.318   1.585   8.942
 2859WAT     H1 8819   6.377   1.535   9.005
 2859WAT     H2 8820   6.374   1.618   8.865
 2860WAT      O 8821   2.395   4.002   4.116
 2860WAT     H1 8822   2.464   4.039   4.053
 2860WAT     H2 8823   2.432   3.920   4.160
 2861WAT      O 8824   0.163   3.316   5.700
 2861WAT     H1 8825   0.064   3.334   5.701
 2861WAT     H2 8826   0.196   3.321   5.605
 2862WAT      O 8827   7.708   5.628   5.411
 2862WAT     H1 8828   7.619   5.586   5.396
 2862WAT     H2 8829   7.739   5.607   5.504
 2863WAT      O 8830   6.242   3.958   1.854
 2863WAT     H1 8831   6.206   4.039   1.901
 2863WAT     H2 8832   6.202   3.875   1.894
 2864WAT      O 8833   9.759   8.899   0.766
 2864WAT     H1 8834   9.813   8.966   0.717
 2864WAT     H2 8835   9.742   8.931   0.859
 2865WAT      O 8836   4.885   3.867   8.629
 2865WAT     H1 8837   4.971   3.890   8.583
 2865WAT     H2 8838   4.896   3.780   8.677
 2866WAT      O 8839   5.599   2.985   1.938
 2866WAT     H1 8840   5.570   3.056   2.001
 2866WAT     H2 8841   5.687   3.011   1.897
 2867WAT      O 8842   3.343   9.542   8.018
 2867WAT     H1 8843   3.277   9.575   8.086
 2867WAT     H2 8844   3.404   9.475   8.060
 2868WAT      O 8845   0.597   7.544   3.151
 2868WAT     H1 8846   0.662   7.620   3.151
 2868WAT     H2 8847   0.646   7.457   3.148
 2869WAT      O 8848   0.822   7.611   1.752
 2869WAT     H1 8849   0.814   7.522   1.796
 2869WAT     H2 8850   0.914   7.648   1.768
 2870WAT      O 8851   1.030   8.748   4.369
 2870WAT     H1 8852   1.016   8.771   4.273
 2870WAT     H2 8853   1.078   8.661   4.376
 2871WAT      O 8854   4.689   6.691   2.234
 2871WAT     H1 8855   4.752   6.763   2.263
 2871WAT     H2 8856   4.659   6.639   2.314
 2872WAT      O 8857   9.533   0.632   7.366
 2872WAT     H1 8858   9.434   0.622   7.362
 2872WAT     H2 8859   9.560   0.719   7.326
 2873WAT      O 8860   8.353   0.074   9.260
 2873WAT     H1 8861   8.302   0.025   9.331
 2873WAT     H2 8862   8.365   0.014   9.180
 2874WAT      O 8863   6.123   5.735   4.115
 2874WAT     H1 8864   6.221   5.715   4.120
 2874WAT     H2 8865   6.106   5.827   4.149
 2875WAT      O 8866   9.103   0.014   2.849
 2875WAT     H1 8867   9.168  -0.045   2.800
 2875WAT     H2 8868   9.009  -0.012   2.825
 2876WAT      O 8869   8.829   4.004   8.640
 2876WAT     H1 8870   8.790   4.096   8.636
 2876WAT     H2 8871   8.854   3.974   8.548
 2877WAT      O 8872   4.598   4.596   7.108
 2877WAT     H1 8873   4.575   4.678   7.055
 2877WAT     H2 8874   4.692   4.569   7.089
 2878WAT      O 8875   4.757   6.514   1.132
 2878WAT     H1 8876   4.802   6.440   1.082
 2878WAT     H2 8877   4.791   6.602   1.098
 2879WAT      O 8878   6.024   2.460   7.681
 2879WAT     H1 8879   6.111   2.414   7.701
 2879WAT     H2 8880   5.951   2.419   7.735
 2880WAT      O 8881   5.903   8.385   5.173
 2880WAT     H1 8882   5.920   8.443   5.252
 2880WAT     H2 8883   5.828   8.321   5.193
 2881WAT      O 8884   0.288   6.117   6.480
 2881WAT     H1 8885   0.314   6.214   6.482
 2881WAT     H2 8886   0.262   6.087   6.572
 2882WAT      O 8887   2.196   0.737   8.131
 2882WAT     H1 8888   2.203   0.772   8.037
 2882WAT     H2 8889   2.265   0.666   8.145
 2883WAT      O 8890   3.998   6.635   6.269
 2883WAT     H1 8891   4.027   6.540   6.281
 2883WAT     H2 8892   3.913   6.638   6.216
 2884WAT      O 8893   8.078   1.961   0.678
 2884WAT     H1 8894   8.035   2.038   0.631
 2884WAT     H2 8895   8.035   1.949   0.768
 2885WAT      O 8896   2.201   7.404   0.255
 2885WAT     H1 8897   2.268   7.469   0.292
 2885WAT     H2 8898   2.152   7.447   0.179
 2886WAT      O 8899   3.558   0.253   1.748
 2886WAT     H1 8900   3.541   0.170   1.695
 2886WAT     H2 8901   3.471   0.299   1.766
 2887WAT      O 8902   0.145   4.227   3.783
 2887WAT     H1 8903   0.239   4.258   3.777
 2887WAT     H2 8904   0.100   4.269   3.862
 2888WAT      O 8905   9.789   1.668   1.240
 2888WAT     H1 8906   9.690   1.667   1.251
 2888WAT     H2 8907   9.829   1.589   1.286
 2889WAT      O 8908   3.058   5.817   7.160
 2889WAT     H1 8909   3.074   5.909   7.125
 2889WAT     H2 8910   3.056   5.753   7.083
 2890WAT      O 8911   4.155   3.843   7.950
 2890WAT     H1 8912   4.170   3.744   7.940
 2890WAT     H2 8913   4.166   3.887   7.861
 2891WAT      O 8914   7.710   6.125   3.279
 2891WAT     H1 8915   7.676   6.195   3.216
 2891WAT     H2 8916   7.701   6.158   3.373
 2892WAT      O 8917   1.002   2.231   5.871
 2892WAT     H1 8918   0.931   2.231   5.801
 2892WAT     H2 8919   1.092   2.223   5.828
 2893WAT      O 8920   4.051   5.191   7.381
 2893WAT     H1 8921   4.074   5.233   7.469
 2893WAT     H2 8922   4.136   5.171   7.331
 2894WAT      O 8923   9.096   5.400   0.344
 2894WAT     H1 8924   9.044   5.481   0.317
 2894WAT     H2 8925   9.080   5.381   0.440
 2895WAT      O 8926   9.245   1.564   5.819
 2895WAT     H1 8927   9.219   1.660   5.808
 2895WAT     H2 8928   9.164   1.510   5.844
 2896WAT      O 8929   6.661   8.856   3.936
 2896WAT     H1 8930   6.699   8.770   3.970
 2896WAT     H2 8931   6.666   8.858   3.836
 2897WAT      O 8932   4.329   2.150   4.644
 2897WAT     H1 8933   4.255   2.102   4.596
 2897WAT     H2 8934   4.332   2.119   4.739
 2898WAT      O 8935   5.103   5.763   4.034
 2898WAT     H1 8936   5.090   5.718   4.122
 2898WAT     H2 8937   5.031   5.830   4.019
 2899WAT      O 8938   0.060   5.722   4.188
 2899WAT     H1 8939   0.010   5.722   4.101
 2899WAT     H2 8940   0.120   5.642   4.192
 2900WAT      O 8941   2.904   1.940   0.302
 2900WAT     H1 8942   2.827   1.939   0.367
 2900WAT     H2 8943   2.954   1.854   0.309
 2901WAT      O 8944   2.384   0.446   0.167
 2901WAT     H1 8945   2.387   0.381   0.091
 2901WAT     H2 8946   2.445   0.523   0.146
 2902WAT      O 8947   0.612   6.158   5.888
 2902WAT     H1 8948   0.711   6.149   5.879
 2902WAT     H2 8949   0.578   6.224   5.821
 2903WAT      O 8950   3.385   9.841   6.881
 2903WAT     H1 8951   3.391   9.744   6.904
 2903WAT     H2 8952   3.319   9.886   6.942
 2904WAT      O 8953   8.790   7.554   7.953
 2904WAT     H1 8954   8.806   7.478   7.891
 2904WAT     H2 8955   8.878   7.595   7.979
 2905WAT      O 8956   8.843   9.137   5.403
 2905WAT     H1 8957   8.907   9.120   5.328
 2905WAT     H2 8958   8.754   9.096   5.380
 2906WAT      O 8959   5.212   7.227   0.044
 2906WAT     H1 8960   5.120   7.249   0.014
 2906WAT     H2 8961   5.240   7.139   0.005
 2907WAT      O 8962   8.483   7.133   1.371
 2907WAT     H1 8963   8.449   7.046   1.407
 2907WAT     H2 8964   8.483   7.201   1.444
 2908WAT      O 8965   2.565   2.320   8.120
 2908WAT     H1 8966   2.528   2.269   8.043
 2908WAT     H2 8967   2.624   2.261   8.175
 2909WAT      O 8968   7.017   4.375   9.336
 2909WAT     H1 8969   6.981   4.352   9.246
 2909WAT     H2 8970   7.064   4.463   9.332
 2910WAT      O 8971   5.046   6.149   7.546
 2910WAT     H1 8972   5.070   6.242   7.571
 2910WAT     H2 8973   5.020   6.145   7.450
 2911WAT      O 8974   1.551   0.675   4.188
 2911WAT     H1 8975   1.494   0.678   4.105
 2911WAT     H2 8976   1.646   0.659   4.162
 2912WAT      O 8977   4.483   9.047   1.834
 2912WAT     H1 8978   4.437   9.136   1.838
 2912WAT     H2 8979   4.490   9.017   1.739
 2913WAT      O 8980   3.154   6.915   6.176
 2913WAT     H1 8981   3.231   6.945   6.232
 2913WAT     H2 8982   3.172   6.824   6.140
 2914WAT      O 8983   3.652   7.317   6.437
 2914WAT     H1 8984   3.566   7.286   6.397
 2914WAT     H2 8985   3.671   7.410   6.406
 2915WAT      O 8986   8.038   5.273   4.919
 2915WAT     H1 8987   8.077   5.214   4.990
 2915WAT     H2 8988   8.060   5.234   4.829
 2916WAT      O 8989   4.790   9.552   5.223
 2916WAT     H1 8990   4.713   9.550   5.286
 2916WAT     H2 8991   4.867   9.599   5.265
 2917WAT      O 8992   8.070   6.373   7.365
 2917WAT     H1 8993   8.077   6.435   7.443
 2917WAT     H2 8994   8.047   6.426   7.283
 2918WAT      O 8995   7.654   0.831   3.547
 2918WAT     H1 8996   7.570   0.780   3.530
 2918WAT     H2 8997   7.733   0.771   3.536
 2919WAT      O 8998   2.262   6.997   7.095
 2919WAT     H1 8999   2.359   6.997   7.067
 2919WAT     H2 9000   2.229   7.091   7.097
 2920WAT      O 9001   3.590   4.513   0.410
 2920WAT     H1 9002   3.536   4.492   0.328
 2920WAT     H2 9003   3.684   4.482   0.397
 2921WAT      O 9004   2.444   8.088   5.622
 2921WAT     H1 9005   2.448   8.084   5.722
 2921WAT     H2 9006   2.360   8.044   5.591
 2922WAT      O 9007   1.440   2.139   5.508
 2922WAT     H1 9008   1.471   2.051   5.545
 2922WAT     H2 9009   1.403   2.125   5.416
 2923WAT      O 9010   3.886   5.599   1.834
 2923WAT     H1 9011   3.940   5.682   1.826
 2923WAT     H2 9012   3.844   5.595   1.924
 2924WAT      O 9013   0.805   8.131   0.578
 2924WAT     H1 9014   0.757   8.049   0.546
 2924WAT     H2 9015   0.902   8.124   0.553
 2925WAT      O 9016   9.129   6.122   9.531
 2925WAT     H1 9017   9.096   6.046   9.475
 2925WAT     H2 9018   9.168   6.087   9.615
 2926WAT      O 9019   2.873   2.719   7.084
 2926WAT     H1 9020   2.861   2.641   7.023
 2926WAT     H2 9021   2.966   2.754   7.075
 2927WAT      O 9022   1.300   8.572   7.203
 2927WAT     H1 9023   1.381   8.515   7.211
 2927WAT     H2 9024   1.302   8.643   7.273
 2928WAT      O 9025   1.709   1.057   4.939
 2928WAT     H1 9026   1.680   1.065   5.035
 2928WAT     H2 9027   1.686   1.142   4.891
 2929WAT      O 9028   0.340   7.224   2.276
 2929WAT     H1 9029   0.410   7.295   2.267
 2929WAT     H2 9030   0.338   7.190   2.370
 2930WAT      O 9031   6.409   4.280   6.339
 2930WAT     H1 9032   6.357   4.292   6.424
 2930WAT     H2 9033   6.380   4.196   6.294
 2931WAT      O 9034   4.934   1.162   9.673
 2931WAT     H1 9035   4.916   1.254   9.706
 2931WAT     H2 9036   4.923   1.096   9.747
 2932WAT      O 9037   1.810   4.101   7.095
 2932WAT     H1 9038   1.901   4.058   7.099
 2932WAT     H2 9039   1.786   4.137   7.185
 2933WAT      O 9040   2.532   6.119   3.265
 2933WAT     H1 9041   2.542   6.219   3.264
 2933WAT     H2 9042   2.570   6.083   3.350
 2934WAT      O 9043   3.393   7.527   1.176
 2934WAT     H1 9044   3.312   7.569   1.216
 2934WAT     H2 9045   3.417   7.575   1.091
 2935WAT      O 9046   2.102   3.484   9.312
 2935WAT     H1 9047   2.062   3.535   9.388
 2935WAT     H2 9048   2.187   3.529   9.283
 2936WAT      O 9049   5.767   6.552   8.296
 2936WAT     H1 9050   5.670   6.528   8.297
 2936WAT     H2 9051   5.798   6.568   8.389
 2937WAT      O 9052   9.642   0.603   8.717
 2937WAT     H1 9053   9.641   0.685   8.773
 2937WAT     H2 9054   9.734   0.562   8.718
 2938WAT      O 9055   8.996   6.396   2.996
 2938WAT     H1 9056   9.020   6.348   3.080
 2938WAT     H2 9057   9.020   6.339   2.917
 2939WAT      O 9058   3.576   0.727   6.540
 2939WAT     H1 9059   3.637   0.669   6.594
 2939WAT     H2 9060   3.505   0.765   6.600
 2940WAT      O 9061   9.176   4.904   9.357
 2940WAT     H1 9062   9.265   4.861   9.366
 2940WAT     H2 9063   9.166   4.976   9.425
 2941WAT      O 9064   0.631   4.250   4.093
 2941WAT     H1 9065   0.581   4.166   4.075
 2941WAT     H2 9066   0.726   4.228   4.116
 2942WAT      O 9067   4.148   7.045   3.849
 2942WAT     H1 9068   4.191   7.132   3.875
 2942WAT     H2 9069   4.185   6.972   3.906
 2943WAT      O 9070   8.256   0.865   2.659
 2943WAT     H1 9071   8.316   0.932   2.616
 2943WAT     H2 9072   8.211   0.811   2.587
 2944WAT      O 9073   8.879   0.937   9.227
 2944WAT     H1 9074   8.888   0.953   9.129
 2944WAT     H2 9075   8.962   0.967   9.274
 2945WAT      O 9076   3.333   6.332   8.305
 2945WAT     H1 9077   3.305   6.344   8.210
 2945WAT     H2 9078   3.347   6.422   8.347
 2946WAT      O 9079   4.849   1.813   2.536
 2946WAT     H1 9080   4.800   1.868   2.604
 2946WAT     H2 9081   4.788   1.744   2.498
 2947WAT      O 9082   2.543   0.736   0.286
 2947WAT     H1 9083   2.467   0.800   0.277
 2947WAT     H2 9084   2.624   0.775   0.242
 2948WAT      O 9085   2.687   4.111   6.887
 2948WAT     H1 9086   2.623   4.070   6.951
 2948WAT     H2 9087   2.781   4.089   6.914
 2949WAT      O 9088   4.257   9.209   9.445
 2949WAT     H1 9089   4.309   9.141   9.497
 2949WAT     H2 9090   4.203   9.163   9.375
 2950WAT      O 9091   8.878   8.668   0.592
 2950WAT     H1 9092   8.892   8.590   0.532
 2950WAT     H2 9093   8.831   8.741   0.542
 2951WAT      O 9094   3.222   8.163   8.020
 2951WAT     H1 9095   3.170   8.130   8.099
 2951WAT     H2 9096   3.179   8.247   7.986
 2952WAT      O 9097   8.245   8.482   6.978
 2952WAT     H1 9098   8.181   8.542   7.027
 2952WAT     H2 9099   8.295   8.425   7.044
 2953WAT      O 9100   7.211   0.497   5.081
 2953WAT     H1 9101   7.309   0.479   5.089
 2953WAT     H2 9102   7.180   0.469   4.990
 2954WAT      O 9103   1.461   3.447   1.080
 2954WAT     H1 9104   1.458   3.367   1.019
 2954WAT     H2 9105   1.509   3.423   1.164
 2955WAT      O 9106   5.137   4.593   3.790
 2955WAT     H1 9107   5.161   4.621   3.882
 2955WAT     H2 9108   5.194   4.642   3.724
 2956WAT      O 9109   2.250   8.497   4.123
 2956WAT     H1 9110   2.198   8.423   4.165
 2956WAT     H2 9111   2.342   8.500   4.163
 2957WAT      O 9112   5.998   0.831   4.541
 2957WAT     H1 9113   6.033   0.809   4.633
 2957WAT     H2 9114   5.899   0.843   4.545
 2958WAT      O 9115   0.028   6.863   8.694
 2958WAT     H1 9116   0.066   6.841   8.605
 2958WAT     H2 9117  -0.072   6.855   8.691
 2959WAT      O 9118   0.529   0.283   6.500
 2959WAT     H1 9119   0.512   0.328   6.587
 2959WAT     H2 9120   0.504   0.186   6.507
 2960WAT      O 9121   7.837   3.961   1.364
 2960WAT     H1 9122   7.798   3.913   1.286
 2960WAT     H2 9123   7.794   4.051   1.373
 2961WAT      O 9124   8.681   2.012   0.903
 2961WAT     H1 9125   8.678   1.924   0.855
 2961WAT     H2 9126   8.764   2.017   0.959
 2962WAT      O 9127   6.434   8.115   5.163
 2962WAT     H1 9128   6.357   8.054   5.180
 2962WAT     H2 9129   6.401   8.208   5.146
 2963WAT      O 9130   7.750   4.712   2.454
 2963WAT     H1 9131   7.740   4.624   2.500
 2963WAT     H2 9132   7.713   4.784   2.511
 2964WAT      O 9133   5.539   2.250   5.132
 2964WAT     H1 9134   5.531   2.260   5.033
 2964WAT     H2 9135   5.448   2.252   5.173
 2965WAT      O 9136   7.901   7.145   2.517
 2965WAT     H1 9137   7.921   7.086   2.595
 2965WAT     H2 9138   7.917   7.094   2.432
 2966WAT      O 9139   0.612   8.655   0.973
 2966WAT     H1 9140   0.605   8.676   0.876
 2966WAT     H2 9141   0.627   8.557   0.985
 2967WAT      O 9142   8.140  -0.004   2.283
 2967WAT     H1 9143   8.140   0.043   2.371
 2967WAT     H2 9144   8.068   0.034   2.225
 2968WAT      O 9145   2.269   8.870   4.829
 2968WAT     H1 9146   2.184   8.916   4.853
 2968WAT     H2 9147   2.336   8.937   4.797
 2969WAT      O 9148   4.251   9.298   2.697
 2969WAT     H1 9149   4.184   9.251   2.753
 2969WAT     H2 9150   4.209   9.327   2.611
 2970WAT      O 9151   3.162   9.216   9.008
 2970WAT     H1 9152   3.235   9.206   8.940
 2970WAT     H2 9153   3.157   9.311   9.038
 2971WAT      O 9154   2.271   5.522   7.071
 2971WAT     H1 9155   2.337   5.490   7.004
 2971WAT     H2 9156   2.209   5.588   7.028
 2972WAT      O 9157   0.014   0.791   6.848
 2972WAT     H1 9158   0.081   0.779   6.774
 2972WAT     H2 9159  -0.017   0.885   6.849
 2973WAT      O 9160   6.963   7.777   9.125
 2973WAT     H1 9161   6.866   7.795   9.141
 2973WAT     H2 9162   6.989   7.811   9.035
 2974WAT      O 9163   3.708   8.585   6.855
 2974WAT     H1 9164   3.752   8.627   6.935
 2974WAT     H2 9165   3.614   8.561   6.878
 2975WAT      O 9166   0.422   7.801   0.522
 2975WAT     H1 9167   0.464   7.765   0.439
 2975WAT     H2 9168   0.432   7.900   0.524
 2976WAT      O 9169   3.826   8.385   6.724
 2976WAT     H1 9170   3.782   8.453   6.783
 2976WAT     H2 9171   3.891   8.430   6.663
 2977WAT      O 9172   9.272   4.500   5.717
 2977WAT     H1 9173   9.175   4.518   5.733
 2977WAT     H2 9174   9.319   4.489   5.804
 2978WAT      O 9175   5.867   2.229   6.035
 2978WAT     H1 9176   5.832   2.149   5.987
 2978WAT     H2 9177   5.928   2.200   6.109
 2979WAT      O 9178   8.265   7.489   0.615
 2979WAT     H1 9179   8.193   7.428   0.647
 2979WAT     H2 9180   8.292   7.462   0.522
 2980WAT      O 9181   7.942   2.131   4.329
 2980WAT     H1 9182   7.890   2.076   4.394
 2980WAT     H2 9183   7.900   2.126   4.239
 2981WAT      O 9184   9.435   5.516   7.400
 2981WAT     H1 9185   9.399   5.593   7.452
 2981WAT     H2 9186   9.485   5.550   7.321
 2982WAT      O 9187   2.358   8.388   9.233
 2982WAT     H1 9188   2.339   8.397   9.135
 2982WAT     H2 9189   2.337   8.295   9.262
 2983WAT      O 9190   1.860   3.009   8.677
 2983WAT     H1 9191   1.783   3.073   8.667
 2983WAT     H2 9192   1.914   3.034   8.757
 2984WAT      O 9193   5.935   7.652   3.702
 2984WAT     H1 9194   5.979   7.678   3.616
 2984WAT     H2 9195   5.911   7.734   3.754
 2985WAT      O 9196   5.577   9.194   0.524
 2985WAT     H1 9197   5.640   9.242   0.585
 2985WAT     H2 9198   5.507   9.148   0.578
 2986WAT      O 9199   4.758   6.829   1.834
 2986WAT     H1 9200   4.743   6.842   1.932
 2986WAT     H2 9201   4.775   6.732   1.815
 2987WAT      O 9202   6.782   0.335   1.465
 2987WAT     H1 9203   6.815   0.274   1.538
 2987WAT     H2 9204   6.828   0.424   1.473
 2988WAT      O 9205   6.211   8.114   6.793
 2988WAT     H1 9206   6.239   8.209   6.777
 2988WAT     H2 9207   6.217   8.063   6.708
 2989WAT      O 9208   6.999   3.412   0.388
 2989WAT     H1 9209   6.974   3.318   0.365
 2989WAT     H2 9210   7.087   3.413   0.435
 2990WAT      O 9211   7.099   0.815   4.123
 2990WAT     H1 9212   7.109   0.841   4.219
 2990WAT     H2 9213   7.002   0.811   4.099
 2991WAT      O 9214   8.246   1.814   2.701
 2991WAT     H1 9215   8.219   1.721   2.675
 2991WAT     H2 9216   8.164   1.865   2.728
 2992WAT      O 9217   5.066   3.816   3.840
 2992WAT     H1 9218   5.093   3.749   3.772
 2992WAT     H2 9219   4.977   3.855   3.816
 2993WAT      O 9220   5.924   9.621   5.943
 2993WAT     H1 9221   5.934   9.720   5.950
 2993WAT     H2 9222   5.831   9.595   5.967
 2994WAT      O 9223   2.694   6.870   3.618
 2994WAT     H1 9224   2.669   6.886   3.714
 2994WAT     H2 9225   2.676   6.775   3.594
 2995WAT      O 9226   2.844   5.265   2.421
 2995WAT     H1 9227   2.825   5.329   2.346
 2995WAT     H2 9228   2.941   5.242   2.422
 2996WAT      O 9229   3.710   0.957   4.837
 2996WAT     H1 9230   3.611   0.975   4.843
 2996WAT     H2 9231   3.744   0.931   4.927
 2997WAT      O 9232   5.378   6.009   2.031
 2997WAT     H1 9233   5.356   6.047   1.941
 2997WAT     H2 9234   5.359   6.078   2.101
 2998WAT      O 9235   7.914   6.164   1.937
 2998WAT     H1 9236   7.995   6.217   1.914
 2998WAT     H2 9237   7.906   6.087   1.875
 2999WAT      O 9238   3.369   0.238   4.317
 2999WAT     H1 9239   3.399   0.312   4.257
 2999WAT     H2 9240   3.449   0.189   4.352
 3000WAT      O 9241   8.603   9.034   5.341
 3000WAT     H1 9242   8.564   9.017   5.251
 3000WAT     H2 9243   8.531   9.064   5.404
 3001WAT      O 9244   7.194   2.632   6.902
 3001WAT     H1 9245   7.120   2.655   6.966
 3001WAT     H2 9246   7.242   2.550   6.935
 3002WAT      O 9247   0.628   8.026   7.994
 3002WAT     H1 9248   0.576   8.094   7.942
 3002WAT     H2 9249   0.621   7.937   7.949
 3003WAT      O 9250   6.656   2.868   2.373
 3003WAT     H1 9251   6.603   2.895   2.453
 3003WAT     H2 9252   6.594   2.853   2.296
 3004WAT      O 9253   2.941   7.626   7.453
 3004WAT     H1 9254   3.019   7.569   7.477
 3004WAT     H2 9255   2.875   7.626   7.528
 3005WAT      O 9256   6.101   3.423   9.886
 3005WAT     H1 9257   6.115   3.467   9.974
 3005WAT     H2 9258   6.024   3.360   9.892
 3006WAT      O 9259   0.526   9.644   5.542
 3006WAT     H1 9260   0.441   9.681   5.504
 3006WAT     H2 9261   0.581   9.719   5.580
 3007WAT      O 9262   4.125   1.971   6.271
 3007WAT     H1 9263   4.084   1.942   6.357
 3007WAT     H2 9264   4.224   1.952   6.273
 3008WAT      O 9265   1.920   9.433   7.170
 3008WAT     H1 9266   1.995   9.481   7.126
 3008WAT     H2 9267   1.835   9.484   7.156
 3009WAT      O 9268   3.004   9.711   0.597
 3009WAT     H1 9269   2.966   9.620   0.581
 3009WAT     H2 9270   3.104   9.707   0.587
 3010WAT      O 9271   6.972   8.265   2.246
 3010WAT     H1 9272   6.962   8.170   2.275
 3010WAT     H2 9273   6.888   8.295   2.201
 3011WAT      O 9274   8.783   3.185   5.942
 3011WAT     H1 9275   8.711   3.175   5.873
 3011WAT     H2 9276   8.799   3.096   5.985
 3012WAT      O 9277   6.568   9.289   4.040
 3012WAT     H1 9278   6.626   9.219   4.082
 3012WAT     H2 9279   6.500   9.319   4.106
 3013WAT      O 9280   9.350   0.362   9.260
 3013WAT     H1 9281   9.270   0.310   9.292
 3013WAT     H2 9282   9.434   0.316   9.290
 3014WAT      O 9283   5.106   2.408   6.926
 3014WAT     H1 9284   5.060   2.432   7.011
 3014WAT     H2 9285   5.133   2.312   6.929
 3015WAT      O 9286   4.015   5.885   9.140
 3015WAT     H1 9287   4.021   5.984   9.150
 3015WAT     H2 9288   4.010   5.861   9.043
 3016WAT      O 9289   1.648   1.786   6.937
 3016WAT     H1 9290   1.741   1.773   6.904
 3016WAT     H2 9291   1.589   1.713   6.902
 3017WAT      O 9292   8.222   7.767   8.397
 3017WAT     H1 9293   8.197   7.833   8.325
 3017WAT     H2 9294   8.138   7.732   8.439
 3018WAT      O 9295   9.462   3.355   5.979
 3018WAT     H1 9296   9.540   3.311   5.936
 3018WAT     H2 9297   9.450   3.447   5.941
 3019WAT      O 9298   9.593   6.887   4.887
 3019WAT     H1 9299   9.611   6.810   4.947
 3019WAT     H2 9300   9.600   6.858   4.791
 3020WAT      O 9301   1.567   1.639   0.034
 3020WAT     H1 9302   1.594   1.561  -0.022
 3020WAT     H2 9303   1.529   1.608   0.121
 3021WAT      O 9304   2.441   1.200   6.657
 3021WAT     H1 9305   2.381   1.277   6.635
 3021WAT     H2 9306   2.481   1.164   6.573
 3022WAT      O 9307   5.303   9.751   9.874
 3022WAT     H1 9308   5.226   9.802   9.835
 3022WAT     H2 9309   5.297   9.754   9.974
 3023WAT      O 9310   5.793   0.475   1.573
 3023WAT     H1 9311   5.727   0.416   1.526
 3023WAT     H2 9312   5.759   0.498   1.664
 3024WAT      O 9313   3.611   7.244   2.372
 3024WAT     H1 9314   3.652   7.288   2.451
 3024WAT     H2 9315   3.526   7.291   2.347
 3025WAT      O 9316   7.211   5.045   3.523
 3025WAT     H1 9317   7.191   4.949   3.499
 3025WAT     H2 9318   7.203   5.057   3.622
 3026WAT      O 9319   3.035   4.869   3.340
 3026WAT     H1 9320   2.952   4.855   3.286
 3026WAT     H2 9321   3.115   4.862   3.281
 3027WAT      O 9322   1.735   6.068   8.658
 3027WAT     H1 9323   1.761   6.161   8.684
 3027WAT     H2 9324   1.797   6.035   8.586
 3028WAT      O 9325   7.433   5.773   5.981
 3028WAT     H1 9326   7.404   5.733   5.894
 3028WAT     H2 9327   7.506   5.717   6.021
 3029WAT      O 9328   5.986   5.148   2.677
 3029WAT     H1 9329   5.927   5.227   2.659
 3029WAT     H2 9330   6.004   5.140   2.775
 3030WAT      O 9331   1.382   5.618   3.482
 3030WAT     H1 9332   1.284   5.598   3.492
 3030WAT     H2 9333   1.396   5.669   3.397
 3031WAT      O 9334   2.749   7.178   9.839
 3031WAT     H1 9335   2.771   7.236   9.917
 3031WAT     H2 9336   2.708   7.233   9.766
 3032WAT      O 9337   9.035   6.574   7.370
 3032WAT     H1 9338   8.991   6.485   7.355
 3032WAT     H2 9339   8.966   6.641   7.398
 3033WAT      O 9340   9.065   3.687   2.064
 3033WAT     H1 9341   9.054   3.626   2.142
 3033WAT     H2 9342   9.161   3.689   2.036
 3034WAT      O 9343   0.092   5.060   5.977
 3034WAT     H1 9344   0.143   5.147   5.980
 3034WAT     H2 9345   0.125   5.001   6.050
 3035WAT      O 9346   5.587   3.559   4.335
 3035WAT     H1 9347   5.573   3.519   4.425
 3035WAT     H2 9348   5.680   3.541   4.304
 3036WAT      O 9349   9.398   7.121   4.533
 3036WAT     H1 9350   9.453   7.128   4.617
 3036WAT     H2 9351   9.312   7.170   4.546
 3037WAT      O 9352   8.451   6.803   4.403
 3037WAT     H1 9353   8.547   6.794   4.376
 3037WAT     H2 9354   8.432   6.899   4.426
 3038WAT      O 9355   8.482   4.887   5.151
 3038WAT     H1 9356   8.478   4.834   5.066
 3038WAT     H2 9357   8.472   4.826   5.229
 3039WAT      O 9358   9.657   9.257   6.422
 3039WAT     H1 9359   9.750   9.263   6.458
 3039WAT     H2 9360   9.599   9.210   6.488
 3040WAT      O 9361   9.522   4.750   5.730
 3040WAT     H1 9362   9.487   4.702   5.650
 3040WAT     H2 9363   9.448   4.802   5.773
 3041WAT      O 9364   1.462   3.261   5.382
 3041WAT     H1 9365   1.452   3.161   5.386
 3041WAT     H2 9366   1.421   3.302   5.464
 3042WAT      O 9367   7.945   9.302   1.487
 3042WAT     H1 9368   7.895   9.241   1.549
 3042WAT     H2 9369   8.032   9.327   1.529
 3043WAT      O 9370   4.966   2.112   7.648
 3043WAT     H1 9371   4.944   2.148   7.739
 3043WAT     H2 9372   4.885   2.119   7.589
 3044WAT      O 9373   6.988   3.019   2.046
 3044WAT     H1 9374   6.931   3.067   2.113
 3044WAT     H2 9375   7.082   3.051   2.053
 3045WAT      O 9376   0.662   5.619   0.635
 3045WAT     H1 9377   0.669   5.711   0.598
 3045WAT     H2 9378   0.599   5.565   0.578
 3046WAT      O 9379   2.454   2.368   2.340
 3046WAT     H1 9380   2.379   2.434   2.333
 3046WAT     H2 9381   2.475   2.333   2.249
 3047WAT      O 9382   3.493   3.138   2.052
 3047WAT     H1 9383   3.568   3.170   2.111
 3047WAT     H2 9384   3.490   3.039   2.053
 3048WAT      O 9385   3.658   8.893   0.482
 3048WAT     H1 9386   3.736   8.900   0.418
 3048WAT     H2 9387   3.638   8.797   0.500
 3049WAT      O 9388   6.196   4.486   7.005
 3049WAT     H1 9389   6.223   4.579   6.980
 3049WAT     H2 9390   6.249   4.420   6.952
 3050WAT      O 9391   2.502   8.485   4.235
 3050WAT     H1 9392   2.585   8.430   4.223
 3050WAT     H2 9393   2.527   8.582   4.242
 3051WAT      O 9394   8.185   9.420   1.725
 3051WAT     H1 9395   8.281   9.403   1.748
 3051WAT     H2 9396   8.131   9.339   1.748
 3052WAT      O 9397   1.950   7.388   2.841
 3052WAT     H1 9398   1.960   7.301   2.890
 3052WAT     H2 9399   2.040   7.429   2.826
 3053WAT      O 9400   6.516   8.626   5.737
 3053WAT     H1 9401   6.577   8.693   5.781
 3053WAT     H2 9402   6.421   8.654   5.752
 3054WAT      O 9403   1.100   8.597   1.290
 3054WAT     H1 9404   1.094   8.598   1.190
 3054WAT     H2 9405   1.076   8.688   1.325
 3055WAT      O 9406   2.830   8.969   4.753
 3055WAT     H1 9407   2.828   8.926   4.843
 3055WAT     H2 9408   2.917   8.948   4.708
 3056WAT      O 9409   5.412   6.508   3.950
 3056WAT     H1 9410   5.362   6.440   3.896
 3056WAT     H2 9411   5.354   6.540   4.025
 3057WAT      O 9412   8.313   5.441   4.939
 3057WAT     H1 9413   8.265   5.496   5.008
 3057WAT     H2 9414   8.288   5.473   4.847
 3058WAT      O 9415   5.423   8.506   6.822
 3058WAT     H1 9416   5.509   8.554   6.839
 3058WAT     H2 9417   5.441   8.408   6.810
 3059WAT      O 9418   0.803   5.673   2.129
 3059WAT     H1 9419   0.897   5.657   2.158
 3059WAT     H2 9420   0.779   5.607   2.058
 3060WAT      O 9421   0.398   5.947   7.141
 3060WAT     H1 9422   0.409   6.010   7.064
 3060WAT     H2 9423   0.309   5.961   7.184
 3061WAT      O 9424   3.165   0.398   9.246
 3061WAT     H1 9425   3.103   0.353   9.182
 3061WAT     H2 9426   3.158   0.497   9.234
 3062WAT      O 9427   2.229   7.279   6.039
 3062WAT     H1 9428   2.273   7.272   5.949
 3062WAT     H2 9429   2.202   7.373   6.056
 3063WAT      O 9430   0.570   0.577   9.829
 3063WAT     H1 9431   0.512   0.638   9.884
 3063WAT     H2 9432   0.623   0.518   9.890
 3064WAT      O 9433   5.931   7.685   4.346
 3064WAT     H1 9434   5.872   7.616   4.304
 3064WAT     H2 9435   5.953   7.756   4.279
 3065WAT      O 9436   1.264   1.825   8.062
 3065WAT     H1 9437   1.167   1.841   8.081
 3065WAT     H2 9438   1.275   1.735   8.019
 3066WAT      O 9439   2.709   4.423   7.731
 3066WAT     H1 9440   2.700   4.507   7.785
 3066WAT     H2 9441   2.618   4.391   7.704
 3067WAT      O 9442   7.583   4.487   8.452
 3067WAT     H1 9443   7.661   4.550   8.440
 3067WAT     H2 9444   7.557   4.487   8.549
 3068WAT      O 9445   5.269   1.221   5.760
 3068WAT     H1 9446   5.338   1.149   5.769
 3068WAT     H2 9447   5.190   1.185   5.712
 3069WAT      O 9448   3.969   1.687   6.198
 3069WAT     H1 9449   3.914   1.755   6.247
 3069WAT     H2 9450   3.930   1.673   6.107
 3070WAT      O 9451   3.902   8.232   8.305
 3070WAT     H1 9452   3.953   8.166   8.250
 3070WAT     H2 9453   3.860   8.301   8.246
 3071WAT      O 9454   4.691   6.336   4.427
 3071WAT     H1 9455   4.594   6.343   4.451
 3071WAT     H2 9456   4.732   6.258   4.474
 3072WAT      O 9457   9.385   4.434   1.898
 3072WAT     H1 9458   9.376   4.380   1.814
 3072WAT     H2 9459   9.460   4.499   1.888
 3073WAT      O 9460   2.050   4.156   8.548
 3073WAT     H1 9461   1.973   4.137   8.609
 3073WAT     H2 9462   2.027   4.235   8.490
 3074WAT      O 9463   1.292   5.434   5.567
 3074WAT     H1 9464   1.354   5.510   5.549
 3074WAT     H2 9465   1.209   5.445   5.512
 3075WAT      O 9466   4.184   4.498   8.929
 3075WAT     H1 9467   4.275   4.528   8.958
 3075WAT     H2 9468   4.187   4.400   8.910
 3076WAT      O 9469   0.789   0.438   5.830
 3076WAT     H1 9470   0.705   0.460   5.782
 3076WAT     H2 9471   0.777   0.456   5.928
 3077WAT      O 9472   9.228   4.801   2.426
 3077WAT     H1 9473   9.293   4.838   2.359
 3077WAT     H2 9474   9.195   4.712   2.394
 3078WAT      O 9475   4.341   1.883   7.689
 3078WAT     H1 9476   4.314   1.797   7.732
 3078WAT     H2 9477   4.290   1.958   7.731
 3079WAT      O 9478   6.736   1.475   4.016
 3079WAT     H1 9479   6.636   1.484   4.014
 3079WAT     H2 9480   6.761   1.381   3.993
 3080WAT      O 9481   9.702   4.947   0.520
 3080WAT     H1 9482   9.801   4.935   0.516
 3080WAT     H2 9483   9.673   5.013   0.450
 3081WAT      O 9484   3.814   4.664   0.126
 3081WAT     H1 9485   3.830   4.763   0.128
 3081WAT     H2 9486   3.798   4.635   0.032
 3082WAT      O 9487   9.791   7.308   1.860
 3082WAT     H1 9488   9.890   7.322   1.859
 3082WAT     H2 9489   9.757   7.309   1.766
 3083WAT      O 9490   4.688   6.792   9.158
 3083WAT     H1 9491   4.611   6.763   9.102
 3083WAT     H2 9492   4.669   6.772   9.254
 3084WAT      O 9493   4.139   9.682   3.786
 3084WAT     H1 9494   4.110   9.706   3.694
 3084WAT     H2 9495   4.234   9.710   3.800
 3085WAT      O 9496   2.109   5.499   7.659
 3085WAT     H1 9497   2.067   5.467   7.744
 3085WAT     H2 9498   2.164   5.581   7.677
 3086WAT      O 9499   8.271   6.111   4.058
 3086WAT     H1 9500   8.327   6.068   4.129
 3086WAT     H2 9501   8.263   6.209   4.076
 3087WAT      O 9502   3.293   4.122   6.124
 3087WAT     H1 9503   3.229   4.113   6.200
 3087WAT     H2 9504   3.291   4.039   6.069
 3088WAT      O 9505   3.595   4.199   9.784
 3088WAT     H1 9506   3.685   4.158   9.799
 3088WAT     H2 9507   3.603   4.276   9.720
 3089WAT      O 9508   0.605   3.583   0.126
 3089WAT     H1 9509   0.700   3.581   0.157
 3089WAT     H2 9510   0.544   3.575   0.205
 3090WAT      O 9511   9.717   5.741   0.250
 3090WAT     H1 9512   9.720   5.703   0.342
 3090WAT     H2 9513   9.762   5.678   0.186
 3091WAT      O 9514   2.821   9.515   0.497
 3091WAT     H1 9515   2.763   9.521   0.579
 3091WAT     H2 9516   2.833   9.419   0.472
 3092WAT      O 9517   9.218   8.350   0.504
 3092WAT     H1 9518   9.127   8.310   0.515
 3092WAT     H2 9519   9.239   8.408   0.582
 3093WAT      O 9520   1.403   1.930   0.885
 3093WAT     H1 9521   1.468   1.884   0.945
 3093WAT     H2 9522   1.341   1.986   0.941
 3094WAT      O 9523   3.793   8.822   9.708
 3094WAT     H1 9524   3.780   8.832   9.610
 3094WAT     H2 9525   3.839   8.903   9.744
 3095WAT      O 9526   7.979   2.634   5.442
 3095WAT     H1 9527   7.962   2.556   5.502
 3095WAT     H2 9528   7.905   2.643   5.376
 3096WAT      O 9529   1.459   6.728   1.887
 3096WAT     H1 9530   1.426   6.695   1.976
 3096WAT     H2 9531   1.395   6.699   1.816
 3097WAT      O 9532   4.715   0.455   6.833
 3097WAT     H1 9533   4.804   0.424   6.867
 3097WAT     H2 9534   4.644   0.390   6.862
 3098WAT      O 9535   6.878   2.518   3.169
 3098WAT     H1 9536   6.965   2.540   3.213
 3098WAT     H2 9537   6.823   2.462   3.231
 3099WAT      O 9538   2.850   2.223   9.076
 3099WAT     H1 9539   2.832   2.306   9.129
 3099WAT     H2 9540   2.935   2.235   9.024
 3100WAT      O 9541   6.088   3.075   6.635
 3100WAT     H1 9542   6.035   3.076   6.720
 3100WAT     H2 9543   6.037   3.121   6.563
 3101WAT      O 9544   9.498   3.627   9.243
 3101WAT     H1 9545   9.529   3.690   9.172
 3101WAT     H2 9546   9.529   3.659   9.333
 3102WAT      O 9547   2.876   3.551   5.004
 3102WAT     H1 9548   2.928   3.490   4.944
 3102WAT     H2 9549   2.853   3.503   5.088
 3103WAT      O 9550   0.135   5.786   8.822
 3103WAT     H1 9551   0.041   5.818   8.825
 3103WAT     H2 9552   0.158   5.740   8.907
 3104WAT      O 9553   6.604   0.465   8.487
 3104WAT     H1 9554   6.521   0.513   8.515
 3104WAT     H2 9555   6.682   0.526   8.498
 3105WAT      O 9556   3.750   6.426   3.186
 3105WAT     H1 9557   3.668   6.462   3.141
 3105WAT     H2 9558   3.734   6.421   3.285
 3106WAT      O 9559   0.500   9.124   7.824
 3106WAT     H1 9560   0.447   9.192   7.874
 3106WAT     H2 9561   0.561   9.076   7.887
 3107WAT      O 9562   5.440   3.720   6.791
 3107WAT     H1 9563   5.448   3.813   6.755
 3107WAT     H2 9564   5.384   3.722   6.874
 3108WAT      O 9565   3.120   1.852   1.220
 3108WAT     H1 9566   3.029   1.852   1.180
 3108WAT     H2 9567   3.158   1.945   1.216
 3109WAT      O 9568   7.395   4.835   5.372
 3109WAT     H1 9569   7.418   4.860   5.278
 3109WAT     H2 9570   7.478   4.830   5.427
 3110WAT      O 9571   9.484   8.259   0.477
 3110WAT     H1 9572   9.495   8.225   0.570
 3110WAT     H2 9573   9.400   8.313   0.472
 3111WAT      O 9574   9.832   6.314   3.358
 3111WAT     H1 9575   9.753   6.374   3.360
 3111WAT     H2 9576   9.897   6.346   3.288
 3112WAT      O 9577   9.845   1.047   1.728
 3112WAT     H1 9578   9.935   1.070   1.766
 3112WAT     H2 9579   9.857   0.992   1.646
 3113WAT      O 9580   1.700   7.636   0.365
 3113WAT     H1 9581   1.670   7.731   0.362
 3113WAT     H2 9582   1.650   7.587   0.437
 3114WAT      O 9583   4.001   8.124   2.445
 3114WAT     H1 9584   3.906   8.114   2.476
 3114WAT     H2 9585   4.060   8.143   2.524
 3115WAT      O 9586   2.655   2.981   0.772
 3115WAT     H1 9587   2.607   2.895   0.753
 3115WAT     H2 9588   2.615   3.024   0.853
 3116WAT      O 9589   2.329   0.934   1.551
 3116WAT     H1 9590   2.233   0.925   1.574
 3116WAT     H2 9591   2.341   1.005   1.482
 3117WAT      O 9592   1.762   6.307   9.660
 3117WAT     H1 9593   1.773   6.253   9.576
 3117WAT     H2 9594   1.665   6.319   9.679
 3118WAT      O 9595   5.498   7.692   2.580
 3118WAT     H1 9596   5.569   7.638   2.536
 3118WAT     H2 9597   5.457   7.754   2.513
 3119WAT      O 9598   2.704   4.672   2.302
 3119WAT     H1 9599   2.682   4.579   2.332
 3119WAT     H2 9600   2.673   4.738   2.370
 3120WAT      O 9601   3.384   7.355   8.553
 3120WAT     H1 9602   3.303   7.389   8.506
 3120WAT     H2 9603   3.466   7.388   8.507
 3121WAT      O 9604   5.186   2.872   8.570
 3121WAT     H1 9605   5.276   2.827   8.570
 3121WAT     H2 9606   5.199   2.971   8.579
 3122WAT      O 9607   7.739   3.174   1.756
 3122WAT     H1 9608   7.787   3.262   1.747
 3122WAT     H2 9609   7.796   3.101   1.719
 3123WAT      O 9610   5.527   0.035   3.190
 3123WAT     H1 9611   5.599   0.060   3.255
 3123WAT     H2 9612   5.494   0.117   3.144
 3124WAT      O 9613   4.136   0.381   8.246
 3124WAT     H1 9614   4.084   0.390   8.331
 3124WAT     H2 9615   4.079   0.340   8.175
 3125WAT      O 9616   4.539   3.946   3.125
 3125WAT     H1 9617   4.568   3.867   3.072
 3125WAT     H2 9618   4.483   3.916   3.202
 3126WAT      O 9619   2.995   6.103   7.105
 3126WAT     H1 9620   3.018   6.101   7.202
 3126WAT     H2 9621   2.898   6.083   7.093
 3127WAT      O 9622   5.533   0.727   5.812
 3127WAT     H1 9623   5.611   0.726   5.749
 3127WAT     H2 9624   5.470   0.653   5.788
 3128WAT      O 9625   5.142   0.242   1.408
 3128WAT     H1 9626   5.142   0.185   1.490
 3128WAT     H2 9627   5.179   0.190   1.331
 3129WAT      O 9628   1.519   8.919   3.621
 3129WAT     H1 9629   1.567   9.005   3.638
 3129WAT     H2 9630   1.443   8.910   3.685
 3130WAT      O 9631   7.842   6.813   8.812
 3130WAT     H1 9632   7.850   6.750   8.735
 3130WAT     H2 9633   7.872   6.768   8.896
 3131WAT      O 9634   6.391   0.280   4.322
 3131WAT     H1 9635   6.310   0.229   4.353
 3131WAT     H2 9636   6.397   0.275   4.223
 3132WAT      O 9637   7.458   7.460   1.770
 3132WAT     H1 9638   7.456   7.541   1.829
 3132WAT     H2 9639   7.552   7.441   1.743
 3133WAT      O 9640   3.346   4.582   2.255
 3133WAT     H1 9641   3.357   4.638   2.337
 3133WAT     H2 9642   3.396   4.624   2.179
 3134WAT      O 9643   4.801   7.708   3.741
 3134WAT     H1 9644   4.820   7.703   3.839
 3134WAT     H2 9645   4.746   7.629   3.713
 3135WAT      O 9646   3.095   9.022   5.663
 3135WAT     H1 9647   3.001   9.029   5.631
 3135WAT     H2 9648   3.118   9.102   5.718
 3136WAT      O 9649   8.064   0.769   3.843
 3136WAT     H1 9650   8.037   0.801   3.934
 3136WAT     H2 9651   8.096   0.675   3.849
 3137WAT      O 9652   1.757   6.216   1.074
 3137WAT     H1 9653   1.687   6.146   1.062
 3137WAT     H2 9654   1.724   6.286   1.137
 3138WAT      O 9655   2.292   7.246   9.632
 3138WAT     H1 9656   2.206   7.252   9.582
 3138WAT     H2 9657   2.275   7.252   9.730
 3139WAT      O 9658   8.756   1.296   4.185
 3139WAT     H1 9659   8.708   1.307   4.272
 3139WAT     H2 9660   8.802   1.207   4.184
 3140WAT      O 9661   1.186   0.748   8.418
 3140WAT     H1 9662   1.229   0.757   8.508
 3140WAT     H2 9663   1.088   0.728   8.429
 3141WAT      O 9664   0.831   3.178   6.632
 3141WAT     H1 9665   0.766   3.242   6.674
 3141WAT     H2 9666   0.881   3.130   6.704
 3142WAT      O 9667   1.694   5.767   5.578
 3142WAT     H1 9668   1.771   5.771   5.513
 3142WAT     H2 9669   1.613   5.734   5.530
 3143WAT      O 9670   2.159   2.472   9.691
 3143WAT     H1 9671   2.195   2.468   9.784
 3143WAT     H2 9672   2.174   2.563   9.653
 3144WAT      O 9673   5.977   8.745   4.789
 3144WAT     H1 9674   5.885   8.772   4.819
 3144WAT     H2 9675   6.035   8.825   4.780
 3145WAT      O 9676   2.406   2.089   4.449
 3145WAT     H1 9677   2.415   2.186   4.474
 3145WAT     H2 9678   2.492   2.042   4.470
 3146WAT      O 9679   7.125   7.417   6.597
 3146WAT     H1 9680   7.080   7.427   6.686
 3146WAT     H2 9681   7.217   7.381   6.610
 3147WAT      O 9682   5.790   3.741   6.574
 3147WAT     H1 9683   5.799   3.651   6.616
 3147WAT     H2 9684   5.850   3.806   6.620
 3148WAT      O 9685   7.647   0.029   5.583
 3148WAT     H1 9686   7.580   0.015   5.511
 3148WAT     H2 9687   7.608   0.085   5.656
 3149WAT      O 9688   0.936   3.318   9.625
 3149WAT     H1 9689   0.904   3.320   9.530
 3149WAT     H2 9690   0.899   3.398   9.674
 3150WAT      O 9691   3.693   2.254   3.563
 3150WAT     H1 9692   3.770   2.194   3.542
 3150WAT     H2 9693   3.679   2.255   3.662
 3151WAT      O 9694   5.107   8.440   9.703
 3151WAT     H1 9695   5.019   8.475   9.671
 3151WAT     H2 9696   5.106   8.340   9.703
 3152WAT      O 9697   9.753   7.820   4.413
 3152WAT     H1 9698   9.701   7.893   4.458
 3152WAT     H2 9699   9.803   7.767   4.482
 3153WAT      O 9700   5.889   6.106   5.332
 3153WAT     H1 9701   5.848   6.067   5.414
 3153WAT     H2 9702   5.979   6.064   5.316
 3154WAT      O 9703   6.641   7.376   8.543
 3154WAT     H1 9704   6.698   7.329   8.475
 3154WAT     H2 9705   6.698   7.403   8.621
 3155WAT      O 9706   4.518   5.460   5.666
 3155WAT     H1 9707   4.505   5.491   5.760
 3155WAT     H2 9708   4.488   5.364   5.658
 3156WAT      O 9709   0.895   6.910   8.815
 3156WAT     H1 9710   0.810   6.953   8.784
 3156WAT     H2 9711   0.880   6.867   8.904
 3157WAT      O 9712   0.547   1.645   9.678
 3157WAT     H1 9713   0.588   1.560   9.712
 3157WAT     H2 9714   0.506   1.695   9.753
 3158WAT      O 9715   0.768   2.030   4.060
 3158WAT     H1 9716   0.784   2.039   3.962
 3158WAT     H2 9717   0.854   2.040   4.109
 3159WAT      O 9718   4.587   2.854   0.688
 3159WAT     H1 9719   4.508   2.916   0.696
 3159WAT     H2 9720   4.671   2.905   0.705
 3160WAT      O 9721   0.637   7.161   6.719
 3160WAT     H1 9722   0.663   7.149   6.815
 3160WAT     H2 9723   0.620   7.072   6.678
 3161WAT      O 9724   8.158   6.064   2.367
 3161WAT     H1 9725   8.068   6.045   2.330
 3161WAT     H2 9726   8.149   6.107   2.458
 3162WAT      O 9727   5.362   7.549   2.978
 3162WAT     H1 9728   5.281   7.571   3.032
 3162WAT     H2 9729   5.436   7.521   3.039
 3163WAT      O 9730   6.777   4.892   2.388
 3163WAT     H1 9731   6.871   4.868   2.410
 3163WAT     H2 9732   6.751   4.848   2.302
 3164WAT      O 9733   1.152   6.098   7.556
 3164WAT     H1 9734   1.150   6.040   7.637
 3164WAT     H2 9735   1.072   6.079   7.499
 3165WAT      O 9736   2.137   3.005   3.736
 3165WAT     H1 9737   2.199   2.974   3.808
 3165WAT     H2 9738   2.081   2.929   3.704
 3166WAT      O 9739   0.616   2.908   9.458
 3166WAT     H1 9740   0.646   2.984   9.402
 3166WAT     H2 9741   0.548   2.940   9.524
 3167WAT      O 9742   4.316   4.494   6.671
 3167WAT     H1 9743   4.311   4.435   6.751
 3167WAT     H2 9744   4.225   4.507   6.633
 3168WAT      O 9745   6.716   2.735   5.548
 3168WAT     H1 9746   6.731   2.774   5.639
 3168WAT     H2 9747   6.725   2.636   5.552
 3169WAT      O 9748   0.932   0.400   6.924
 3169WAT     H1 9749   0.859   0.425   6.861
 3169WAT     H2 9750   1.014   0.375   6.872
 3170WAT      O 9751   8.920   2.497   1.313
 3170WAT     H1 9752   9.003   2.520   1.365
 3170WAT     H2 9753   8.846   2.476   1.376
 3171WAT      O 9754   7.495   3.504   7.633
 3171WAT     H1 9755   7.417   3.447   7.657
 3171WAT     H2 9756   7.490   3.528   7.536
 3172WAT      O 9757   0.572   9.343   6.888
 3172WAT     H1 9758   0.615   9.260   6.853
 3172WAT     H2 9759   0.600   9.357   6.984
 3173WAT      O 9760   4.694   7.284   2.395
 3173WAT     H1 9761   4.706   7.199   2.448
 3173WAT     H2 9762   4.773   7.343   2.408
 3174WAT      O 9763   5.191   0.036   0.773
 3174WAT     H1 9764   5.271   0.055   0.716
 3174WAT     H2 9765   5.140   0.121   0.788
 3175WAT      O 9766   4.392   0.965   3.854
 3175WAT     H1 9767   4.363   0.933   3.764
 3175WAT     H2 9768   4.452   0.896   3.896
 3176WAT      O 9769   0.164   9.597   9.675
 3176WAT     H1 9770   0.179   9.667   9.605
 3176WAT     H2 9771   0.208   9.511   9.646
 3177WAT      O 9772   3.934   3.269   0.697
 3177WAT     H1 9773   4.000   3.308   0.633
 3177WAT     H2 9774   3.857   3.332   0.708
 3178WAT      O 9775   1.306   0.255   8.079
 3178WAT     H1 9776   1.405   0.238   8.069
 3178WAT     H2 9777   1.284   0.345   8.042
 3179WAT      O 9778   2.664   8.138   7.706
 3179WAT     H1 9779   2.680   8.222   7.654
 3179WAT     H2 9780   2.668   8.059   7.645
 3180WAT      O 9781   7.218   2.647   1.406
 3180WAT     H1 9782   7.208   2.703   1.488
 3180WAT     H2 9783   7.250   2.704   1.330
 3181WAT      O 9784   5.967   2.300   8.203
 3181WAT     H1 9785   5.886   2.304   8.262
 3181WAT     H2 9786   6.002   2.206   8.203
 3182WAT      O 9787   4.696   8.380   1.809
 3182WAT     H1 9788   4.666   8.364   1.903
 3182WAT     H2 9789   4.744   8.299   1.775
 3183WAT      O 9790   8.792   1.393   9.859
 3183WAT     H1 9791   8.805   1.482   9.903
 3183WAT     H2 9792   8.698   1.386   9.826
 3184WAT      O 9793   8.888   6.403   9.872
 3184WAT     H1 9794   8.951   6.358   9.935
 3184WAT     H2 9795   8.828   6.336   9.830
 3185WAT      O 9796   0.904   1.156   2.412
 3185WAT     H1 9797   0.897   1.096   2.492
 3185WAT     H2 9798   0.956   1.110   2.341
 3186WAT      O 9799   8.023   1.410   4.052
 3186WAT     H1 9800   8.040   1.489   3.993
 3186WAT     H2 9801   7.936   1.422   4.100
 3187WAT      O 9802   7.245   2.387   5.375
 3187WAT     H1 9803   7.232   2.291   5.400
 3187WAT     H2 9804   7.155   2.430   5.361
 3188WAT      O 9805   1.982   2.262   7.284
 3188WAT     H1 9806   1.908   2.224   7.340
 3188WAT     H2 9807   2.035   2.187   7.245
 3189WAT      O 9808   1.155   5.175   5.556
 3189WAT     H1 9809   1.202   5.263   5.561
 3189WAT     H2 9810   1.094   5.174   5.477
 3190WAT      O 9811   8.564   4.207   9.254
 3190WAT     H1 9812   8.533   4.213   9.348
 3190WAT     H2 9813   8.486   4.192   9.193
 3191WAT      O 9814   9.369   8.230   7.566
 3191WAT     H1 9815   9.406   8.290   7.496
 3191WAT     H2 9816   9.306   8.281   7.625
 3192WAT      O 9817   3.127   6.947   7.035
 3192WAT     H1 9818   3.196   7.013   7.006
 3192WAT     H2 9819   3.129   6.939   7.134
 3193WAT      O 9820   9.281   6.364   0.015
 3193WAT     H1 9821   9.308   6.407  -0.071
 3193WAT     H2 9822   9.363   6.341   0.068
 3194WAT      O 9823   7.637   6.081   4.556
 3194WAT     H1 9824   7.680   6.004   4.509
 3194WAT     H2 9825   7.705   6.152   4.574
 3195WAT      O 9826   5.786   7.603   3.294
 3195WAT     H1 9827   5.800   7.523   3.353
 3195WAT     H2 9828   5.764   7.683   3.351
 3196WAT      O 9829   9.874   0.281   7.410
 3196WAT     H1 9830   9.793   0.298   7.354
 3196WAT     H2 9831   9.956   0.288   7.353
 3197WAT      O 9832   8.617   4.620   4.700
 3197WAT     H1 9833   8.554   4.557   4.654
 3197WAT     H2 9834   8.704   4.574   4.716
 3198WAT      O 9835   3.581   1.563   1.449
 3198WAT     H1 9836   3.527   1.647   1.443
 3198WAT     H2 9837   3.537   1.500   1.513
 3199WAT      O 9838   6.090   3.304   5.099
 3199WAT     H1 9839   6.163   3.308   5.031
 3199WAT     H2 9840   6.041   3.218   5.091
 3200WAT      O 9841   0.947   9.134   6.993
 3200WAT     H1 9842   0.956   9.040   6.959
 3200WAT     H2 9843   0.860   9.144   7.042
 3201WAT      O 9844   4.724   1.294   6.530
 3201WAT     H1 9845   4.823   1.293   6.511
 3201WAT     H2 9846   4.678   1.229   6.470
 3202WAT      O 9847   9.180   6.649   1.662
 3202WAT     H1 9848   9.145   6.566   1.707
 3202WAT     H2 9849   9.251   6.625   1.597
 3203WAT      O 9850   3.108   1.727   9.719
 3203WAT     H1 9851   3.183   1.753   9.659
 3203WAT     H2 9852   3.067   1.809   9.759
 3204WAT      O 9853   5.573   2.645   1.256
 3204WAT     H1 9854   5.568   2.587   1.337
 3204WAT     H2 9855   5.497   2.710   1.257
 3205WAT      O 9856   9.721   1.929   2.927
 3205WAT     H1 9857   9.806   1.902   2.972
 3205WAT     H2 9858   9.730   2.021   2.889
 3206WAT      O 9859   9.406   4.407   7.231
 3206WAT     H1 9860   9.417   4.401   7.330
 3206WAT     H2 9861   9.409   4.315   7.192
 3207WAT      O 9862   0.283   2.286   1.340
 3207WAT     H1 9863   0.274   2.192   1.374
 3207WAT     H2 9864   0.371   2.296   1.293
 3208WAT      O 9865   6.549   4.383   5.923
 3208WAT     H1 9866   6.542   4.447   6.000
 3208WAT     H2 9867   6.516   4.293   5.952
 3209WAT      O 9868   9.172   5.443   2.216
 3209WAT     H1 9869   9.140   5.377   2.284
 3209WAT     H2 9870   9.224   5.396   2.145
 3210WAT      O 9871   5.577   0.605   8.118
 3210WAT     H1 9872   5.521   0.607   8.035
 3210WAT     H2 9873   5.531   0.552   8.189
 3211WAT      O 9874   2.491   2.301   3.664
 3211WAT     H1 9875   2.560   2.332   3.730
 3211WAT     H2 9876   2.466   2.206   3.683
 3212WAT      O 9877   6.905   7.216   1.244
 3212WAT     H1 9878   6.869   7.124   1.258
 3212WAT     H2 9879   6.864   7.278   1.312
 3213WAT      O 9880   4.793   8.024   6.416
 3213WAT     H1 9881   4.734   8.071   6.481
 3213WAT     H2 9882   4.738   7.959   6.363
 3214WAT      O 9883   4.124   9.050   3.832
 3214WAT     H1 9884   4.189   9.113   3.874
 3214WAT     H2 9885   4.118   8.967   3.887
 3215WAT      O 9886   2.293   9.022   0.123
 3215WAT     H1 9887   2.386   9.007   0.091
 3215WAT     H2 9888   2.285   9.114   0.160
 3216WAT      O 9889   7.298   7.038   9.464
 3216WAT     H1 9890   7.325   7.022   9.369
 3216WAT     H2 9891   7.217   6.983   9.486
 3217WAT      O 9892   2.373   8.629   5.723
 3217WAT     H1 9893   2.426   8.612   5.640
 3217WAT     H2 9894   2.397   8.719   5.760
 3218WAT      O 9895   5.909   2.072   9.677
 3218WAT     H1 9896   5.996   2.059   9.724
 3218WAT     H2 9897   5.855   1.988   9.686
 3219WAT      O 9898   2.802   8.790   2.828
 3219WAT     H1 9899   2.716   8.755   2.791
 3219WAT     H2 9900   2.869   8.798   2.754
 3220WAT      O 9901   2.190   5.719   2.449
 3220WAT     H1 9902   2.122   5.653   2.482
 3220WAT     H2 9903   2.281   5.678   2.455
 3221WAT      O 9904   6.511   2.044   2.963
 3221WAT     H1 9905   6.482   1.964   3.015
 3221WAT     H2 9906   6.597   2.079   3.000
 3222WAT      O 9907   0.486   4.226   9.809
 3222WAT     H1 9908   0.437   4.268   9.732
 3222WAT     H2 9909   0.577   4.268   9.817
 3223WAT      O 9910   8.326   9.645   4.803
 3223WAT     H1 9911   8.330   9.644   4.704
 3223WAT     H2 9912   8.415   9.670   4.841
 3224WAT      O 9913   3.837   3.231   7.226
 3224WAT     H1 9914   3.745   3.234   7.188
 3224WAT     H2 9915   3.857   3.138   7.256
 3225WAT      O 9916   0.750   8.433   0.009
 3225WAT     H1 9917   0.807   8.377  -0.052
 3225WAT     H2 9918   0.658   8.441  -0.030
 3226WAT      O 9919   4.495   1.309   0.532
 3226WAT     H1 9920   4.471   1.354   0.618
 3226WAT     H2 9921   4.593   1.294   0.529
 3227WAT      O 9922   8.166   4.227   2.239
 3227WAT     H1 9923   8.198   4.225   2.144
 3227WAT     H2 9924   8.150   4.321   2.266
 3228WAT      O 9925   4.939   4.436   9.641
 3228WAT     H1 9926   4.883   4.483   9.709
 3228WAT     H2 9927   5.022   4.400   9.684
 3229WAT      O 9928   3.570   2.883   0.978
 3229WAT     H1 9929   3.590   2.822   1.054
 3229WAT     H2 9930   3.591   2.977   1.004
 3230WAT      O 9931   1.994   9.340   2.820
 3230WAT     H1 9932   2.033   9.406   2.884
 3230WAT     H2 9933   1.968   9.387   2.735
 3231WAT      O 9934   3.001   7.051   9.034
 3231WAT     H1 9935   3.030   6.972   8.980
 3231WAT     H2 9936   2.978   7.022   9.127
 3232WAT      O 9937   9.314   3.692   3.477
 3232WAT     H1 9938   9.264   3.751   3.541
 3232WAT     H2 9939   9.400   3.662   3.519
 3233WAT      O 9940   4.436   9.703   4.454
 3233WAT     H1 9941   4.464   9.620   4.404
 3233WAT     H2 9942   4.373   9.756   4.397
 3234WAT      O 9943   0.917   3.671   9.554
 3234WAT     H1 9944   0.959   3.761   9.561
 3234WAT     H2 9945   0.877   3.660   9.463
 3235WAT      O 9946   5.833   0.994   3.212
 3235WAT     H1 9947   5.749   1.003   3.159
 3235WAT     H2 9948   5.884   0.914   3.180
 3236WAT      O 9949   8.576   1.891   2.164
 3236WAT     H1 9950   8.526   1.958   2.219
 3236WAT     H2 9951   8.586   1.806   2.215
 3237WAT      O 9952   4.894   9.676   7.113
 3237WAT     H1 9953   4.929   9.635   7.028
 3237WAT     H2 9954   4.922   9.621   7.191
 3238WAT      O 9955   5.098   8.873   4.190
 3238WAT     H1 9956   5.025   8.810   4.216
 3238WAT     H2 9957   5.076   8.915   4.102
 3239WAT      O 9958   4.549   4.236   8.678
 3239WAT     H1 9959   4.542   4.284   8.765
 3239WAT     H2 9960   4.620   4.166   8.684
 3240WAT      O 9961   6.304   4.404   4.627
 3240WAT     H1 9962   6.287   4.460   4.546
 3240WAT     H2 9963   6.246   4.434   4.702
 3241WAT      O 9964   0.320   1.053   1.502
 3241WAT     H1 9965   0.280   0.983   1.561
 3241WAT     H2 9966   0.334   1.016   1.410
 3242WAT      O 9967   4.800   6.497   5.610
 3242WAT     H1 9968   4.785   6.403   5.641
 3242WAT     H2 9969   4.898   6.512   5.597
 3243WAT      O 9970   0.831   0.611   9.461
 3243WAT     H1 9971   0.851   0.513   9.459
 3243WAT     H2 9972   0.854   0.651   9.372
 3244WAT      O 9973   0.618   9.449   4.036
 3244WAT     H1 9974   0.661   9.380   3.978
 3244WAT     H2 9975   0.664   9.452   4.124
 3245WAT      O 9976   0.006   4.024   3.429
 3245WAT     H1 9977   0.069   3.964   3.380
 3245WAT     H2 9978  -0.085   4.016   3.389
 3246WAT      O 9979   8.432   4.228   1.798
 3246WAT     H1 9980   8.457   4.172   1.720
 3246WAT     H2 9981   8.439   4.325   1.773
 3247WAT      O 9982   3.361   4.162   1.219
 3247WAT     H1 9983   3.376   4.220   1.298
 3247WAT     H2 9984   3.442   4.165   1.160
 3248WAT      O 9985   7.228   3.382   6.740
 3248WAT     H1 9986   7.169   3.391   6.820
 3248WAT     H2 9987   7.182   3.423   6.661
 3249WAT      O 9988   9.187   0.012   9.839
 3249WAT     H1 9989   9.276  -0.002   9.882
 3249WAT     H2 9990   9.171  -0.059   9.770
 3250WAT      O 9991   8.832   5.029   4.861
 3250WAT     H1 9992   8.898   4.972   4.910
 3250WAT     H2 9993   8.844   5.018   4.763
 3251WAT      O 9994   1.524   9.193   1.916
 3251WAT     H1 9995   1.555   9.287   1.928
 3251WAT     H2 9996   1.553   9.160   1.826
 3252WAT      O 9997   1.171   7.901   9.845
 3252WAT     H1 9998   1.233   7.870   9.917
 3252WAT     H2 9999   1.209   7.981   9.799
 3253WAT      O10000   8.438   9.710   3.670
 3253WAT     H110001   8.501   9.715   3.592
 3253WAT     H210002   8.489   9.685   3.753
 3254WAT      O10003   7.076   9.230   6.692
 3254WAT     H110004   7.148   9.200   6.629
 3254WAT     H210005   7.000   9.165   6.689
 3255WAT      O10006   7.786   4.724   0.580
 3255WAT     H110007   7.711   4.771   0.533
 3255WAT     H210008   7.869   4.728   0.524
 3256WAT      O10009   0.797   9.578   5.685
 3256WAT     H110010   0.890   9.544   5.673
 3256WAT     H210011   0.736   9.534   5.619
 3257WAT      O10012   9.381   2.648   7.502
 3257WAT     H110013   9.328   2.595   7.568
 3257WAT     H210014   9.334   2.647   7.413
 3258WAT      O10015   0.188   4.538   1.197
 3258WAT     H110016   0.229   4.501   1.280
 3258WAT     H210017   0.254   4.598   1.151
 3259WAT      O10018   0.763   3.070   4.176
 3259WAT     H110019   0.796   3.069   4.082
 3259WAT     H210020   0.769   3.162   4.213
 3260WAT      O10021   3.222   9.271   7.467
 3260WAT     H110022   3.164   9.194   7.442
 3260WAT     H210023   3.198   9.302   7.559
 3261WAT      O10024   2.185   9.841   3.020
 3261WAT     H110025   2.194   9.804   3.113
 3261WAT     H210026   2.253   9.798   2.960
 3262WAT      O10027   5.710   6.446   8.821
 3262WAT     H110028   5.796   6.426   8.867
 3262WAT     H210029   5.641   6.378   8.847
 3263WAT      O10030   7.003   3.528   4.503
 3263WAT     H110031   6.993   3.620   4.540
 3263WAT     H210032   7.035   3.532   4.409
 3264WAT      O10033   6.503   0.543   2.952
 3264WAT     H110034   6.492   0.493   3.037
 3264WAT     H210035   6.577   0.609   2.961
 3265WAT      O10036   6.991   5.863   2.085
 3265WAT     H110037   6.937   5.779   2.086
 3265WAT     H210038   6.947   5.930   2.025
 3266WAT      O10039   9.652   0.759   1.557
 3266WAT     H110040   9.649   0.682   1.493
 3266WAT     H210041   9.569   0.760   1.612
 3267WAT      O10042   4.891   7.460   2.415
 3267WAT     H110043   4.982   7.431   2.446
 3267WAT     H210044   4.867   7.545   2.461
 3268WAT      O10045   2.701   0.250   8.876
 3268WAT     H110046   2.662   0.340   8.853
 3268WAT     H210047   2.646   0.207   8.947
 3269WAT      O10048   9.303   3.319   1.935
 3269WAT     H110049   9.213   3.276   1.930
 3269WAT     H210050   9.344   3.302   2.025
 3270WAT      O10051   0.923   5.094   3.466
 3270WAT     H110052   1.009   5.140   3.490
 3270WAT     H210053   0.931   5.057   3.373
 3271WAT      O10054   0.624   5.291   6.200
 3271WAT     H110055   0.582   5.381   6.213
 3271WAT     H210056   0.646   5.278   6.103
 3272WAT      O10057   7.896   7.808   5.074
 3272WAT     H110058   7.973   7.769   5.024
 3272WAT     H210059   7.914   7.805   5.172
 3273WAT      O10060   1.051   3.854   4.430
 3273WAT     H110061   1.057   3.790   4.354
 3273WAT     H210062   1.099   3.817   4.509
 3274WAT      O10063   2.527   8.757   4.309
 3274WAT     H110064   2.549   8.757   4.406
 3274WAT     H210065   2.571   8.836   4.265
 3275WAT      O10066   1.920   0.169   5.036
 3275WAT     H110067   1.934   0.186   5.133
 3275WAT     H210068   1.853   0.233   4.999
 3276WAT      O10069   7.860   0.455   3.677
 3276WAT     H110070   7.833   0.540   3.721
 3276WAT     H210071   7.782   0.391   3.679
 3277WAT      O10072   1.818   1.866   2.182
 3277WAT     H110073   1.887   1.809   2.226
 3277WAT     H210074   1.777   1.928   2.249
 3278WAT      O10075   7.712   7.818   0.539
 3278WAT     H110076   7.740   7.899   0.591
 3278WAT     H210077   7.775   7.804   0.462
 3279WAT      O10078   7.115   3.576   0.179
 3279WAT     H110079   7.203   3.582   0.225
 3279WAT     H210080   7.050   3.526   0.237
 3280WAT      O10081   0.568   0.443   9.244
 3280WAT     H110082   0.668   0.438   9.236
 3280WAT     H210083   0.527   0.443   9.152
 3281WAT      O10084   6.604   3.208   9.129
 3281WAT     H110085   6.537   3.227   9.057
 3281WAT     H210086   6.575   3.251   9.214
 3282WAT      O10087   2.309   6.991   2.208
 3282WAT     H110088   2.297   6.946   2.297
 3282WAT     H210089   2.366   6.934   2.149
 3283WAT      O10090   7.716   8.425   6.702
 3283WAT     H110091   7.798   8.481   6.697
 3283WAT     H210092   7.643   8.467   6.648
 3284WAT      O10093   5.760   4.031   9.105
 3284WAT     H110094   5.765   3.932   9.097
 3284WAT     H210095   5.694   4.056   9.175
 3285WAT      O10096   3.339   5.198   0.239
 3285WAT     H110097   3.345   5.169   0.143
 3285WAT     H210098   3.394   5.281   0.252
 3286WAT      O10099   8.385   6.539   8.879
 3286WAT     H110100   8.409   6.623   8.928
 3286WAT     H210101   8.296   6.550   8.835
 3287WAT      O10102   5.808   7.449   5.975
 3287WAT     H110103   5.713   7.451   6.007
 3287WAT     H210104   5.861   7.518   6.025
 3288WAT      O10105   4.833   6.364   2.856
 3288WAT     H110106   4.762   6.300   2.885
 3288WAT     H210107   4.838   6.364   2.756
 3289WAT      O10108   0.611   0.565   8.043
 3289WAT     H110109   0.562   0.552   8.129
 3289WAT     H210110   0.694   0.619   8.059
 3290WAT      O10111   1.843   9.451   0.334
 3290WAT     H110112   1.837   9.480   0.239
 3290WAT     H210113   1.918   9.499   0.380
 3291WAT      O10114   7.944   6.917   3.843
 3291WAT     H110115   7.963   6.955   3.753
 3291WAT     H210116   7.851   6.880   3.845
 3292WAT      O10117   3.176   5.045   6.622
 3292WAT     H110118   3.185   5.011   6.528
 3292WAT     H210119   3.247   5.003   6.679
 3293WAT      O10120   2.508   6.515   3.154
 3293WAT     H110121   2.507   6.466   3.067
 3293WAT     H210122   2.443   6.591   3.150
 3294WAT      O10123   5.461   5.217   6.627
 3294WAT     H110124   5.441   5.156   6.551
 3294WAT     H210125   5.526   5.287   6.598
 3295WAT      O10126   0.468   1.378   3.696
 3295WAT     H110127   0.410   1.310   3.651
 3295WAT     H210128   0.433   1.469   3.675
 3296WAT      O10129   7.166   1.799   3.395
 3296WAT     H110130   7.237   1.790   3.325
 3296WAT     H210131   7.076   1.800   3.351
 3297WAT      O10132   0.888   2.983   7.724
 3297WAT     H110133   0.825   2.988   7.802
 3297WAT     H210134   0.858   3.048   7.654
 3298WAT      O10135   9.382   2.945   9.145
 3298WAT     H110136   9.348   3.035   9.171
 3298WAT     H210137   9.413   2.896   9.226
 3299WAT      O10138   0.011   8.719   2.411
 3299WAT     H110139   0.073   8.785   2.453
 3299WAT     H210140  -0.029   8.661   2.482
 3300WAT      O10141   4.591   7.362   6.949
 3300WAT     H110142   4.683   7.322   6.941
 3300WAT     H210143   4.575   7.388   7.044
 3301WAT      O10144   8.118   1.055   7.169
 3301WAT     H110145   8.082   1.023   7.257
 3301WAT     H210146   8.049   1.040   7.098
 3302WAT      O10147   4.220   6.491   9.414
 3302WAT     H110148   4.305   6.513   9.367
 3302WAT     H210149   4.181   6.575   9.453
 3303WAT      O10150   3.491   0.008   9.230
 3303WAT     H110151   3.455  -0.077   9.269
 3303WAT     H210152   3.537   0.060   9.302
 3304WAT      O10153   6.162   8.831   2.132
 3304WAT     H110154   6.203   8.743   2.153
 3304WAT     H210155   6.101   8.859   2.206
 3305WAT      O10156   4.535   6.650   1.499
 3305WAT     H110157   4.545   6.738   1.546
 3305WAT     H210158   4.607   6.640   1.431
 3306WAT      O10159   5.191   1.408   0.571
 3306WAT     H110160   5.138   1.400   0.656
 3306WAT     H210161   5.176   1.328   0.514
 3307WAT      O10162   9.259   2.694   9.022
 3307WAT     H110163   9.357   2.700   9.003
 3307WAT     H210164   9.236   2.755   9.098
 3308WAT      O10165   0.174   4.467   9.349
 3308WAT     H110166   0.181   4.480   9.250
 3308WAT     H210167   0.088   4.421   9.370
 3309WAT      O10168   7.789   8.770   3.875
 3309WAT     H110169   7.859   8.752   3.806
 3309WAT     H210170   7.793   8.699   3.946
 3310WAT      O10171   5.433   3.568   3.476
 3310WAT     H110172   5.455   3.562   3.574
 3310WAT     H210173   5.410   3.663   3.453
 3311WAT      O10174   3.426   0.789   1.068
 3311WAT     H110175   3.388   0.696   1.062
 3311WAT     H210176   3.395   0.832   1.153
 3312WAT      O10177   1.991   1.879   3.158
 3312WAT     H110178   1.922   1.915   3.222
 3312WAT     H210179   1.998   1.780   3.170
 3313WAT      O10180   3.805   2.317   3.290
 3313WAT     H110181   3.727   2.322   3.353
 3313WAT     H210182   3.858   2.234   3.308
 3314WAT      O10183   4.228   1.358   3.973
 3314WAT     H110184   4.316   1.329   3.936
 3314WAT     H210185   4.179   1.412   3.904
 3315WAT      O10186   6.117   2.326   5.863
 3315WAT     H110187   6.174   2.291   5.938
 3315WAT     H210188   6.024   2.289   5.871
 3316WAT      O10189   8.350   1.364   3.243
 3316WAT     H110190   8.348   1.373   3.343
 3316WAT     H210191   8.270   1.410   3.204
 3317WAT      O10192   9.620   2.553   1.469
 3317WAT     H110193   9.587   2.606   1.547
 3317WAT     H210194   9.690   2.607   1.421
 3318WAT      O10195   5.088   9.630   1.934
 3318WAT     H110196   5.087   9.600   1.839
 3318WAT     H210197   5.159   9.581   1.984
 3319WAT      O10198   0.074   6.519   9.696
 3319WAT     H110199   0.035   6.520   9.603
 3319WAT     H210200   0.000   6.513   9.763
 3320WAT      O10201   2.173   0.425   6.805
 3320WAT     H110202   2.155   0.513   6.760
 3320WAT     H210203   2.234   0.370   6.748
 3321WAT      O10204   9.713   7.185   1.596
 3321WAT     H110205   9.779   7.113   1.619
 3321WAT     H210206   9.755   7.250   1.533
 3322WAT      O10207   8.584   7.690   6.530
 3322WAT     H110208   8.521   7.761   6.499
 3322WAT     H210209   8.534   7.619   6.578
 3323WAT      O10210   8.384   6.818   9.796
 3323WAT     H110211   8.350   6.871   9.719
 3323WAT     H210212   8.450   6.749   9.763
 3324WAT      O10213   4.798   4.397   8.982
 3324WAT     H110214   4.845   4.394   9.070
 3324WAT     H210215   4.801   4.489   8.945
 3325WAT      O10216   0.869   6.824   5.537
 3325WAT     H110217   0.782   6.816   5.588
 3325WAT     H210218   0.945   6.811   5.600
 3326WAT      O10219   2.045   6.721   5.164
 3326WAT     H110220   2.075   6.704   5.257
 3326WAT     H210221   2.000   6.639   5.128
 3327WAT      O10222   1.480   5.156   1.310
 3327WAT     H110223   1.539   5.149   1.391
 3327WAT     H210224   1.534   5.137   1.228
 3328WAT      O10225   9.178   3.981   9.784
 3328WAT     H110226   9.255   4.042   9.804
 3328WAT     H210227   9.199   3.928   9.702
 3329WAT      O10228   4.336   8.018   6.282
 3329WAT     H110229   4.241   7.988   6.288
 3329WAT     H210230   4.353   8.055   6.191
 3330WAT      O10231   2.342   0.689   8.546
 3330WAT     H110232   2.356   0.736   8.633
 3330WAT     H210233   2.311   0.755   8.477
 3331WAT      O10234   4.874   8.948   9.685
 3331WAT     H110235   4.900   8.867   9.632
 3331WAT     H210236   4.795   8.992   9.643
 3332WAT      O10237   5.002   5.007   9.399
 3332WAT     H110238   4.949   4.972   9.322
 3332WAT     H210239   5.091   5.041   9.367
 3333WAT      O10240   6.563   4.295   0.658
 3333WAT     H110241   6.511   4.313   0.741
 3333WAT     H210242   6.661   4.300   0.678
 3334WAT      O10243   4.824   9.139   0.023
 3334WAT     H110244   4.839   9.158   0.120
 3334WAT     H210245   4.851   9.045   0.002
 3335WAT      O10246   9.440   3.485   1.798
 3335WAT     H110247   9.390   3.428   1.863
 3335WAT     H210248   9.376   3.524   1.731
 3336WAT      O10249   0.476   3.137   0.008
 3336WAT     H110250   0.387   3.175   0.035
 3336WAT     H210251   0.509   3.076   0.080
 3337WAT      O10252   3.545   8.161   3.032
 3337WAT     H110253   3.473   8.172   3.101
 3337WAT     H210254   3.621   8.109   3.071
 3338WAT      O10255   6.451   6.022   2.669
 3338WAT     H110256   6.397   5.954   2.620
 3338WAT     H210257   6.391   6.083   2.719
 3339WAT      O10258   6.626   4.272   2.230
 3339WAT     H110259   6.689   4.347   2.210
 3339WAT     H210260   6.589   4.283   2.322
 3340WAT      O10261   0.127   5.656   9.124
 3340WAT     H110262   0.190   5.605   9.066
 3340WAT     H210263   0.035   5.618   9.116
 3341WAT      O10264   9.820   7.805   4.837
 3341WAT     H110265   9.761   7.848   4.905
 3341WAT     H210266   9.893   7.869   4.810
 3342WAT      O10267   5.497   8.858   7.178
 3342WAT     H110268   5.517   8.760   7.180
 3342WAT     H210269   5.467   8.884   7.086
 3343WAT      O10270   1.253   9.010   7.080
 3343WAT     H110271   1.201   9.030   6.997
 3343WAT     H210272   1.278   9.096   7.125
 3344WAT      O10273   6.745   8.985   6.136
 3344WAT     H110274   6.815   9.042   6.178
 3344WAT     H210275   6.711   9.029   6.053
 3345WAT      O10276   0.146   5.167   4.827
 3345WAT     H110277   0.196   5.234   4.882
 3345WAT     H210278   0.052   5.161   4.861
 3346WAT      O10279   9.229   5.676   8.149
 3346WAT     H110280   9.176   5.637   8.224
 3346WAT     H210281   9.319   5.704   8.182
 3347WAT      O10282   0.240   1.122   5.870
 3347WAT     H110283   0.174   1.114   5.795
 3347WAT     H210284   0.288   1.035   5.880
 3348WAT      O10285   5.269   2.676   6.621
 3348WAT     H110286   5.203   2.735   6.573
 3348WAT     H210287   5.250   2.679   6.720
 3349WAT      O10288   7.620   4.360   4.621
 3349WAT     H110289   7.678   4.416   4.680
 3349WAT     H210290   7.678   4.307   4.558
 3350WAT      O10291   8.571   8.576   3.521
 3350WAT     H110292   8.667   8.596   3.506
 3350WAT     H210293   8.548   8.488   3.479
 3351WAT      O10294   5.369   5.741   3.221
 3351WAT     H110295   5.300   5.774   3.156
 3351WAT     H210296   5.335   5.751   3.314
 3352WAT      O10297   3.939   9.419   4.386
 3352WAT     H110298   3.977   9.433   4.477
 3352WAT     H210299   4.006   9.447   4.317
 3353WAT      O10300   0.623   9.137   2.655
 3353WAT     H110301   0.578   9.225   2.671
 3353WAT     H210302   0.671   9.109   2.738
 3354WAT      O10303   1.889   9.729   1.606
 3354WAT     H110304   1.798   9.689   1.622
 3354WAT     H210305   1.936   9.740   1.693
 3355WAT      O10306   8.584   0.605   6.116
 3355WAT     H110307   8.569   0.544   6.039
 3355WAT     H210308   8.500   0.609   6.172
 3356WAT      O10309   8.094   6.809   4.363
 3356WAT     H110310   8.020   6.789   4.299
 3356WAT     H210311   8.088   6.904   4.392
 3357WAT      O10312   9.631   4.272   5.319
 3357WAT     H110313   9.571   4.276   5.239
 3357WAT     H210314   9.626   4.358   5.369
 3358WAT      O10315   4.664   5.434   0.443
 3358WAT     H110316   4.698   5.521   0.408
 3358WAT     H210317   4.570   5.420   0.410
 3359WAT      O10318   2.273   7.062   0.365
 3359WAT     H110319   2.334   7.141   0.376
 3359WAT     H210320   2.269   7.037   0.268
 3360WAT      O10321   0.332   2.381   0.450
 3360WAT     H110322   0.395   2.405   0.376
 3360WAT     H210323   0.241   2.417   0.429
 3361WAT      O10324   4.786   3.495   0.562
 3361WAT     H110325   4.835   3.444   0.491
 3361WAT     H210326   4.698   3.525   0.526
 3362WAT      O10327   8.647   8.880   9.797
 3362WAT     H110328   8.705   8.815   9.847
 3362WAT     H210329   8.597   8.937   9.862
 3363WAT      O10330   7.378   9.078   0.859
 3363WAT     H110331   7.441   9.000   0.859
 3363WAT     H210332   7.292   9.051   0.901
 3364WAT      O10333   7.295   7.772   7.797
 3364WAT     H110334   7.251   7.860   7.816
 3364WAT     H210335   7.260   7.735   7.710
 3365WAT      O10336   7.895   2.147   6.665
 3365WAT     H110337   7.938   2.059   6.685
 3365WAT     H210338   7.814   2.132   6.608
 3366WAT      O10339   3.438   7.050   5.010
 3366WAT     H110340   3.532   7.016   5.014
 3366WAT     H210341   3.413   7.068   4.914
 3367WAT      O10342   3.087   4.488   1.449
 3367WAT     H110343   3.037   4.402   1.461
 3367WAT     H210344   3.143   4.482   1.366
 3368WAT      O10345   8.245   2.797   1.366
 3368WAT     H110346   8.295   2.859   1.306
 3368WAT     H210347   8.174   2.749   1.313
 3369WAT      O10348   8.039   2.379   7.383
 3369WAT     H110349   8.076   2.288   7.367
 3369WAT     H210350   8.078   2.417   7.467
 3370WAT      O10351   6.228   7.932   0.062
 3370WAT     H110352   6.185   7.985   0.135
 3370WAT     H210353   6.232   7.836   0.088
 3371WAT      O10354   9.716   8.486   1.306
 3371WAT     H110355   9.694   8.583   1.309
 3371WAT     H210356   9.815   8.474   1.306
 3372WAT      O10357   8.852   6.516   7.703
 3372WAT     H110358   8.806   6.429   7.683
 3372WAT     H210359   8.951   6.501   7.707
 3373WAT      O10360   6.276   4.357   1.905
 3373WAT     H110361   6.223   4.290   1.958
 3373WAT     H210362   6.371   4.354   1.934
 3374WAT      O10363   5.018   7.338   3.657
 3374WAT     H110364   4.919   7.334   3.667
 3374WAT     H210365   5.061   7.288   3.731
 3375WAT      O10366   3.891   3.379   9.546
 3375WAT     H110367   3.821   3.448   9.528
 3375WAT     H210368   3.900   3.319   9.467
 3376WAT      O10369   5.006   2.802   7.638
 3376WAT     H110370   5.100   2.815   7.608
 3376WAT     H210371   4.962   2.731   7.582
 3377WAT      O10372   8.290   6.834   4.044
 3377WAT     H110373   8.227   6.860   4.117
 3377WAT     H210374   8.239   6.797   3.967
 3378WAT      O10375   0.039   5.232   5.215
 3378WAT     H110376   0.126   5.194   5.246
 3378WAT     H210377  -0.036   5.182   5.258
 3379WAT      O10378   4.121   0.846   2.787
 3379WAT     H110379   4.130   0.936   2.830
 3379WAT     H210380   4.031   0.838   2.745
 3380WAT      O10381   0.690   3.094   3.782
 3380WAT     H110382   0.665   3.113   3.687
 3380WAT     H210383   0.655   3.167   3.841
 3381WAT      O10384   0.779   3.556   7.566
 3381WAT     H110385   0.720   3.631   7.594
 3381WAT     H210386   0.755   3.528   7.473
 3382WAT      O10387   3.969   7.326   6.273
 3382WAT     H110388   4.036   7.354   6.204
 3382WAT     H210389   3.993   7.367   6.361
 3383WAT      O10390   7.102   1.202   2.922
 3383WAT     H110391   7.171   1.256   2.875
 3383WAT     H210392   7.146   1.138   2.985
 3384WAT      O10393   7.547   3.421   3.571
 3384WAT     H110394   7.599   3.493   3.525
 3384WAT     H210395   7.593   3.395   3.655
 3385WAT      O10396   4.101   7.669   4.917
 3385WAT     H110397   4.117   7.593   4.980
 3385WAT     H210398   4.117   7.756   4.965
 3386WAT      O10399   5.166   7.806   3.340
 3386WAT     H110400   5.255   7.759   3.338
 3386WAT     H210401   5.120   7.786   3.426
 3387WAT      O10402   5.458   2.456   2.968
 3387WAT     H110403   5.462   2.484   2.872
 3387WAT     H210404   5.536   2.494   3.017
 3388WAT      O10405   6.147   6.895   7.681
 3388WAT     H110406   6.124   6.987   7.649
 3388WAT     H210407   6.226   6.900   7.741
 3389WAT      O10408   9.066   4.692   1.054
 3389WAT     H110409   9.136   4.628   1.084
 3389WAT     H210410   8.988   4.641   1.017
 3390WAT      O10411   6.063   2.297   1.698
 3390WAT     H110412   6.025   2.315   1.789
 3390WAT     H210413   6.079   2.384   1.651
 3391WAT      O10414   4.107   9.807   6.040
 3391WAT     H110415   4.141   9.718   6.069
 3391WAT     H210416   4.015   9.820   6.077
 3392WAT      O10417   4.363   4.410   0.349
 3392WAT     H110418   4.367   4.509   0.358
 3392WAT     H210419   4.449   4.370   0.383
 3393WAT      O10420   2.258   6.909   9.248
 3393WAT     H110421   2.235   6.823   9.201
 3393WAT     H210422   2.230   6.986   9.191
 3394WAT      O10423   4.034   2.607   6.839
 3394WAT     H110424   3.962   2.634   6.775
 3394WAT     H210425   4.115   2.577   6.788
 3395WAT      O10426   6.707   5.663   6.030
 3395WAT     H110427   6.683   5.575   5.989
 3395WAT     H210428   6.685   5.736   5.965
 3396WAT      O10429   8.567   4.037   8.101
 3396WAT     H110430   8.480   4.082   8.087
 3396WAT     H210431   8.616   4.081   8.176
 3397WAT      O10432   5.746   0.169   7.540
 3397WAT     H110433   5.774   0.129   7.627
 3397WAT     H210434   5.817   0.233   7.509
 3398WAT      O10435   9.206   1.370   2.110
 3398WAT     H110436   9.301   1.346   2.089
 3398WAT     H210437   9.195   1.469   2.107
 3399WAT      O10438   1.863   5.231   9.714
 3399WAT     H110439   1.824   5.281   9.792
 3399WAT     H210440   1.955   5.265   9.696
 3400WAT      O10441   5.490   3.168   9.702
 3400WAT     H110442   5.435   3.252   9.712
 3400WAT     H210443   5.505   3.128   9.792
 3401WAT      O10444   9.728   5.851   0.685
 3401WAT     H110445   9.704   5.759   0.654
 3401WAT     H210446   9.817   5.849   0.732
 3402WAT      O10447   4.456   4.545   9.067
 3402WAT     H110448   4.530   4.597   9.110
 3402WAT     H210449   4.389   4.518   9.136
 3403WAT      O10450   3.126   8.113   9.023
 3403WAT     H110451   3.189   8.068   8.959
 3403WAT     H210452   3.131   8.066   9.111
 3404WAT      O10453   3.780   9.136   5.387
 3404WAT     H110454   3.800   9.174   5.477
 3404WAT     H210455   3.699   9.078   5.392
 3405WAT      O10456   6.517   8.737   9.014
 3405WAT     H110457   6.432   8.790   9.019
 3405WAT     H210458   6.505   8.651   9.064
 3406WAT      O10459   0.553   3.138   6.493
 3406WAT     H110460   0.645   3.172   6.513
 3406WAT     H210461   0.559   3.043   6.462
 3407WAT      O10462   4.242   9.398   5.142
 3407WAT     H110463   4.320   9.415   5.082
 3407WAT     H210464   4.159   9.392   5.088
 3408WAT      O10465   2.203   5.942   9.858
 3408WAT     H110466   2.205   5.880   9.936
 3408WAT     H210467   2.113   5.984   9.850
 3409WAT      O10468   3.966   3.347   8.495
 3409WAT     H110469   3.918   3.259   8.486
 3409WAT     H210470   4.064   3.331   8.503
 3410WAT      O10471   7.345   3.762   7.451
 3410WAT     H110472   7.271   3.749   7.517
 3410WAT     H210473   7.309   3.757   7.358
 3411WAT      O10474   6.221   5.128   4.309
 3411WAT     H110475   6.127   5.154   4.329
 3411WAT     H210476   6.262   5.196   4.247
 3412WAT      O10477   4.062   1.102   4.311
 3412WAT     H110478   4.061   1.023   4.372
 3412WAT     H210479   4.149   1.105   4.262
 3413WAT      O10480   6.938   4.030   1.768
 3413WAT     H110481   6.841   4.053   1.771
 3413WAT     H210482   6.950   3.932   1.788
 3414WAT      O10483   9.113   7.683   9.059
 3414WAT     H110484   9.205   7.723   9.049
 3414WAT     H210485   9.121   7.585   9.072
 3415WAT      O10486   6.479   4.433   1.429
 3415WAT     H110487   6.495   4.418   1.526
 3415WAT     H210488   6.452   4.346   1.386
 3416WAT      O10489   0.439   7.339   0.886
 3416WAT     H110490   0.354   7.344   0.938
 3416WAT     H210491   0.489   7.425   0.895
 3417WAT      O10492   9.415   4.135   3.145
 3417WAT     H110493   9.481   4.124   3.071
 3417WAT     H210494   9.408   4.049   3.196
 3418WAT      O10495   8.869   6.913   9.422
 3418WAT     H110496   8.889   6.852   9.345
 3418WAT     H210497   8.864   6.859   9.507
 3419WAT      O10498   1.035   3.796   0.714
 3419WAT     H110499   1.103   3.760   0.649
 3419WAT     H210500   0.972   3.723   0.740
 3420WAT      O10501   7.063   7.969   8.660
 3420WAT     H110502   7.134   8.007   8.601
 3420WAT     H210503   7.101   7.950   8.751
 3421WAT      O10504   7.057   9.759   6.864
 3421WAT     H110505   7.085   9.829   6.930
 3421WAT     H210506   7.083   9.788   6.772
 3422WAT      O10507   8.586   6.382   1.467
 3422WAT     H110508   8.530   6.337   1.537
 3422WAT     H210509   8.631   6.313   1.411
 3423WAT      O10510   3.689   8.229   2.101
 3423WAT     H110511   3.672   8.264   2.193
 3423WAT     H210512   3.622   8.157   2.080
 3424WAT      O10513   7.201   8.544   4.260
 3424WAT     H110514   7.214   8.522   4.163
 3424WAT     H210515   7.267   8.614   4.287
 3425WAT      O10516   9.037   1.165   6.917
 3425WAT     H110517   8.949   1.214   6.917
 3425WAT     H210518   9.112   1.231   6.922
 3426WAT      O10519   5.472   1.041   5.775
 3426WAT     H110520   5.551   1.102   5.775
 3426WAT     H210521   5.489   0.965   5.838
 3427WAT      O10522   7.761   9.281   6.690
 3427WAT     H110523   7.844   9.290   6.745
 3427WAT     H210524   7.705   9.206   6.725
 3428WAT      O10525   6.256   7.966   1.840
 3428WAT     H110526   6.169   7.917   1.835
 3428WAT     H210527   6.239   8.064   1.851
 3429WAT      O10528   3.601   0.069   4.358
 3429WAT     H110529   3.658   0.043   4.436
 3429WAT     H210530   3.627   0.160   4.327
 3430WAT      O10531   6.326   6.504   2.190
 3430WAT     H110532   6.328   6.406   2.174
 3430WAT     H210533   6.348   6.523   2.286
 3431WAT      O10534   2.699   8.315   2.327
 3431WAT     H110535   2.765   8.298   2.254
 3431WAT     H210536   2.702   8.240   2.393
 3432WAT      O10537   6.305   5.514   2.583
 3432WAT     H110538   6.269   5.427   2.549
 3432WAT     H210539   6.281   5.586   2.518
 3433WAT      O10540   4.818   7.249   1.191
 3433WAT     H110541   4.859   7.160   1.212
 3433WAT     H210542   4.804   7.300   1.276
 3434WAT      O10543   1.069   3.075   4.347
 3434WAT     H110544   1.159   3.032   4.344
 3434WAT     H210545   0.998   3.007   4.330
 3435WAT      O10546   5.589   5.719   7.277
 3435WAT     H110547   5.536   5.804   7.275
 3435WAT     H210548   5.527   5.641   7.284
 3436WAT      O10549   6.547   7.237   6.251
 3436WAT     H110550   6.518   7.142   6.263
 3436WAT     H210551   6.582   7.272   6.338
 3437WAT      O10552   0.123   9.627   5.054
 3437WAT     H110553   0.072   9.572   4.988
 3437WAT     H210554   0.145   9.716   5.015
 3438WAT      O10555   3.333   7.110   4.767
 3438WAT     H110556   3.303   7.205   4.758
 3438WAT     H210557   3.330   7.066   4.677
 3439WAT      O10558   1.788   7.302   7.277
 3439WAT     H110559   1.765   7.230   7.211
 3439WAT     H210560   1.798   7.262   7.367
 3440WAT      O10561   0.383   4.513   7.336
 3440WAT     H110562   0.293   4.475   7.318
 3440WAT     H210563   0.428   4.458   7.408
 3441WAT      O10564   0.179   0.980   8.952
 3441WAT     H110565   0.232   1.056   8.915
 3441WAT     H210566   0.169   0.990   9.051
 3442WAT      O10567   6.858   0.806   8.079
 3442WAT     H110568   6.919   0.728   8.086
 3442WAT     H210569   6.909   0.890   8.099
 3443WAT      O10570   1.921   7.922   1.519
 3443WAT     H110571   1.945   8.018   1.507
 3443WAT     H210572   2.003   7.866   1.511
 3444WAT      O10573   1.207   2.214   4.849
 3444WAT     H110574   1.242   2.298   4.890
 3444WAT     H210575   1.278   2.143   4.851
 3445WAT      O10576   2.495   8.687   2.341
 3445WAT     H110577   2.480   8.616   2.272
 3445WAT     H210578   2.408   8.729   2.365
 3446WAT      O10579   6.914   4.505   4.476
 3446WAT     H110580   6.924   4.481   4.573
 3446WAT     H210581   7.003   4.532   4.440
 3447WAT      O10582   7.269   8.368   3.142
 3447WAT     H110583   7.337   8.423   3.192
 3447WAT     H210584   7.177   8.395   3.171
 3448WAT      O10585   8.899   1.206   8.537
 3448WAT     H110586   8.825   1.178   8.476
 3448WAT     H210587   8.973   1.247   8.484
 3449WAT      O10588   7.013   8.494   3.222
 3449WAT     H110589   6.978   8.469   3.313
 3449WAT     H210590   6.987   8.588   3.202
 3450WAT      O10591   9.021   6.396   0.471
 3450WAT     H110592   8.975   6.485   0.477
 3450WAT     H210593   9.085   6.396   0.394
 3451WAT      O10594   0.996   9.454   6.729
 3451WAT     H110595   1.082   9.460   6.679
 3451WAT     H210596   0.954   9.365   6.714
 3452WAT      O10597   9.161   2.239   4.619
 3452WAT     H110598   9.187   2.313   4.557
 3452WAT     H210599   9.190   2.260   4.712
 3453WAT      O10600   9.526   5.916   0.846
 3453WAT     H110601   9.612   5.916   0.796
 3453WAT     H210602   9.475   5.833   0.825
 3454WAT      O10603   0.480   3.203   9.065
 3454WAT     H110604   0.460   3.242   9.155
 3454WAT     H210605   0.579   3.190   9.057
 3455WAT      O10606   1.310   5.918   8.038
 3455WAT     H110607   1.301   5.903   8.136
 3455WAT     H210608   1.339   6.012   8.021
 3456WAT      O10609   4.449   2.057   8.336
 3456WAT     H110610   4.485   1.994   8.267
 3456WAT     H210611   4.515   2.132   8.350
 3457WAT      O10612   7.393   0.471   4.722
 3457WAT     H110613   7.413   0.547   4.661
 3457WAT     H210614   7.295   0.469   4.742
 3458WAT      O10615   1.794   2.473   1.504
 3458WAT     H110616   1.860   2.539   1.470
 3458WAT     H210617   1.719   2.522   1.549
 3459WAT      O10618   1.545   6.010   7.184
 3459WAT     H110619   1.461   6.000   7.237
 3459WAT     H210620   1.587   5.921   7.170
 3460WAT      O10621   8.065   4.314   5.115
 3460WAT     H110622   8.105   4.236   5.162
 3460WAT     H210623   8.062   4.393   5.177
 3461WAT      O10624   0.714   8.492   7.293
 3461WAT     H110625   0.790   8.460   7.236
 3461WAT     H210626   0.659   8.558   7.242
 3462WAT      O10627   6.238   9.198   7.313
 3462WAT     H110628   6.267   9.147   7.394
 3462WAT     H210629   6.282   9.288   7.313
 3463WAT      O10630   5.778   1.452   0.346
 3463WAT     H110631   5.717   1.443   0.425
 3463WAT     H210632   5.730   1.421   0.264
 3464WAT      O10633   5.252   8.784   2.191
 3464WAT     H110634   5.291   8.740   2.272
 3464WAT     H210635   5.208   8.714   2.134
 3465WAT      O10636   5.783   4.622   6.044
 3465WAT     H110637   5.771   4.610   6.142
 3465WAT     H210638   5.813   4.716   6.025
 3466WAT      O10639   8.775   0.040   8.334
 3466WAT     H110640   8.868   0.067   8.308
 3466WAT     H210641   8.779  -0.021   8.413
 3467WAT      O10642   3.672   1.617   5.253
 3467WAT     H110643   3.647   1.643   5.347
 3467WAT     H210644   3.717   1.529   5.254
 3468WAT      O10645   4.284   6.440   6.515
 3468WAT     H110646   4.254   6.535   6.523
 3468WAT     H210647   4.367   6.436   6.459
 3469WAT      O10648   0.035   4.631   3.838
 3469WAT     H110649  -0.045   4.685   3.862
 3469WAT     H210650   0.104   4.640   3.910
 3470WAT      O10651   5.248   0.247   2.012
 3470WAT     H110652   5.188   0.167   2.005
 3470WAT     H210653   5.278   0.273   1.920
 3471WAT      O10654   0.495   3.979   0.037
 3471WAT     H110655   0.495   4.074   0.006
 3471WAT     H210656   0.404   3.940   0.023
 3472WAT      O10657   1.930   7.715   1.814
 3472WAT     H110658   2.020   7.748   1.788
 3472WAT     H210659   1.860   7.770   1.767
 3473WAT      O10660   3.999   6.537   6.778
 3473WAT     H110661   4.015   6.554   6.875
 3473WAT     H210662   4.076   6.571   6.725
 3474WAT      O10663   8.946   2.339   9.576
 3474WAT     H110664   9.008   2.270   9.538
 3474WAT     H210665   8.880   2.295   9.636
 3475WAT      O10666   5.497   2.606   2.729
 3475WAT     H110667   5.593   2.630   2.740
 3475WAT     H210668   5.458   2.655   2.652
 3476WAT      O10669   4.010   9.157   7.360
 3476WAT     H110670   3.956   9.220   7.417
 3476WAT     H210671   4.040   9.204   7.277
 3477WAT      O10672   1.648   7.264   2.795
 3477WAT     H110673   1.608   7.177   2.825
 3477WAT     H210674   1.735   7.245   2.748
 3478WAT      O10675   9.218   4.920   1.360
 3478WAT     H110676   9.138   4.961   1.403
 3478WAT     H210677   9.201   4.905   1.263
 3479WAT      O10678   3.110   6.877   8.198
 3479WAT     H110679   3.190   6.930   8.169
 3479WAT     H210680   3.107   6.791   8.148
 3480WAT      O10681   0.542   6.659   6.431
 3480WAT     H110682   0.592   6.586   6.384
 3480WAT     H210683   0.496   6.622   6.511
 3481WAT      O10684   8.397   3.237   4.616
 3481WAT     H110685   8.457   3.301   4.567
 3481WAT     H210686   8.304   3.273   4.617
 3482WAT      O10687   2.654   3.095   4.034
 3482WAT     H110688   2.678   3.157   3.959
 3482WAT     H210689   2.604   3.147   4.104
 3483WAT      O10690   4.311   3.228   4.236
 3483WAT     H110691   4.402   3.262   4.258
 3483WAT     H210692   4.243   3.271   4.296
 3484WAT      O10693   2.190   7.960   3.668
 3484WAT     H110694   2.287   7.978   3.648
 3484WAT     H210695   2.147   7.920   3.587
 3485WAT      O10696   8.122   5.622   5.463
 3485WAT     H110697   8.092   5.656   5.552
 3485WAT     H210698   8.206   5.569   5.475
 3486WAT      O10699   5.296   4.406   8.962
 3486WAT     H110700   5.335   4.491   8.928
 3486WAT     H210701   5.307   4.401   9.061
 3487WAT      O10702   3.229   6.081   0.726
 3487WAT     H110703   3.142   6.050   0.765
 3487WAT     H210704   3.299   6.011   0.740
 3488WAT      O10705   8.714   2.321   3.111
 3488WAT     H110706   8.806   2.284   3.094
 3488WAT     H210707   8.672   2.273   3.188
 3489WAT      O10708   4.055   6.385   6.331
 3489WAT     H110709   4.057   6.320   6.254
 3489WAT     H210710   4.132   6.367   6.392
 3490WAT      O10711   1.899   2.876   9.813
 3490WAT     H110712   1.851   2.863   9.726
 3490WAT     H210713   1.850   2.944   9.868
 3491WAT      O10714   8.622   3.114   2.321
 3491WAT     H110715   8.673   3.142   2.403
 3491WAT     H210716   8.685   3.097   2.246
 3492WAT      O10717   2.198   8.184   5.743
 3492WAT     H110718   2.236   8.094   5.762
 3492WAT     H210719   2.105   8.175   5.708
 3493WAT      O10720   2.564   6.374   3.375
 3493WAT     H110721   2.473   6.371   3.415
 3493WAT     H210722   2.564   6.436   3.296
 3494WAT      O10723   4.894   7.473   0.160
 3494WAT     H110724   4.947   7.432   0.086
 3494WAT     H210725   4.855   7.560   0.130
 3495WAT      O10726   6.908   1.465   3.771
 3495WAT     H110727   6.858   1.468   3.858
 3495WAT     H210728   6.878   1.541   3.713
 3496WAT      O10729   0.072   4.530   2.778
 3496WAT     H110730  -0.022   4.561   2.797
 3496WAT     H210731   0.069   4.453   2.715
 3497WAT      O10732   5.288   4.580   0.616
 3497WAT     H110733   5.380   4.545   0.631
 3497WAT     H210734   5.222   4.524   0.666
 3498WAT      O10735   9.664   8.175   4.815
 3498WAT     H110736   9.661   8.120   4.898
 3498WAT     H210737   9.586   8.238   4.814
 3499WAT      O10738   3.765   5.888   0.951
 3499WAT     H110739   3.738   5.901   1.047
 3499WAT     H210740   3.850   5.938   0.934
 3500WAT      O10741   5.501   1.180   3.776
 3500WAT     H110742   5.583   1.233   3.796
 3500WAT     H210743   5.468   1.136   3.860
 3501WAT      O10744   8.163   6.658   5.507
 3501WAT     H110745   8.091   6.588   5.503
 3501WAT     H210746   8.252   6.615   5.491
 3502WAT      O10747   9.449   3.500   1.419
 3502WAT     H110748   9.416   3.421   1.369
 3502WAT     H210749   9.510   3.470   1.493
 3503WAT      O10750   6.118   9.535   3.425
 3503WAT     H110751   6.050   9.586   3.478
 3503WAT     H210752   6.196   9.512   3.483
 3504WAT      O10753   6.918   9.720   2.786
 3504WAT     H110754   6.820   9.721   2.765
 3504WAT     H210755   6.932   9.733   2.884
 3505WAT      O10756   4.866   0.090   2.168
 3505WAT     H110757   4.824   0.031   2.100
 3505WAT     H210758   4.826   0.182   2.163
 3506WAT      O10759   9.647   1.720   2.762
 3506WAT     H110760   9.631   1.659   2.839
 3506WAT     H210761   9.706   1.795   2.792
 3507WAT      O10762   0.513   9.172   7.359
 3507WAT     H110763   0.436   9.233   7.337
 3507WAT     H210764   0.557   9.203   7.443
 3508WAT      O10765   5.920   1.578   4.011
 3508WAT     H110766   5.860   1.540   4.082
 3508WAT     H210767   6.005   1.610   4.053
 3509WAT      O10768   8.725   8.210   1.957
 3509WAT     H110769   8.702   8.200   2.054
 3509WAT     H210770   8.675   8.288   1.919
 3510WAT      O10771   4.952   6.176   6.944
 3510WAT     H110772   4.935   6.149   7.039
 3510WAT     H210773   5.002   6.262   6.942
 3511WAT      O10774   4.394   6.145   5.042
 3511WAT     H110775   4.371   6.152   5.139
 3511WAT     H210776   4.413   6.236   5.004
 3512WAT      O10777   7.640   0.626   7.358
 3512WAT     H110778   7.703   0.641   7.434
 3512WAT     H210779   7.562   0.572   7.390
 3513WAT      O10780   2.979   8.004   4.958
 3513WAT     H110781   3.056   8.066   4.947
 3513WAT     H210782   2.992   7.948   5.040
 3514WAT      O10783   3.625   9.494   4.136
 3514WAT     H110784   3.675   9.577   4.112
 3514WAT     H210785   3.676   9.442   4.203
 3515WAT      O10786   7.438   9.837   5.406
 3515WAT     H110787   7.356   9.779   5.409
 3515WAT     H210788   7.414   9.927   5.370
 3516WAT      O10789   8.291   9.312   8.028
 3516WAT     H110790   8.347   9.386   8.064
 3516WAT     H210791   8.331   9.279   7.942
 3517WAT      O10792   4.238   3.747   9.409
 3517WAT     H110793   4.158   3.717   9.461
 3517WAT     H210794   4.295   3.807   9.466
 3518WAT      O10795   7.856   4.686   1.917
 3518WAT     H110796   7.904   4.599   1.920
 3518WAT     H210797   7.766   4.674   1.875
 3519WAT      O10798   5.089   6.863   1.260
 3519WAT     H110799   5.103   6.807   1.341
 3519WAT     H210800   5.127   6.817   1.180
 3520WAT      O10801   3.026   8.381   8.194
 3520WAT     H110802   3.078   8.367   8.278
 3520WAT     H210803   2.959   8.453   8.208
 3521WAT      O10804   6.816   4.500   5.151
 3521WAT     H110805   6.741   4.566   5.141
 3521WAT     H210806   6.882   4.533   5.218
 3522WAT      O10807   2.877   5.752   5.562
 3522WAT     H110808   2.930   5.821   5.514
 3522WAT     H210809   2.799   5.795   5.608
 3523WAT      O10810   6.060   7.117   0.780
 3523WAT     H110811   6.035   7.140   0.686
 3523WAT     H210812   6.119   7.188   0.817
 3524WAT      O10813   9.516   4.084   7.974
 3524WAT     H110814   9.439   4.125   7.925
 3524WAT     H210815   9.584   4.154   7.994
 3525WAT      O10816   0.932   7.908   9.674
 3525WAT     H110817   1.006   7.909   9.741
 3525WAT     H210818   0.967   7.876   9.586
 3526WAT      O10819   4.874   9.351   4.746
 3526WAT     H110820   4.861   9.412   4.824
 3526WAT     H210821   4.970   9.324   4.740
 3527WAT      O10822   2.500   3.494   0.334
 3527WAT     H110823   2.508   3.401   0.369
 3527WAT     H210824   2.409   3.506   0.293
 3528WAT      O10825   7.319   7.003   3.165
 3528WAT     H110826   7.229   6.961   3.159
 3528WAT     H210827   7.322   7.066   3.242
 3529WAT      O10828   0.667   4.714   6.938
 3529WAT     H110829   0.630   4.656   6.865
 3529WAT     H210830   0.598   4.782   6.963
 3530WAT      O10831   6.254   3.626   5.049
 3530WAT     H110832   6.189   3.560   5.086
 3530WAT     H210833   6.284   3.597   4.958
 3531WAT      O10834   3.472   9.492   0.640
 3531WAT     H110835   3.469   9.425   0.715
 3531WAT     H210836   3.529   9.457   0.566
 3532WAT      O10837   7.320   2.455   8.126
 3532WAT     H110838   7.241   2.506   8.090
 3532WAT     H210839   7.399   2.470   8.067
 3533WAT      O10840   3.723   7.725   5.611
 3533WAT     H110841   3.670   7.780   5.675
 3533WAT     H210842   3.765   7.648   5.660
 3534WAT      O10843   9.350   3.671   0.885
 3534WAT     H110844   9.391   3.587   0.850
 3534WAT     H210845   9.415   3.747   0.875
 3535WAT      O10846   7.348   5.525   9.687
 3535WAT     H110847   7.444   5.543   9.711
 3535WAT     H210848   7.294   5.515   9.770
 3536WAT      O10849   3.558   1.630   5.535
 3536WAT     H110850   3.472   1.615   5.582
 3536WAT     H210851   3.629   1.656   5.601
 3537WAT      O10852   2.782   5.577   3.066
 3537WAT     H110853   2.828   5.638   3.002
 3537WAT     H210854   2.811   5.598   3.159
 3538WAT      O10855   2.820   4.919   2.978
 3538WAT     H110856   2.770   4.900   3.063
 3538WAT     H210857   2.800   4.848   2.911
 3539WAT      O10858   0.204   7.405   8.717
 3539WAT     H110859   0.167   7.476   8.657
 3539WAT     H210860   0.167   7.316   8.691
 3540WAT      O10861   4.190   3.146   5.626
 3540WAT     H110862   4.271   3.201   5.642
 3540WAT     H210863   4.186   3.072   5.692
 3541WAT      O10864   3.620   6.415   4.746
 3541WAT     H110865   3.588   6.366   4.665
 3541WAT     H210866   3.565   6.497   4.759
 3542WAT      O10867   3.703   4.425   9.229
 3542WAT     H110868   3.614   4.468   9.212
 3542WAT     H210869   3.715   4.349   9.165
 3543WAT      O10870   0.030   2.791   8.041
 3543WAT     H110871   0.020   2.711   8.101
 3543WAT     H210872   0.046   2.760   7.947
 3544WAT      O10873   3.859   5.011   8.807
 3544WAT     H110874   3.904   4.979   8.890
 3544WAT     H210875   3.852   4.936   8.742
 3545WAT      O10876   5.316   8.108   2.118
 3545WAT     H110877   5.336   8.013   2.095
 3545WAT     H210878   5.387   8.167   2.081
 3546WAT      O10879   5.127   4.930   3.432
 3546WAT     H110880   5.094   4.937   3.526
 3546WAT     H210881   5.187   5.008   3.412
 3547WAT      O10882   5.629   6.820   4.118
 3547WAT     H110883   5.539   6.855   4.090
 3547WAT     H210884   5.634   6.722   4.097
 3548WAT      O10885   1.523   2.436   4.256
 3548WAT     H110886   1.583   2.355   4.262
 3548WAT     H210887   1.500   2.468   4.347
 3549WAT      O10888   3.259   6.708   8.625
 3549WAT     H110889   3.349   6.753   8.624
 3549WAT     H210890   3.204   6.746   8.699
 3550WAT      O10891   8.867   2.662   3.185
 3550WAT     H110892   8.830   2.599   3.254
 3550WAT     H210893   8.802   2.669   3.109
 3551WAT      O10894   7.923   2.454   1.530
 3551WAT     H110895   7.991   2.382   1.541
 3551WAT     H210896   7.954   2.536   1.578
 3552WAT      O10897   9.085   7.127   1.523
 3552WAT     H110898   9.004   7.071   1.542
 3552WAT     H210899   9.152   7.113   1.596
 3553WAT      O10900   8.219   3.718   6.816
 3553WAT     H110901   8.237   3.798   6.873
 3553WAT     H210902   8.275   3.641   6.848
 3554WAT      O10903   6.966   8.397   1.742
 3554WAT     H110904   6.907   8.462   1.693
 3554WAT     H210905   6.909   8.332   1.792
 3555WAT      O10906   3.878   8.271   5.648
 3555WAT     H110907   3.885   8.333   5.570
 3555WAT     H210908   3.966   8.265   5.694
 3556WAT      O10909   8.601   8.526   2.875
 3556WAT     H110910   8.670   8.595   2.856
 3556WAT     H210911   8.548   8.508   2.792
 3557WAT      O10912   8.716   6.598   2.509
 3557WAT     H110913   8.759   6.615   2.420
 3557WAT     H210914   8.786   6.580   2.577
 3558WAT      O10915   6.387   5.305   6.322
 3558WAT     H110916   6.463   5.242   6.309
 3558WAT     H210917   6.305   5.269   6.277
 3559WAT      O10918   1.804   5.778   7.697
 3559WAT     H110919   1.753   5.693   7.678
 3559WAT     H210920   1.779   5.847   7.629
 3560WAT      O10921   1.590   2.668   2.331
 3560WAT     H110922   1.499   2.666   2.290
 3560WAT     H210923   1.583   2.640   2.427
 3561WAT      O10924   4.211   2.428   6.730
 3561WAT     H110925   4.132   2.368   6.720
 3561WAT     H210926   4.292   2.373   6.750
 3562WAT      O10927   6.169   7.342   8.309
 3562WAT     H110928   6.125   7.421   8.266
 3562WAT     H210929   6.252   7.319   8.259
 3563WAT      O10930   8.801   7.829   0.517
 3563WAT     H110931   8.724   7.790   0.568
 3563WAT     H210932   8.769   7.860   0.427
 3564WAT      O10933   1.377   8.589   8.471
 3564WAT     H110934   1.435   8.660   8.432
 3564WAT     H210935   1.325   8.544   8.398
 3565WAT      O10936   9.790   6.820   6.636
 3565WAT     H110937   9.837   6.751   6.691
 3565WAT     H210938   9.700   6.838   6.675
 3566WAT      O10939   9.171   3.742   4.146
 3566WAT     H110940   9.157   3.644   4.158
 3566WAT     H210941   9.095   3.792   4.187
 3567WAT      O10942   5.392   1.266   6.680
 3567WAT     H110943   5.419   1.191   6.620
 3567WAT     H210944   5.355   1.229   6.766
 3568WAT      O10945   0.238   4.603   9.598
 3568WAT     H110946   0.275   4.517   9.634
 3568WAT     H210947   0.218   4.592   9.500
 3569WAT      O10948   9.864   4.878   3.083
 3569WAT     H110949   9.826   4.872   3.175
 3569WAT     H210950   9.874   4.974   3.056
 3570WAT      O10951   7.359   8.732   0.520
 3570WAT     H110952   7.320   8.728   0.612
 3570WAT     H210953   7.340   8.821   0.479
 3571WAT      O10954   1.101   2.837   1.769
 3571WAT     H110955   1.179   2.893   1.738
 3571WAT     H210956   1.054   2.799   1.689
 3572WAT      O10957   0.459   5.589   4.602
 3572WAT     H110958   0.517   5.514   4.635
 3572WAT     H210959   0.502   5.631   4.522
 3573WAT      O10960   4.670   3.088   6.992
 3573WAT     H110961   4.591   3.077   7.053
 3573WAT     H210962   4.728   3.162   7.026
 3574WAT      O10963   8.758   0.556   2.641
 3574WAT     H110964   8.842   0.505   2.621
 3574WAT     H210965   8.745   0.627   2.573
 3575WAT      O10966   2.561   9.446   6.371
 3575WAT     H110967   2.548   9.373   6.438
 3575WAT     H210968   2.659   9.464   6.360
 3576WAT      O10969   4.228   7.120   9.160
 3576WAT     H110970   4.322   7.134   9.129
 3576WAT     H210971   4.181   7.208   9.165
 3577WAT      O10972   2.443   3.609   8.493
 3577WAT     H110973   2.490   3.678   8.548
 3577WAT     H210974   2.426   3.528   8.549
 3578WAT      O10975   1.323   8.759   7.383
 3578WAT     H110976   1.247   8.816   7.353
 3578WAT     H210977   1.393   8.817   7.426
 3579WAT      O10978   2.675   7.049   5.734
 3579WAT     H110979   2.621   7.004   5.663
 3579WAT     H210980   2.621   7.055   5.818
 3580WAT      O10981   4.659   4.352   4.314
 3580WAT     H110982   4.614   4.320   4.230
 3580WAT     H210983   4.704   4.275   4.359
 3581WAT      O10984   9.843   1.783   0.818
 3581WAT     H110985   9.902   1.821   0.890
 3581WAT     H210986   9.811   1.692   0.846
 3582WAT      O10987   4.668   0.266   4.570
 3582WAT     H110988   4.579   0.221   4.555
 3582WAT     H210989   4.715   0.220   4.646
 3583WAT      O10990   1.272   5.237   2.503
 3583WAT     H110991   1.343   5.300   2.534
 3583WAT     H210992   1.210   5.218   2.580
 3584WAT      O10993   4.923   7.811   1.556
 3584WAT     H110994   4.994   7.819   1.486
 3584WAT     H210995   4.966   7.812   1.647
 3585WAT      O10996   5.591   4.143   4.379
 3585WAT     H110997   5.555   4.056   4.413
 3585WAT     H210998   5.518   4.195   4.335
 3586WAT      O10999   7.181   3.226   1.295
 3586WAT     H111000   7.167   3.174   1.379
 3586WAT     H211001   7.096   3.227   1.242
 3587WAT      O11002   9.704   7.457   6.423
 3587WAT     H111003   9.731   7.463   6.519
 3587WAT     H211004   9.640   7.530   6.402
 3588WAT      O11005   8.248   5.316   0.100
 3588WAT     H111006   8.218   5.231   0.145
 3588WAT     H211007   8.290   5.376   0.168
 3589WAT      O11008   8.682   8.074   7.428
 3589WAT     H111009   8.739   8.086   7.347
 3589WAT     H211010   8.732   8.021   7.496
 3590WAT      O11011   1.483   8.269   1.347
 3590WAT     H111012   1.442   8.302   1.432
 3590WAT     H211013   1.441   8.316   1.269
 3591WAT      O11014   0.542   6.115   2.426
 3591WAT     H111015   0.599   6.179   2.374
 3591WAT     H211016   0.597   6.036   2.453
 3592WAT      O11017   7.308   6.815   0.227
 3592WAT     H111018   7.309   6.761   0.142
 3592WAT     H211019   7.344   6.759   0.302
 3593WAT      O11020   5.063   6.262   4.377
 3593WAT     H111021   5.075   6.166   4.401
 3593WAT     H211022   5.053   6.271   4.278
 3594WAT      O11023   3.136   4.948   8.487
 3594WAT     H111024   3.207   5.018   8.471
 3594WAT     H211025   3.119   4.898   8.403
 3595WAT      O11026   5.664   8.036   1.816
 3595WAT     H111027   5.602   8.075   1.748
 3595WAT     H211028   5.731   7.978   1.771
 3596WAT      O11029   6.603   2.440   0.285
 3596WAT     H111030   6.569   2.396   0.202
 3596WAT     H211031   6.526   2.478   0.337
 3597WAT      O11032   0.329   0.930   1.245
 3597WAT     H111033   0.241   0.952   1.203
 3597WAT     H211034   0.359   0.840   1.213
 3598WAT      O11035   1.089   6.105   4.009
 3598WAT     H111036   1.129   6.135   3.922
 3598WAT     H211037   1.090   6.180   4.074
 3599WAT      O11038   1.248   1.400   2.796
 3599WAT     H111039   1.220   1.456   2.875
 3599WAT     H211040   1.213   1.307   2.807
 3600WAT      O11041   5.467   3.678   1.696
 3600WAT     H111042   5.408   3.739   1.749
 3600WAT     H211043   5.558   3.719   1.686
 3601WAT      O11044   1.614   0.799   5.160
 3601WAT     H111045   1.522   0.835   5.145
 3601WAT     H211046   1.637   0.734   5.087
 3602WAT      O11047   2.916   9.030   0.562
 3602WAT     H111048   2.968   8.964   0.507
 3602WAT     H211049   2.976   9.074   0.628
 3603WAT      O11050   7.231   9.406   1.213
 3603WAT     H111051   7.294   9.483   1.220
 3603WAT     H211052   7.245   9.359   1.127
 3604WAT      O11053   3.604   6.429   2.381
 3604WAT     H111054   3.657   6.497   2.330
 3604WAT     H211055   3.543   6.476   2.445
 3605WAT      O11056   7.060   8.465   9.429
 3605WAT     H111057   7.013   8.546   9.394
 3605WAT     H211058   6.996   8.410   9.483
 3606WAT      O11059   5.342   8.879   6.530
 3606WAT     H111060   5.387   8.954   6.578
 3606WAT     H211061   5.386   8.792   6.556
 3607WAT      O11062   4.597   2.577   6.965
 3607WAT     H111063   4.604   2.675   6.944
 3607WAT     H211064   4.514   2.560   7.018
 3608WAT      O11065   6.452   0.484   2.225
 3608WAT     H111066   6.458   0.389   2.192
 3608WAT     H211067   6.543   0.517   2.249
 3609WAT      O11068   4.641   1.936   3.574
 3609WAT     H111069   4.643   1.946   3.474
 3609WAT     H211070   4.591   2.013   3.614
 3610WAT      O11071   4.746   2.281   7.514
 3610WAT     H111072   4.718   2.186   7.524
 3610WAT     H211073   4.691   2.339   7.574
 3611WAT      O11074   4.684   0.777   7.483
 3611WAT     H111075   4.621   0.701   7.502
 3611WAT     H211076   4.631   0.861   7.475
 3612WAT      O11077   8.624   5.962   6.700
 3612WAT     H111078   8.677   6.039   6.736
 3612WAT     H211079   8.682   5.905   6.644
 3613WAT      O11080   4.011   4.812   9.720
 3613WAT     H111081   3.998   4.779   9.626
 3613WAT     H211082   3.927   4.856   9.752
 3614WAT      O11083   8.576   3.938   6.301
 3614WAT     H111084   8.675   3.937   6.305
 3614WAT     H211085   8.541   4.024   6.339
 3615WAT      O11086   8.513   7.894   7.309
 3615WAT     H111087   8.426   7.928   7.274
 3615WAT     H211088   8.566   7.970   7.348
 3616WAT      O11089   1.408   7.144   3.089
 3616WAT     H111090   1.486   7.122   3.148
 3616WAT     H211091   1.432   7.124   2.994
 3617WAT      O11092   8.749   0.180   2.656
 3617WAT     H111093   8.833   0.218   2.694
 3617WAT     H211094   8.674   0.246   2.668
 3618WAT      O11095   1.080   1.891   9.066
 3618WAT     H111096   1.073   1.990   9.057
 3618WAT     H211097   0.990   1.853   9.088
 3619WAT      O11098   7.175   7.605   0.522
 3619WAT     H111099   7.251   7.602   0.456
 3619WAT     H211100   7.205   7.570   0.610
 3620WAT      O11101   4.508   5.875   6.968
 3620WAT     H111102   4.530   5.856   6.872
 3620WAT     H211103   4.409   5.882   6.979
 3621WAT      O11104   3.592   1.055   6.025
 3621WAT     H111105   3.627   1.131   6.080
 3621WAT     H211106   3.668   0.992   6.005
 3622WAT      O11107   7.648   5.028   6.019
 3622WAT     H111108   7.655   5.123   5.987
 3622WAT     H211109   7.677   4.966   5.947
 3623WAT      O11110   9.097   7.011   0.272
 3623WAT     H111111   9.137   7.103   0.280
 3623WAT     H211112   9.159   6.953   0.218
 3624WAT      O11113   4.591   2.405   2.379
 3624WAT     H111114   4.512   2.345   2.376
 3624WAT     H211115   4.637   2.396   2.468
 3625WAT      O11116   9.191   1.204   9.497
 3625WAT     H111117   9.108   1.232   9.544
 3625WAT     H211118   9.244   1.285   9.472
 3626WAT      O11119   6.392   8.370   5.091
 3626WAT     H111120   6.433   8.460   5.098
 3626WAT     H211121   6.293   8.377   5.099
 3627WAT      O11122   3.536   5.770   1.413
 3627WAT     H111123   3.627   5.769   1.454
 3627WAT     H211124   3.506   5.676   1.396
 3628WAT      O11125   9.476   6.151   7.472
 3628WAT     H111126   9.568   6.179   7.446
 3628WAT     H211127   9.422   6.131   7.389
 3629WAT      O11128   4.454   5.488   8.886
 3629WAT     H111129   4.397   5.500   8.967
 3629WAT     H211130   4.396   5.481   8.805
 3630WAT      O11131   9.695   4.864   4.740
 3630WAT     H111132   9.666   4.824   4.827
 3630WAT     H211133   9.629   4.838   4.668
 3631WAT      O11134   5.770   7.956   0.253
 3631WAT     H111135   5.802   7.919   0.340
 3631WAT     H211136   5.740   7.882   0.194
 3632WAT      O11137   5.695   8.074   9.399
 3632WAT     H111138   5.679   8.037   9.308
 3632WAT     H211139   5.715   7.999   9.462
 3633WAT      O11140   2.106   5.831   7.294
 3633WAT     H111141   2.117   5.902   7.224
 3633WAT     H211142   2.175   5.759   7.279
 3634WAT      O11143   0.205   3.630   4.273
 3634WAT     H111144   0.129   3.623   4.208
 3634WAT     H211145   0.207   3.722   4.313
 3635WAT      O11146   8.862   4.227   1.624
 3635WAT     H111147   8.918   4.297   1.669
 3635WAT     H211148   8.915   4.186   1.549
 3636WAT      O11149   8.902   2.057   5.524
 3636WAT     H111150   8.890   1.967   5.567
 3636WAT     H211151   8.937   2.121   5.592
 3637WAT      O11152   3.609   8.329   7.070
 3637WAT     H111153   3.560   8.416   7.066
 3637WAT     H211154   3.590   8.277   6.986
 3638WAT      O11155   0.519   0.073   2.466
 3638WAT     H111156   0.491   0.003   2.532
 3638WAT     H211157   0.508   0.163   2.507
 3639WAT      O11158   6.605   3.441   3.486
 3639WAT     H111159   6.513   3.474   3.466
 3639WAT     H211160   6.664   3.459   3.408
 3640WAT      O11161   4.187   1.749   4.227
 3640WAT     H111162   4.244   1.824   4.259
 3640WAT     H211163   4.144   1.774   4.140
 3641WAT      O11164   3.617   5.276   6.835
 3641WAT     H111165   3.549   5.301   6.905
 3641WAT     H211166   3.634   5.355   6.776
 3642WAT      O11167   9.182   0.948   6.814
 3642WAT     H111168   9.126   0.868   6.837
 3642WAT     H211169   9.131   1.031   6.832
 3643WAT      O11170   6.169   7.971   2.744
 3643WAT     H111171   6.138   7.955   2.838
 3643WAT     H211172   6.256   8.019   2.745
 3644WAT      O11173   2.485   4.358   5.181
 3644WAT     H111174   2.390   4.326   5.186
 3644WAT     H211175   2.524   4.358   5.273
 3645WAT      O11176   9.156   0.091   2.137
 3645WAT     H111177   9.187   0.135   2.221
 3645WAT     H211178   9.060   0.113   2.121
 3646WAT      O11179   2.996   1.293   8.950
 3646WAT     H111180   3.042   1.284   8.862
 3646WAT     H211181   3.063   1.316   9.021
 3647WAT      O11182   5.737   6.938   4.927
 3647WAT     H111183   5.692   6.865   4.977
 3647WAT     H211184   5.753   6.910   4.833
 3648WAT      O11185   4.361   8.967   7.247
 3648WAT     H111186   4.428   9.037   7.221
 3648WAT     H211187   4.407   8.878   7.251
 3649WAT      O11188   8.856   8.491   2.519
 3649WAT     H111189   8.806   8.578   2.527
 3649WAT     H211190   8.795   8.415   2.544
 3650WAT      O11191   3.763   8.425   4.504
 3650WAT     H111192   3.675   8.472   4.498
 3650WAT     H211193   3.836   8.488   4.479
 3651WAT      O11194   0.664   0.767   8.735
 3651WAT     H111195   0.760   0.741   8.725
 3651WAT     H211196   0.632   0.741   8.826
 3652WAT      O11197   8.448   7.919   1.178
 3652WAT     H111198   8.353   7.920   1.208
 3652WAT     H211199   8.483   7.825   1.179
 3653WAT      O11200   2.299   7.671   1.269
 3653WAT     H111201   2.273   7.618   1.188
 3653WAT     H211202   2.358   7.747   1.241
 3654WAT      O11203   7.230   1.346   0.280
 3654WAT     H111204   7.171   1.284   0.331
 3654WAT     H211205   7.180   1.430   0.257
 3655WAT      O11206   7.169   1.606   5.635
 3655WAT     H111207   7.129   1.643   5.551
 3655WAT     H211208   7.265   1.634   5.640
 3656WAT      O11209   8.028   3.232   4.035
 3656WAT     H111210   7.953   3.295   4.014
 3656WAT     H211211   8.054   3.243   4.131
 3657WAT      O11212   0.983   4.119   6.428
 3657WAT     H111213   0.894   4.079   6.406
 3657WAT     H211214   0.982   4.150   6.524
 3658WAT      O11215   9.703   1.263   4.345
 3658WAT     H111216   9.604   1.257   4.360
 3658WAT     H211217   9.736   1.353   4.375
 3659WAT      O11218   0.316   3.438   3.222
 3659WAT     H111219   0.298   3.444   3.123
 3659WAT     H211220   0.240   3.478   3.272
 3660WAT      O11221   9.592   5.836   7.041
 3660WAT     H111222   9.679   5.804   7.005
 3660WAT     H211223   9.600   5.933   7.064
 3661WAT      O11224   1.429   5.483   2.515
 3661WAT     H111225   1.393   5.525   2.432
 3661WAT     H211226   1.508   5.426   2.492
 3662WAT      O11227   4.933   2.461   9.711
 3662WAT     H111228   4.855   2.509   9.671
 3662WAT     H211229   4.902   2.380   9.759
 3663WAT      O11230   1.957   6.933   3.192
 3663WAT     H111231   1.861   6.915   3.173
 3663WAT     H211232   1.983   6.891   3.279
 3664WAT      O11233   7.851   8.576   6.078
 3664WAT     H111234   7.884   8.542   6.167
 3664WAT     H211235   7.928   8.614   6.027
 3665WAT      O11236   0.967   5.437   4.634
 3665WAT     H111237   1.018   5.358   4.601
 3665WAT     H211238   1.031   5.506   4.669
 3666WAT      O11239   2.060   0.389   8.474
 3666WAT     H111240   1.965   0.390   8.507
 3666WAT     H211241   2.068   0.446   8.392
 3667WAT      O11242   8.888   7.427   1.794
 3667WAT     H111243   8.978   7.446   1.755
 3667WAT     H211244   8.888   7.452   1.891
 3668WAT      O11245   9.409   4.668   6.848
 3668WAT     H111246   9.485   4.602   6.851
 3668WAT     H211247   9.441   4.752   6.805
 3669WAT      O11248   4.028   7.861   2.967
 3669WAT     H111249   4.001   7.928   2.898
 3669WAT     H211250   4.115   7.819   2.942
 3670WAT      O11251   1.412   4.521   1.021
 3670WAT     H111252   1.319   4.485   1.031
 3670WAT     H211253   1.459   4.471   0.948
 3671WAT      O11254   0.274   2.350   0.719
 3671WAT     H111255   0.282   2.351   0.619
 3671WAT     H211256   0.192   2.400   0.746
 3672WAT      O11257   2.751   8.690   6.271
 3672WAT     H111258   2.788   8.600   6.294
 3672WAT     H211259   2.826   8.751   6.246
 3673WAT      O11260   9.444   8.345   4.021
 3673WAT     H111261   9.380   8.282   4.066
 3673WAT     H211262   9.536   8.308   4.026
 3674WAT      O11263   0.903   6.179   6.644
 3674WAT     H111264   0.907   6.217   6.551
 3674WAT     H211265   0.812   6.141   6.660
 3675WAT      O11266   3.854   8.381   4.112
 3675WAT     H111267   3.821   8.309   4.173
 3675WAT     H211268   3.808   8.467   4.134
 3676WAT      O11269   6.924   0.759   3.342
 3676WAT     H111270   6.991   0.824   3.379
 3676WAT     H211271   6.919   0.770   3.243
 3677WAT      O11272   4.087   3.008   4.980
 3677WAT     H111273   4.181   3.041   4.979
 3677WAT     H211274   4.076   2.937   4.911
 3678WAT      O11275   8.508   0.848   0.748
 3678WAT     H111276   8.535   0.753   0.765
 3678WAT     H211277   8.510   0.900   0.833
 3679WAT      O11278   2.348   1.269   3.334
 3679WAT     H111279   2.336   1.340   3.404
 3679WAT     H211280   2.268   1.209   3.334
 3680WAT      O11281   2.265   9.114   1.526
 3680WAT     H111282   2.266   9.127   1.626
 3680WAT     H211283   2.233   9.198   1.482
 3681WAT      O11284   4.819   6.365   5.222
 3681WAT     H111285   4.799   6.461   5.243
 3681WAT     H211286   4.905   6.360   5.170
 3682WAT      O11287   8.116   9.313   4.235
 3682WAT     H111288   8.093   9.407   4.259
 3682WAT     H211289   8.084   9.251   4.308
 3683WAT      O11290   8.797   7.709   3.776
 3683WAT     H111291   8.805   7.617   3.737
 3683WAT     H211292   8.776   7.702   3.874
 3684WAT      O11293   2.277   5.225   2.817
 3684WAT     H111294   2.358   5.198   2.869
 3684WAT     H211295   2.197   5.177   2.853
 3685WAT      O11296   9.814   1.046   3.700
 3685WAT     H111297   9.906   1.067   3.735
 3685WAT     H211298   9.753   1.026   3.777
 3686WAT      O11299   0.121   2.285   2.030
 3686WAT     H111300   0.025   2.255   2.025
 3686WAT     H211301   0.174   2.238   1.960
 3687WAT      O11302   7.629   2.868   2.345
 3687WAT     H111303   7.645   2.869   2.443
 3687WAT     H211304   7.541   2.826   2.325
 3688WAT      O11305   3.333   2.048   1.489
 3688WAT     H111306   3.267   2.107   1.535
 3688WAT     H211307   3.330   1.956   1.528
 3689WAT      O11308   0.915   7.022   6.633
 3689WAT     H111309   0.983   6.962   6.675
 3689WAT     H211310   0.875   7.081   6.703
 3690WAT      O11311   0.191   5.313   5.972
 3690WAT     H111312   0.146   5.358   5.895
 3690WAT     H211313   0.213   5.380   6.042
 3691WAT      O11314   9.523   7.924   9.702
 3691WAT     H111315   9.566   7.840   9.735
 3691WAT     H211316   9.593   7.992   9.682
 3692WAT      O11317   8.084   3.342   7.039
 3692WAT     H111318   7.995   3.376   7.009
 3692WAT     H211319   8.086   3.242   7.027
 3693WAT      O11320   6.770   3.994   5.185
 3693WAT     H111321   6.859   3.951   5.199
 3693WAT     H211322   6.717   3.990   5.269
 3694WAT      O11323   1.043   8.998   3.169
 3694WAT     H111324   0.991   8.950   3.099
 3694WAT     H211325   1.100   9.068   3.127
 3695WAT      O11326   1.063   7.228   7.336
 3695WAT     H111327   1.066   7.270   7.245
 3695WAT     H211328   1.145   7.253   7.387
 3696WAT      O11329   0.839   2.030   5.629
 3696WAT     H111330   0.801   1.938   5.638
 3696WAT     H211331   0.938   2.026   5.638
 3697WAT      O11332   7.226   4.611   4.124
 3697WAT     H111333   7.178   4.636   4.209
 3697WAT     H211334   7.230   4.512   4.116
 3698WAT      O11335   0.910   7.283   0.320
 3698WAT     H111336   0.953   7.349   0.259
 3698WAT     H211337   0.827   7.323   0.359
 3699WAT      O11338   6.476   4.711   5.779
 3699WAT     H111339   6.404   4.646   5.752
 3699WAT     H211340   6.523   4.745   5.698
 3700WAT      O11341   8.125   7.048   6.241
 3700WAT     H111342   8.180   7.128   6.217
 3700WAT     H211343   8.147   6.972   6.179
 3701WAT      O11344   1.489   1.217   1.991
 3701WAT     H111345   1.500   1.317   1.991
 3701WAT     H211346   1.475   1.185   2.084
 3702WAT      O11347   8.534   8.141   5.324
 3702WAT     H111348   8.548   8.047   5.294
 3702WAT     H211349   8.551   8.204   5.249
 3703WAT      O11350   5.555   4.720   2.503
 3703WAT     H111351   5.621   4.768   2.561
 3703WAT     H211352   5.492   4.668   2.561
 3704WAT      O11353   8.404   8.693   2.494
 3704WAT     H111354   8.333   8.758   2.521
 3704WAT     H211355   8.382   8.656   2.404
 3705WAT      O11356   1.436   7.785   4.284
 3705WAT     H111357   1.535   7.771   4.284
 3705WAT     H211358   1.390   7.699   4.264
 3706WAT      O11359   0.150   2.368   9.026
 3706WAT     H111360   0.243   2.345   8.997
 3706WAT     H211361   0.129   2.462   8.999
 3707WAT      O11362   5.101   0.840   1.891
 3707WAT     H111363   5.080   0.748   1.858
 3707WAT     H211364   5.080   0.907   1.819
 3708WAT      O11365   7.049   7.672   7.279
 3708WAT     H111366   7.050   7.580   7.319
 3708WAT     H211367   7.142   7.708   7.275
 3709WAT      O11368   0.645   6.533   9.184
 3709WAT     H111369   0.585   6.567   9.111
 3709WAT     H211370   0.729   6.498   9.144
 3710WAT      O11371   7.152   0.508   8.451
 3710WAT     H111372   7.223   0.447   8.418
 3710WAT     H211373   7.118   0.565   8.375
 3711WAT      O11374   1.339   5.654   8.376
 3711WAT     H111375   1.412   5.607   8.424
 3711WAT     H211376   1.261   5.592   8.364
 3712WAT      O11377   0.129   2.896   8.857
 3712WAT     H111378   0.174   2.901   8.768
 3712WAT     H211379   0.190   2.932   8.927
 3713WAT      O11380   2.903   6.068   0.653
 3713WAT     H111381   2.902   6.049   0.751
 3713WAT     H211382   2.914   6.167   0.638
 3714WAT      O11383   9.087   0.493   5.339
 3714WAT     H111384   9.078   0.496   5.239
 3714WAT     H211385   9.011   0.442   5.377
 3715WAT      O11386   5.146   5.596   0.676
 3715WAT     H111387   5.225   5.543   0.644
 3715WAT     H211388   5.121   5.664   0.607
 3716WAT      O11389   2.474   6.171   2.487
 3716WAT     H111390   2.573   6.156   2.487
 3716WAT     H211391   2.452   6.251   2.431
 3717WAT      O11392   2.912   6.937   1.313
 3717WAT     H111393   2.954   6.991   1.386
 3717WAT     H211394   2.873   6.999   1.245
 3718WAT      O11395   5.950   9.090   5.373
 3718WAT     H111396   5.960   9.131   5.282
 3718WAT     H211397   5.860   9.047   5.380
 3719WAT      O11398   0.335   7.120   1.393
 3719WAT     H111399   0.428   7.100   1.363
 3719WAT     H211400   0.295   7.038   1.434
 3720WAT      O11401   2.837   0.833   7.648
 3720WAT     H111402   2.854   0.907   7.583
 3720WAT     H211403   2.921   0.782   7.664
 3721WAT      O11404   1.978   5.065   9.298
 3721WAT     H111405   1.904   5.082   9.364
 3721WAT     H211406   1.939   5.047   9.208
 3722WAT      O11407   2.261   0.825   2.116
 3722WAT     H111408   2.327   0.877   2.171
 3722WAT     H211409   2.266   0.728   2.141
 3723WAT      O11410   8.755   5.590   7.131
 3723WAT     H111411   8.712   5.666   7.082
 3723WAT     H211412   8.817   5.542   7.069
 3724WAT      O11413   3.798   8.631   7.132
 3724WAT     H111414   3.704   8.640   7.165
 3724WAT     H211415   3.826   8.716   7.087
 3725WAT      O11416   9.457   3.002   3.316
 3725WAT     H111417   9.422   3.067   3.384
 3725WAT     H211418   9.390   2.928   3.303
 3726WAT      O11419   4.461   6.373   9.096
 3726WAT     H111420   4.371   6.408   9.071
 3726WAT     H211421   4.506   6.337   9.014
 3727WAT      O11422   3.481   6.841   2.447
 3727WAT     H111423   3.467   6.890   2.361
 3727WAT     H211424   3.478   6.907   2.523
 3728WAT      O11425   2.003   3.102   4.205
 3728WAT     H111426   2.075   3.058   4.258
 3728WAT     H211427   1.961   3.035   4.145
 3729WAT      O11428   6.905   5.678   7.449
 3729WAT     H111429   6.810   5.681   7.417
 3729WAT     H211430   6.908   5.631   7.537
 3730WAT      O11431   8.347   1.052   0.078
 3730WAT     H111432   8.349   0.998  -0.006
 3730WAT     H211433   8.384   0.997   0.154
 3731WAT      O11434   5.177   1.723   5.752
 3731WAT     H111435   5.079   1.703   5.756
 3731WAT     H211436   5.229   1.637   5.755
 3732WAT      O11437   6.048   3.745   3.453
 3732WAT     H111438   6.094   3.720   3.368
 3732WAT     H211439   5.960   3.697   3.459
 3733WAT      O11440   6.705   9.449   0.085
 3733WAT     H111441   6.706   9.481   0.180
 3733WAT     H211442   6.781   9.491   0.035
 3734WAT      O11443   6.695   6.068   8.612
 3734WAT     H111444   6.614   6.122   8.637
 3734WAT     H211445   6.749   6.119   8.545
 3735WAT      O11446   5.054   2.677   7.879
 3735WAT     H111447   5.021   2.759   7.831
 3735WAT     H211448   5.123   2.704   7.946
 3736WAT      O11449   7.996   5.794   0.195
 3736WAT     H111450   8.066   5.757   0.135
 3736WAT     H211451   7.907   5.788   0.150
 3737WAT      O11452   2.054   5.348   5.651
 3737WAT     H111453   1.958   5.350   5.623
 3737WAT     H211454   2.111   5.319   5.575
 3738WAT      O11455   8.647   6.792   2.895
 3738WAT     H111456   8.592   6.834   2.967
 3738WAT     H211457   8.591   6.782   2.812
 3739WAT      O11458   0.437   4.188   5.689
 3739WAT     H111459   0.465   4.095   5.666
 3739WAT     H211460   0.436   4.199   5.788
 3740WAT      O11461   3.562   7.149   6.824
 3740WAT     H111462   3.498   7.101   6.883
 3740WAT     H211463   3.600   7.228   6.873
 3741WAT      O11464   7.924   4.274   4.876
 3741WAT     H111465   7.947   4.257   4.971
 3741WAT     H211466   7.850   4.212   4.848
 3742WAT      O11467   2.605   6.393   5.356
 3742WAT     H111468   2.583   6.297   5.341
 3742WAT     H211469   2.688   6.416   5.305
 3743WAT      O11470   2.616   5.820   9.097
 3743WAT     H111471   2.691   5.816   9.031
 3743WAT     H211472   2.583   5.914   9.104
 3744WAT      O11473   0.921   0.873   1.912
 3744WAT     H111474   0.978   0.955   1.901
 3744WAT     H211475   0.827   0.900   1.932
 3745WAT      O11476   9.621   8.554   3.377
 3745WAT     H111477   9.695   8.621   3.380
 3745WAT     H211478   9.552   8.576   3.446
 3746WAT      O11479   7.250   6.363   1.274
 3746WAT     H111480   7.263   6.462   1.271
 3746WAT     H211481   7.321   6.318   1.220
 3747WAT      O11482   4.539   0.554   3.761
 3747WAT     H111483   4.635   0.524   3.766
 3747WAT     H211484   4.521   0.622   3.832
 3748WAT      O11485   2.155   8.367   7.994
 3748WAT     H111486   2.099   8.285   8.006
 3748WAT     H211487   2.246   8.351   8.031
 3749WAT      O11488   0.853   5.375   7.957
 3749WAT     H111489   0.860   5.415   7.865
 3749WAT     H211490   0.933   5.401   8.010
 3750WAT      O11491   6.339   1.094   6.588
 3750WAT     H111492   6.312   1.015   6.532
 3750WAT     H211493   6.307   1.178   6.544
 3751WAT      O11494   0.942   3.409   6.572
 3751WAT     H111495   0.948   3.434   6.475
 3751WAT     H211496   0.917   3.313   6.580
 3752WAT      O11497   2.539   4.113   7.986
 3752WAT     H111498   2.481   4.056   8.045
 3752WAT     H211499   2.633   4.109   8.019
 3753WAT      O11500   1.996   2.239   8.240
 3753WAT     H111501   1.905   2.272   8.265
 3753WAT     H211502   2.013   2.259   8.143
 3754WAT      O11503   8.315   1.624   0.883
 3754WAT     H111504   8.277   1.641   0.793
 3754WAT     H211505   8.371   1.542   0.881
 3755WAT      O11506   5.237   0.593   8.749
 3755WAT     H111507   5.194   0.634   8.669
 3755WAT     H211508   5.335   0.583   8.733
 3756WAT      O11509   6.174   3.649   4.161
 3756WAT     H111510   6.106   3.626   4.092
 3756WAT     H211511   6.246   3.580   4.161
 3757WAT      O11512   5.661   2.296   3.974
 3757WAT     H111513   5.595   2.253   3.914
 3757WAT     H211514   5.723   2.353   3.920
 3758WAT      O11515   9.629   6.893   7.362
 3758WAT     H111516   9.667   6.828   7.295
 3758WAT     H211517   9.536   6.865   7.386
 3759WAT      O11518   3.333   3.430   0.828
 3759WAT     H111519   3.343   3.446   0.926
 3759WAT     H211520   3.238   3.447   0.801
 3760WAT      O11521   8.501   8.720   7.814
 3760WAT     H111522   8.469   8.662   7.888
 3760WAT     H211523   8.534   8.663   7.739
 3761WAT      O11524   4.071   3.502   7.443
 3761WAT     H111525   4.142   3.438   7.470
 3761WAT     H211526   4.061   3.573   7.513
 3762WAT      O11527   4.967   4.854   0.922
 3762WAT     H111528   4.881   4.866   0.970
 3762WAT     H211529   4.986   4.934   0.865
 3763WAT      O11530   2.718   3.845   9.155
 3763WAT     H111531   2.705   3.911   9.229
 3763WAT     H211532   2.708   3.892   9.067
 3764WAT      O11533   9.492   0.861   0.081
 3764WAT     H111534   9.582   0.818   0.074
 3764WAT     H211535   9.433   0.826   0.008
 3765WAT      O11536   7.593   6.158   0.836
 3765WAT     H111537   7.555   6.096   0.768
 3765WAT     H211538   7.541   6.151   0.921
 3766WAT      O11539   5.092   0.550   6.763
 3766WAT     H111540   5.019   0.531   6.829
 3766WAT     H211541   5.084   0.486   6.686
 3767WAT      O11542   4.369   5.376   2.187
 3767WAT     H111543   4.286   5.402   2.237
 3767WAT     H211544   4.445   5.370   2.252
 3768WAT      O11545   2.106   0.215   4.750
 3768WAT     H111546   2.012   0.232   4.721
 3768WAT     H211547   2.129   0.274   4.828
 3769WAT      O11548   8.578   4.161   4.140
 3769WAT     H111549   8.513   4.175   4.064
 3769WAT     H211550   8.557   4.225   4.214
 3770WAT      O11551   8.591   7.053   8.458
 3770WAT     H111552   8.577   7.138   8.508
 3770WAT     H211553   8.663   6.999   8.502
 3771WAT      O11554   8.445   5.475   4.197
 3771WAT     H111555   8.418   5.390   4.242
 3771WAT     H211556   8.537   5.500   4.228
 3772WAT      O11557   1.838   7.892   9.502
 3772WAT     H111558   1.926   7.847   9.518
 3772WAT     H211559   1.768   7.822   9.491
 3773WAT      O11560   1.016   3.359   8.837
 3773WAT     H111561   1.082   3.288   8.859
 3773WAT     H211562   1.062   3.436   8.794
 3774WAT      O11563   8.756   5.931   1.246
 3774WAT     H111564   8.764   5.853   1.308
 3774WAT     H211565   8.702   5.905   1.166
 3775WAT      O11566   8.485   7.601   4.554
 3775WAT     H111567   8.538   7.534   4.606
 3775WAT     H211568   8.531   7.689   4.556
 3776WAT      O11569   4.831   8.459   1.494
 3776WAT     H111570   4.798   8.517   1.568
 3776WAT     H211571   4.931   8.468   1.487
 3777WAT      O11572   3.848   7.952   4.002
 3777WAT     H111573   3.906   8.030   3.980
 3777WAT     H211574   3.794   7.971   4.084
 3778WAT      O11575   1.161   5.013   6.680
 3778WAT     H111576   1.144   5.057   6.768
 3778WAT     H211577   1.082   5.029   6.620
 3779WAT      O11578   8.535   8.223   9.865
 3779WAT     H111579   8.487   8.137   9.880
 3779WAT     H211580   8.472   8.299   9.881
 3780WAT      O11581   4.454   9.676   3.440
 3780WAT     H111582   4.551   9.697   3.453
 3780WAT     H211583   4.422   9.618   3.515
 3781WAT      O11584   9.307   5.594   0.056
 3781WAT     H111585   9.335   5.538   0.134
 3781WAT     H211586   9.228   5.551   0.012
 3782WAT      O11587   8.423   6.473   4.822
 3782WAT     H111588   8.427   6.472   4.722
 3782WAT     H211589   8.401   6.382   4.855
 3783WAT      O11590   7.126   2.889   5.563
 3783WAT     H111591   7.090   2.796   5.551
 3783WAT     H211592   7.065   2.953   5.516
 3784WAT      O11593   0.386   3.493   3.501
 3784WAT     H111594   0.377   3.491   3.401
 3784WAT     H211595   0.332   3.420   3.541
 3785WAT      O11596   8.392   5.896   1.796
 3785WAT     H111597   8.399   5.798   1.810
 3785WAT     H211598   8.475   5.929   1.751
 3786WAT      O11599   8.161   3.806   8.079
 3786WAT     H111600   8.133   3.803   7.983
 3786WAT     H211601   8.260   3.790   8.085
 3787WAT      O11602   4.922   8.871   1.585
 3787WAT     H111603   4.865   8.952   1.570
 3787WAT     H211604   4.864   8.790   1.593
 3788WAT      O11605   1.660   1.012   3.493
 3788WAT     H111606   1.740   1.047   3.541
 3788WAT     H211607   1.593   1.085   3.482
 3789WAT      O11608   4.671   6.784   0.771
 3789WAT     H111609   4.691   6.700   0.720
 3789WAT     H211610   4.698   6.772   0.867
 3790WAT      O11611   0.740   9.065   2.923
 3790WAT     H111612   0.756   8.970   2.948
 3790WAT     H211613   0.710   9.116   3.004
 3791WAT      O11614   5.859   7.279   7.377
 3791WAT     H111615   5.858   7.245   7.283
 3791WAT     H211616   5.817   7.212   7.438
 3792WAT      O11617   1.568   1.100   2.819
 3792WAT     H111618   1.572   1.194   2.786
 3792WAT     H211619   1.657   1.073   2.856
 3793WAT      O11620   2.041   0.868   3.794
 3793WAT     H111621   2.138   0.891   3.792
 3793WAT     H211622   2.022   0.807   3.871
 3794WAT      O11623   1.079   4.653   0.646
 3794WAT     H111624   1.002   4.620   0.700
 3794WAT     H211625   1.150   4.688   0.707
 3795WAT      O11626   3.044   2.085   7.823
 3795WAT     H111627   2.994   2.006   7.860
 3795WAT     H211628   3.128   2.053   7.778
 3796WAT      O11629   3.165   4.560   7.889
 3796WAT     H111630   3.071   4.590   7.907
 3796WAT     H211631   3.229   4.627   7.926
 3797WAT      O11632   3.232   2.286   3.950
 3797WAT     H111633   3.260   2.282   3.854
 3797WAT     H211634   3.282   2.217   4.002
 3798WAT      O11635   1.104   0.231   5.061
 3798WAT     H111636   1.035   0.158   5.055
 3798WAT     H211637   1.092   0.281   5.146
 3799WAT      O11638   6.989   1.630   8.334
 3799WAT     H111639   7.039   1.704   8.288
 3799WAT     H211640   7.012   1.543   8.292
 3800WAT      O11641   5.644   0.683   3.331
 3800WAT     H111642   5.603   0.592   3.321
 3800WAT     H211643   5.685   0.711   3.244
 3801WAT      O11644   3.981   1.891   7.742
 3801WAT     H111645   3.929   1.938   7.813
 3801WAT     H211646   3.972   1.792   7.755
 3802WAT      O11647   1.914   4.962   4.137
 3802WAT     H111648   1.922   4.942   4.039
 3802WAT     H211649   1.887   5.057   4.150
 3803WAT      O11650   6.028   8.600   5.336
 3803WAT     H111651   6.121   8.563   5.326
 3803WAT     H211652   6.032   8.686   5.386
 3804WAT      O11653   3.817   3.936   7.387
 3804WAT     H111654   3.838   3.971   7.478
 3804WAT     H211655   3.780   4.009   7.330
 3805WAT      O11656   2.820   7.510   2.954
 3805WAT     H111657   2.770   7.451   2.891
 3805WAT     H211658   2.755   7.563   3.008
 3806WAT      O11659   9.372   7.334   1.936
 3806WAT     H111660   9.400   7.408   1.875
 3806WAT     H211661   9.289   7.361   1.985
 3807WAT      O11662   1.163   8.956   4.518
 3807WAT     H111663   1.217   8.937   4.600
 3807WAT     H211664   1.117   8.873   4.489
 3808WAT      O11665   2.818   3.830   0.633
 3808WAT     H111666   2.754   3.885   0.687
 3808WAT     H211667   2.767   3.772   0.570
 3809WAT      O11668   0.335   9.476   6.821
 3809WAT     H111669   0.412   9.420   6.850
 3809WAT     H211670   0.252   9.421   6.822
 3810WAT      O11671   1.812   8.828   6.031
 3810WAT     H111672   1.763   8.749   5.993
 3810WAT     H211673   1.876   8.797   6.101
 3811WAT      O11674   3.782   2.274   4.561
 3811WAT     H111675   3.741   2.191   4.525
 3811WAT     H211676   3.728   2.353   4.533
 3812WAT      O11677   5.673   1.857   3.047
 3812WAT     H111678   5.766   1.854   3.008
 3812WAT     H211679   5.616   1.917   2.991
 3813WAT      O11680   7.001   5.243   5.701
 3813WAT     H111681   6.912   5.287   5.711
 3813WAT     H211682   6.988   5.146   5.677
 3814WAT      O11683   1.709   0.616   0.281
 3814WAT     H111684   1.628   0.560   0.300
 3814WAT     H211685   1.695   0.666   0.196
 3815WAT      O11686   9.419   5.680   0.759
 3815WAT     H111687   9.443   5.680   0.662
 3815WAT     H211688   9.472   5.610   0.807
 3816WAT      O11689   7.083   1.167   1.344
 3816WAT     H111690   7.016   1.098   1.315
 3816WAT     H211691   7.071   1.187   1.441
 3817WAT      O11692   7.001   6.372   9.313
 3817WAT     H111693   6.977   6.289   9.365
 3817WAT     H211694   6.936   6.445   9.336
 3818WAT      O11695   7.126   5.850   7.386
 3818WAT     H111696   7.054   5.781   7.383
 3818WAT     H211697   7.151   5.870   7.480
 3819WAT      O11698   9.435   7.780   4.702
 3819WAT     H111699   9.417   7.687   4.733
 3819WAT     H211700   9.408   7.788   4.606
 3820WAT      O11701   0.510   0.368   4.711
 3820WAT     H111702   0.417   0.392   4.739
 3820WAT     H211703   0.574   0.434   4.750
 3821WAT      O11704   2.312   8.226   2.085
 3821WAT     H111705   2.234   8.174   2.120
 3821WAT     H211706   2.371   8.166   2.032
 3822WAT      O11707   7.482   6.045   1.926
 3822WAT     H111708   7.504   6.135   1.888
 3822WAT     H211709   7.429   6.056   2.010
 3823WAT      O11710   6.296   0.918   5.259
 3823WAT     H111711   6.276   0.991   5.193
 3823WAT     H211712   6.368   0.948   5.322
 3824WAT      O11713   9.647   0.883   1.867
 3824WAT     H111714   9.555   0.885   1.908
 3824WAT     H211715   9.679   0.977   1.853
 3825WAT      O11716   0.152   3.804   4.685
 3825WAT     H111717   0.235   3.784   4.737
 3825WAT     H211718   0.113   3.891   4.717
 3826WAT      O11719   4.371   8.753   1.150
 3826WAT     H111720   4.448   8.748   1.214
 3826WAT     H211721   4.374   8.674   1.088
 3827WAT      O11722   3.588   7.893   8.869
 3827WAT     H111723   3.585   7.797   8.841
 3827WAT     H211724   3.681   7.928   8.859
 3828WAT      O11725   8.207   3.496   7.878
 3828WAT     H111726   8.288   3.441   7.899
 3828WAT     H211727   8.150   3.502   7.960
 3829WAT      O11728   0.539   8.158   9.141
 3829WAT     H111729   0.620   8.175   9.084
 3829WAT     H211730   0.489   8.079   9.105
 3830WAT      O11731   0.201   1.067   2.378
 3830WAT     H111732   0.184   1.035   2.471
 3830WAT     H211733   0.145   1.148   2.359
 3831WAT      O11734   8.129   2.202   6.972
 3831WAT     H111735   8.036   2.239   6.963
 3831WAT     H211736   8.174   2.204   6.883
 3832WAT      O11737   0.644   2.817   5.245
 3832WAT     H111738   0.579   2.890   5.266
 3832WAT     H211739   0.595   2.730   5.242
 3833WAT      O11740   1.830   6.088   4.278
 3833WAT     H111741   1.759   6.053   4.340
 3833WAT     H211742   1.920   6.055   4.309
 3834WAT      O11743   7.515   9.364   7.688
 3834WAT     H111744   7.447   9.323   7.628
 3834WAT     H211745   7.588   9.299   7.706
 3835WAT      O11746   3.197   0.576   3.572
 3835WAT     H111747   3.262   0.569   3.648
 3835WAT     H211748   3.239   0.626   3.496
 3836WAT      O11749   3.349   9.123   7.719
 3836WAT     H111750   3.272   9.061   7.704
 3836WAT     H211751   3.350   9.152   7.814
 3837WAT      O11752   2.603   0.529   6.088
 3837WAT     H111753   2.549   0.613   6.091
 3837WAT     H211754   2.640   0.517   5.996
 3838WAT      O11755   0.416   6.299   7.814
 3838WAT     H111756   0.412   6.390   7.856
 3838WAT     H211757   0.431   6.308   7.716
 3839WAT      O11758   2.631   9.202   5.911
 3839WAT     H111759   2.623   9.159   6.000
 3839WAT     H211760   2.653   9.132   5.842
 3840WAT      O11761   3.953   2.293   3.879
 3840WAT     H111762   3.857   2.266   3.881
 3840WAT     H211763   3.974   2.336   3.791
 3841WAT      O11764   1.619   6.038   4.445
 3841WAT     H111765   1.527   6.068   4.419
 3841WAT     H211766   1.612   5.963   4.510
 3842WAT      O11767   6.318   0.216   2.568
 3842WAT     H111768   6.380   0.202   2.645
 3842WAT     H211769   6.321   0.312   2.540
 3843WAT      O11770   5.818   8.734   2.015
 3843WAT     H111771   5.727   8.746   2.055
 3843WAT     H211772   5.869   8.666   2.068
 3844WAT      O11773   7.438   8.029   0.100
 3844WAT     H111774   7.396   8.044   0.189
 3844WAT     H211775   7.498   7.949   0.103
 3845WAT      O11776   1.403   8.434   0.012
 3845WAT     H111777   1.455   8.496  -0.047
 3845WAT     H211778   1.316   8.411  -0.031
 3846WAT      O11779   8.200   9.622   6.513
 3846WAT     H111780   8.104   9.596   6.503
 3846WAT     H211781   8.207   9.707   6.565
 3847WAT      O11782   3.211   6.492   6.552
 3847WAT     H111783   3.280   6.547   6.601
 3847WAT     H211784   3.203   6.403   6.596
 3848WAT      O11785   6.729   7.622   0.936
 3848WAT     H111786   6.778   7.539   0.964
 3848WAT     H211787   6.717   7.681   1.015
 3849WAT      O11788   7.421   4.258   2.130
 3849WAT     H111789   7.354   4.322   2.167
 3849WAT     H211790   7.503   4.259   2.187
 3850WAT      O11791   8.806   8.021   4.746
 3850WAT     H111792   8.863   8.090   4.789
 3850WAT     H211793   8.863   7.960   4.691
 3851WAT      O11794   0.792   8.071   3.242
 3851WAT     H111795   0.802   8.022   3.329
 3851WAT     H211796   0.882   8.095   3.206
 3852WAT      O11797   8.544   9.326   1.121
 3852WAT     H111798   8.514   9.252   1.181
 3852WAT     H211799   8.503   9.314   1.030
 3853WAT      O11800   5.774   6.876   7.855
 3853WAT     H111801   5.735   6.815   7.925
 3853WAT     H211802   5.793   6.965   7.897
 3854WAT      O11803   6.466   4.847   0.248
 3854WAT     H111804   6.379   4.803   0.228
 3854WAT     H211805   6.450   4.932   0.298
 3855WAT      O11806   1.550   3.072   0.448
 3855WAT     H111807   1.528   3.167   0.474
 3855WAT     H211808   1.543   3.014   0.529
 3856WAT      O11809   0.115   7.745   9.379
 3856WAT     H111810   0.073   7.685   9.447
 3856WAT     H211811   0.044   7.779   9.317
 3857WAT      O11812   2.426   2.550   0.858
 3857WAT     H111813   2.339   2.541   0.907
 3857WAT     H211814   2.498   2.508   0.912
 3858WAT      O11815   0.764   1.657   7.912
 3858WAT     H111816   0.740   1.596   7.837
 3858WAT     H211817   0.681   1.693   7.954
 3859WAT      O11818   1.705   9.484   2.901
 3859WAT     H111819   1.689   9.512   2.807
 3859WAT     H211820   1.739   9.562   2.954
 3860WAT      O11821   7.550   3.905   7.528
 3860WAT     H111822   7.464   3.861   7.502
 3860WAT     H211823   7.624   3.838   7.528
 3861WAT      O11824   5.113   1.856   1.758
 3861WAT     H111825   5.163   1.919   1.817
 3861WAT     H211826   5.154   1.856   1.667
 3862WAT      O11827   6.129   3.604   6.186
 3862WAT     H111828   6.150   3.597   6.088
 3862WAT     H211829   6.038   3.644   6.198
 3863WAT      O11830   4.637   0.555   2.611
 3863WAT     H111831   4.710   0.493   2.638
 3863WAT     H211832   4.647   0.579   2.515
 3864WAT      O11833   8.656   7.575   0.585
 3864WAT     H111834   8.746   7.574   0.630
 3864WAT     H211835   8.585   7.554   0.653
 3865WAT      O11836   9.585   6.365   3.919
 3865WAT     H111837   9.598   6.382   4.017
 3865WAT     H211838   9.669   6.386   3.869
 3866WAT      O11839   4.767   3.357   6.753
 3866WAT     H111840   4.837   3.287   6.761
 3866WAT     H211841   4.677   3.316   6.764
 3867WAT      O11842   5.625   0.998   5.141
 3867WAT     H111843   5.590   1.074   5.195
 3867WAT     H211844   5.596   0.912   5.182
 3868WAT      O11845   6.617   5.863   5.896
 3868WAT     H111846   6.518   5.872   5.907
 3868WAT     H211847   6.657   5.954   5.880
 3869WAT      O11848   3.595   0.355   7.311
 3869WAT     H111849   3.564   0.304   7.392
 3869WAT     H211850   3.519   0.411   7.277
 3870WAT      O11851   7.597   7.321   0.755
 3870WAT     H111852   7.634   7.410   0.727
 3870WAT     H211853   7.672   7.260   0.780
 3871WAT      O11854   8.497   7.247   2.999
 3871WAT     H111855   8.476   7.345   3.006
 3871WAT     H211856   8.415   7.194   3.020
 3872WAT      O11857   0.519   8.895   7.686
 3872WAT     H111858   0.513   8.821   7.753
 3872WAT     H211859   0.531   8.982   7.733
 3873WAT      O11860   5.599   7.107   4.159
 3873WAT     H111861   5.590   7.137   4.064
 3873WAT     H211862   5.621   7.010   4.162
 3874WAT      O11863   8.424   4.294   0.766
 3874WAT     H111864   8.334   4.321   0.800
 3874WAT     H211865   8.418   4.275   0.668
 3875WAT      O11866   2.931   0.589   5.324
 3875WAT     H111867   2.932   0.498   5.283
 3875WAT     H211868   2.930   0.581   5.423
 3876WAT      O11869   8.624   5.996   9.436
 3876WAT     H111870   8.550   5.928   9.433
 3876WAT     H211871   8.586   6.088   9.439
 3877WAT      O11872   5.996   9.793   4.897
 3877WAT     H111873   6.026   9.881   4.859
 3877WAT     H211874   5.927   9.809   4.967
 3878WAT      O11875   9.092   0.267   7.112
 3878WAT     H111876   9.039   0.336   7.062
 3878WAT     H211877   9.143   0.312   7.186
 3879WAT      O11878   3.653   8.623   2.035
 3879WAT     H111879   3.694   8.540   1.997
 3879WAT     H211880   3.612   8.677   1.961
 3880WAT      O11881   6.345   6.990   2.480
 3880WAT     H111882   6.277   7.038   2.424
 3880WAT     H211883   6.407   6.939   2.420
 3881WAT      O11884   5.772   1.317   9.101
 3881WAT     H111885   5.777   1.232   9.153
 3881WAT     H211886   5.754   1.297   9.005
 3882WAT      O11887   5.380   6.037   6.834
 3882WAT     H111888   5.345   6.128   6.855
 3882WAT     H211889   5.311   5.968   6.858
 3883WAT      O11890   9.776   6.561   5.441
 3883WAT     H111891   9.857   6.501   5.441
 3883WAT     H211892   9.795   6.643   5.386
 3884WAT      O11893   2.477   8.861   5.836
 3884WAT     H111894   2.449   8.906   5.921
 3884WAT     H211895   2.554   8.910   5.796
 3885WAT      O11896   3.082   7.201   4.094
 3885WAT     H111897   3.056   7.292   4.062
 3885WAT     H211898   3.032   7.131   4.043
 3886WAT      O11899   0.068   8.440   8.697
 3886WAT     H111900   0.106   8.527   8.728
 3886WAT     H211901  -0.029   8.452   8.676
 3887WAT      O11902   9.137   1.633   2.038
 3887WAT     H111903   9.176   1.719   2.071
 3887WAT     H211904   9.038   1.638   2.043
 3888WAT      O11905   2.387   6.223   9.880
 3888WAT     H111906   2.446   6.211   9.800
 3888WAT     H211907   2.326   6.144   9.888
 3889WAT      O11908   9.352   6.624   8.752
 3889WAT     H111909   9.373   6.599   8.658
 3889WAT     H211910   9.321   6.543   8.802
 3890WAT      O11911   8.353   8.372   6.702
 3890WAT     H111912   8.343   8.429   6.784
 3890WAT     H211913   8.443   8.388   6.661
 3891WAT      O11914   9.444   0.296   3.824
 3891WAT     H111915   9.530   0.246   3.833
 3891WAT     H211916   9.448   0.378   3.881
 3892WAT      O11917   7.974   4.970   7.715
 3892WAT     H111918   7.917   5.031   7.659
 3892WAT     H211919   7.918   4.895   7.750
 3893WAT      O11920   6.313   5.043   3.153
 3893WAT     H111921   6.388   5.013   3.212
 3893WAT     H211922   6.322   5.002   3.062
 3894WAT      O11923   8.465   9.256   7.372
 3894WAT     H111924   8.523   9.181   7.340
 3894WAT     H211925   8.510   9.303   7.448
 3895WAT      O11926   4.499   4.495   2.391
 3895WAT     H111927   4.520   4.425   2.458
 3895WAT     H211928   4.577   4.557   2.380
 3896WAT      O11929   3.683   6.598   0.927
 3896WAT     H111930   3.652   6.512   0.885
 3896WAT     H211931   3.700   6.666   0.855
 3897WAT      O11932   1.794   7.755   7.073
 3897WAT     H111933   1.796   7.706   7.160
 3897WAT     H211934   1.707   7.804   7.063
 3898WAT      O11935   4.943   8.628   0.610
 3898WAT     H111936   4.888   8.550   0.578
 3898WAT     H211937   5.014   8.648   0.542
 3899WAT      O11938   1.883   5.664   6.974
 3899WAT     H111939   1.811   5.728   6.948
 3899WAT     H211940   1.882   5.651   7.073
 3900WAT      O11941   0.468   3.953   7.174
 3900WAT     H111942   0.527   3.929   7.097
 3900WAT     H211943   0.487   4.047   7.203
 3901WAT      O11944   9.434   2.116   1.549
 3901WAT     H111945   9.467   2.187   1.488
 3901WAT     H211946   9.506   2.091   1.613
 3902WAT      O11947   9.256   9.277   6.696
 3902WAT     H111948   9.237   9.373   6.714
 3902WAT     H211949   9.207   9.220   6.763
 3903WAT      O11950   8.408   3.664   3.821
 3903WAT     H111951   8.388   3.625   3.731
 3903WAT     H211952   8.478   3.608   3.866
 3904WAT      O11953   6.769   5.109   4.807
 3904WAT     H111954   6.680   5.064   4.799
 3904WAT     H211955   6.788   5.128   4.904
 3905WAT      O11956   3.345   6.468   4.046
 3905WAT     H111957   3.267   6.463   3.984
 3905WAT     H211958   3.424   6.504   3.996
 3906WAT      O11959   4.415   2.151   0.101
 3906WAT     H111960   4.464   2.236   0.082
 3906WAT     H211961   4.432   2.085   0.027
 3907WAT      O11962   7.464   0.011   1.910
 3907WAT     H111963   7.376   0.029   1.866
 3907WAT     H211964   7.537   0.057   1.858
 3908WAT      O11965   2.506   7.579   3.254
 3908WAT     H111966   2.478   7.486   3.228
 3908WAT     H211967   2.577   7.574   3.324
 3909WAT      O11968   0.696   9.616   1.070
 3909WAT     H111969   0.711   9.613   0.971
 3909WAT     H211970   0.783   9.633   1.115
 3910WAT      O11971   6.079   5.664   6.939
 3910WAT     H111972   6.008   5.722   6.900
 3910WAT     H211973   6.053   5.568   6.930
 3911WAT      O11974   8.494   7.841   6.258
 3911WAT     H111975   8.408   7.873   6.299
 3911WAT     H211976   8.525   7.906   6.190
 3912WAT      O11977   1.205   4.750   3.321
 3912WAT     H111978   1.162   4.814   3.257
 3912WAT     H211979   1.151   4.745   3.405
 3913WAT      O11980   5.456   7.568   9.045
 3913WAT     H111981   5.399   7.499   8.999
 3913WAT     H211982   5.551   7.539   9.043
 3914WAT      O11983   7.410   4.089   7.125
 3914WAT     H111984   7.471   4.033   7.181
 3914WAT     H211985   7.351   4.029   7.071
 3915WAT      O11986   7.849   1.279   6.376
 3915WAT     H111987   7.803   1.220   6.442
 3915WAT     H211988   7.792   1.357   6.354
 3916WAT      O11989   2.327   0.415   5.914
 3916WAT     H111990   2.313   0.317   5.930
 3916WAT     H211991   2.416   0.441   5.950
 3917WAT      O11992   1.022   4.499   2.070
 3917WAT     H111993   1.102   4.559   2.071
 3917WAT     H211994   0.946   4.543   2.118
 3918WAT      O11995   1.788   2.790   3.663
 3918WAT     H111996   1.852   2.739   3.605
 3918WAT     H211997   1.701   2.802   3.616
 3919WAT      O11998   1.339   7.923   8.207
 3919WAT     H111999   1.255   7.878   8.237
 3919WAT     H212000   1.373   7.878   8.124
 3920WAT      O12001   9.548   5.065   2.683
 3920WAT     H112002   9.449   5.050   2.694
 3920WAT     H212003   9.593   4.977   2.668
 3921WAT      O12004   7.943   7.015   7.487
 3921WAT     H112005   7.955   6.918   7.467
 3921WAT     H212006   7.874   7.054   7.426
 3922WAT      O12007   5.190   7.179   8.810
 3922WAT     H112008   5.196   7.267   8.859
 3922WAT     H212009   5.204   7.104   8.875
 3923WAT      O12010   0.628   8.001   6.387
 3923WAT     H112011   0.581   7.923   6.430
 3923WAT     H212012   0.602   8.085   6.436
 3924WAT      O12013   5.115   2.196   3.876
 3924WAT     H112014   5.097   2.138   3.796
 3924WAT     H212015   5.059   2.165   3.952
 3925WAT      O12016   2.539   4.478   6.473
 3925WAT     H112017   2.488   4.401   6.435
 3925WAT     H212018   2.475   4.538   6.522
 3926WAT      O12019   5.281   3.779   2.059
 3926WAT     H112020   5.373   3.780   2.098
 3926WAT     H212021   5.242   3.687   2.067
 3927WAT      O12022   6.274   5.993   8.432
 3927WAT     H112023   6.266   5.961   8.526
 3927WAT     H212024   6.317   6.083   8.431
 3928WAT      O12025   5.961   3.044   2.514
 3928WAT     H112026   5.862   3.033   2.522
 3928WAT     H212027   6.002   2.956   2.492
 3929WAT      O12028   8.365   3.635   9.077
 3929WAT     H112029   8.294   3.688   9.030
 3929WAT     H212030   8.430   3.600   9.010
 3930WAT      O12031   8.107   6.198   1.417
 3930WAT     H112032   8.054   6.182   1.333
 3930WAT     H212033   8.132   6.110   1.457
 3931WAT      O12034   2.120   2.419   3.547
 3931WAT     H112035   2.070   2.501   3.519
 3931WAT     H212036   2.218   2.438   3.544
 3932WAT      O12037   5.951   4.645   8.733
 3932WAT     H112038   5.920   4.560   8.689
 3932WAT     H212039   5.972   4.713   8.663
 3933WAT      O12040   4.369   2.256   8.078
 3933WAT     H112041   4.340   2.245   8.173
 3933WAT     H212042   4.366   2.168   8.031
 3934WAT      O12043   4.568   8.982   0.263
 3934WAT     H112044   4.494   8.950   0.323
 3934WAT     H212045   4.558   9.081   0.250
 3935WAT      O12046   1.637   7.759   2.954
 3935WAT     H112047   1.658   7.820   3.031
 3935WAT     H212048   1.690   7.789   2.874
 3936WAT      O12049   1.208   3.621   9.003
 3936WAT     H112050   1.195   3.719   9.013
 3936WAT     H212051   1.226   3.599   8.907
 3937WAT      O12052   6.722   8.737   7.889
 3937WAT     H112053   6.741   8.811   7.953
 3937WAT     H212054   6.785   8.661   7.907
 3938WAT      O12055   2.608   5.355   1.295
 3938WAT     H112056   2.644   5.401   1.214
 3938WAT     H212057   2.667   5.375   1.373
 3939WAT      O12058   7.534   0.641   9.079
 3939WAT     H112059   7.461   0.609   9.140
 3939WAT     H212060   7.513   0.615   8.985
 3940WAT      O12061   3.332   6.098   6.062
 3940WAT     H112062   3.258   6.161   6.041
 3940WAT     H212063   3.316   6.010   6.017
 3941WAT      O12064   6.763   1.731   7.755
 3941WAT     H112065   6.790   1.714   7.850
 3941WAT     H212066   6.828   1.686   7.694
 3942WAT      O12067   0.879   3.845   8.432
 3942WAT     H112068   0.786   3.848   8.468
 3942WAT     H212069   0.892   3.917   8.365
 3943WAT      O12070   7.501   2.434   0.293
 3943WAT     H112071   7.549   2.522   0.291
 3943WAT     H212072   7.417   2.444   0.347
 3944WAT      O12073   3.152   7.001   0.586
 3944WAT     H112074   3.200   7.089   0.584
 3944WAT     H212075   3.111   6.987   0.677
 3945WAT      O12076   7.631   3.479   7.351
 3945WAT     H112077   7.658   3.569   7.385
 3945WAT     H212078   7.701   3.412   7.376
 3946WAT      O12079   9.239   3.506   7.637
 3946WAT     H112080   9.238   3.564   7.556
 3946WAT     H212081   9.266   3.413   7.612
 3947WAT      O12082   1.729   3.067   0.050
 3947WAT     H112083   1.768   3.144   0.100
 3947WAT     H212084   1.661   3.101  -0.016
 3948WAT      O12085   6.791   6.207   1.605
 3948WAT     H112086   6.696   6.184   1.624
 3948WAT     H212087   6.850   6.132   1.635
 3949WAT      O12088   6.238   9.432   6.884
 3949WAT     H112089   6.162   9.410   6.946
 3949WAT     H212090   6.316   9.465   6.938
 3950WAT      O12091   1.505   6.697   4.109
 3950WAT     H112092   1.437   6.681   4.037
 3950WAT     H212093   1.466   6.756   4.179
 3951WAT      O12094   4.742   7.965   0.133
 3951WAT     H112095   4.750   8.027   0.211
 3951WAT     H212096   4.647   7.965   0.101
 3952WAT      O12097   4.284   5.649   0.812
 3952WAT     H112098   4.214   5.648   0.884
 3952WAT     H212099   4.242   5.674   0.725
 3953WAT      O12100   9.649   6.855   4.624
 3953WAT     H112101   9.576   6.909   4.581
 3953WAT     H212102   9.676   6.782   4.562
 3954WAT      O12103   8.196   0.631   5.879
 3954WAT     H112104   8.206   0.588   5.968
 3954WAT     H212105   8.211   0.563   5.807
 3955WAT      O12106   6.333   5.735   5.299
 3955WAT     H112107   6.293   5.732   5.390
 3955WAT     H212108   6.303   5.655   5.247
 3956WAT      O12109   6.059   7.697   3.479
 3956WAT     H112110   6.156   7.679   3.496
 3956WAT     H212111   6.050   7.775   3.417
 3957WAT      O12112   0.790   5.644   3.969
 3957WAT     H112113   0.702   5.596   3.966
 3957WAT     H212114   0.775   5.742   3.976
 3958WAT      O12115   6.579   0.712   3.570
 3958WAT     H112116   6.482   0.703   3.592
 3958WAT     H212117   6.590   0.755   3.481
 3959WAT      O12118   7.290   3.877   1.645
 3959WAT     H112119   7.259   3.782   1.644
 3959WAT     H212120   7.293   3.912   1.551
 3960WAT      O12121   1.129   9.062   9.204
 3960WAT     H112122   1.155   9.081   9.110
 3960WAT     H212123   1.210   9.071   9.263
 3961WAT      O12124   9.481   2.476   6.114
 3961WAT     H112125   9.574   2.448   6.137
 3961WAT     H212126   9.416   2.432   6.176
 3962WAT      O12127   8.636   3.548   4.243
 3962WAT     H112128   8.563   3.595   4.294
 3962WAT     H212129   8.616   3.450   4.240
 3963WAT      O12130   6.977   9.530   8.474
 3963WAT     H112131   7.060   9.562   8.428
 3963WAT     H212132   6.974   9.567   8.566
 3964WAT      O12133   2.673   3.620   0.855
 3964WAT     H112134   2.613   3.677   0.799
 3964WAT     H212135   2.732   3.679   0.911
 3965WAT      O12136   9.331   0.779   7.138
 3965WAT     H112137   9.360   0.818   7.051
 3965WAT     H212138   9.287   0.850   7.193
 3966WAT      O12139   9.101   9.754   3.639
 3966WAT     H112140   9.012   9.791   3.666
 3966WAT     H212141   9.145   9.816   3.574
 3967WAT      O12142   6.726   0.524   2.253
 3967WAT     H112143   6.758   0.499   2.161
 3967WAT     H212144   6.794   0.498   2.321
 3968WAT      O12145   5.524   6.518   5.455
 3968WAT     H112146   5.471   6.550   5.376
 3968WAT     H212147   5.589   6.448   5.426
 3969WAT      O12148   4.695   2.015   0.317
 3969WAT     H112149   4.661   1.925   0.344
 3969WAT     H212150   4.794   2.019   0.331
 3970WAT      O12151   4.351   9.100   1.370
 3970WAT     H112152   4.262   9.056   1.359
 3970WAT     H212153   4.404   9.090   1.286
 3971WAT      O12154   6.962   1.641   0.690
 3971WAT     H112155   7.024   1.716   0.714
 3971WAT     H212156   6.870   1.661   0.722
 3972WAT      O12157   8.559   9.812   2.413
 3972WAT     H112158   8.572   9.900   2.459
 3972WAT     H212159   8.467   9.809   2.374
 3973WAT      O12160   6.711   2.171   0.835
 3973WAT     H112161   6.792   2.144   0.888
 3973WAT     H212162   6.696   2.270   0.846
 3974WAT      O12163   1.723   3.135   2.893
 3974WAT     H112164   1.801   3.139   2.955
 3974WAT     H212165   1.640   3.117   2.946
 3975WAT      O12166   0.284   2.923   6.735
 3975WAT     H112167   0.242   2.869   6.663
 3975WAT     H212168   0.307   3.014   6.699
 3976WAT      O12169   9.516   1.650   0.462
 3976WAT     H112170   9.437   1.697   0.422
 3976WAT     H212171   9.485   1.573   0.517
 3977WAT      O12172   5.784   4.287   1.041
 3977WAT     H112173   5.857   4.300   0.974
 3977WAT     H212174   5.723   4.367   1.040
 3978WAT      O12175   6.133   2.200   0.969
 3978WAT     H112176   6.190   2.174   1.047
 3978WAT     H212177   6.057   2.135   0.961
 3979WAT      O12178   1.543   2.795   0.893
 3979WAT     H112179   1.595   2.845   0.824
 3979WAT     H212180   1.565   2.831   0.984
 3980WAT      O12181   1.957   1.951   0.964
 3980WAT     H112182   2.016   2.022   1.002
 3980WAT     H212183   1.937   1.971   0.868
 3981WAT      O12184   9.269   5.361   0.908
 3981WAT     H112185   9.309   5.299   0.840
 3981WAT     H212186   9.234   5.308   0.985
 3982WAT      O12187   0.459   5.252   3.351
 3982WAT     H112188   0.497   5.223   3.439
 3982WAT     H212189   0.374   5.303   3.367
 3983WAT      O12190   2.819   0.186   1.962
 3983WAT     H112191   2.809   0.284   1.949
 3983WAT     H212192   2.745   0.138   1.914
 3984WAT      O12193   6.457   6.339   7.429
 3984WAT     H112194   6.508   6.258   7.457
 3984WAT     H212195   6.521   6.414   7.412
 3985WAT      O12196   8.862   6.097   3.421
 3985WAT     H112197   8.783   6.042   3.449
 3985WAT     H212198   8.931   6.037   3.380
 3986WAT      O12199   5.768   1.750   2.178
 3986WAT     H112200   5.717   1.697   2.246
 3986WAT     H212201   5.853   1.782   2.219
 3987WAT      O12202   7.159   1.442   6.792
 3987WAT     H112203   7.224   1.368   6.776
 3987WAT     H212204   7.083   1.434   6.727
 3988WAT      O12205   6.071   2.363   4.899
 3988WAT     H112206   5.982   2.393   4.934
 3988WAT     H212207   6.131   2.341   4.976
 3989WAT      O12208   7.697   4.441   5.328
 3989WAT     H112209   7.704   4.350   5.287
 3989WAT     H212210   7.734   4.439   5.421
 3990WAT      O12211   6.057   0.462   0.030
 3990WAT     H112212   6.149   0.443   0.065
 3990WAT     H212213   6.008   0.376   0.017
 3991WAT      O12214   5.216   6.284   5.221
 3991WAT     H112215   5.147   6.220   5.186
 3991WAT     H212216   5.263   6.243   5.299
 3992WAT      O12217   8.118   2.191   6.533
 3992WAT     H112218   8.192   2.176   6.600
 3992WAT     H212219   8.030   2.175   6.577
 3993WAT      O12220   3.024   8.987   6.011
 3993WAT     H112221   3.086   9.053   5.969
 3993WAT     H212222   2.962   9.035   6.073
 3994WAT      O12223   0.653   1.510   0.179
 3994WAT     H112224   0.553   1.513   0.171
 3994WAT     H212225   0.692   1.593   0.140
 3995WAT      O12226   7.603   8.821   6.348
 3995WAT     H112227   7.619   8.757   6.423
 3995WAT     H212228   7.521   8.875   6.367
 3996WAT      O12229   9.063   6.215   2.793
 3996WAT     H112230   8.974   6.174   2.772
 3996WAT     H212231   9.131   6.142   2.802
 3997WAT      O12232   2.753   5.221   9.673
 3997WAT     H112233   2.771   5.279   9.753
 3997WAT     H212234   2.818   5.245   9.601
 3998WAT      O12235   7.230   6.733   0.471
 3998WAT     H112236   7.227   6.650   0.415
 3998WAT     H212237   7.149   6.788   0.452
 3999WAT      O12238   2.686   5.972   8.124
 3999WAT     H112239   2.776   5.959   8.167
 3999WAT     H212240   2.620   6.002   8.194
 4000WAT      O12241   2.121   6.352   3.261
 4000WAT     H112242   2.161   6.440   3.286
 4000WAT     H212243   2.190   6.280   3.269
 4001WAT      O12244   9.140   9.762   2.383
 4001WAT     H112245   9.153   9.833   2.313
 4001WAT     H212246   9.050   9.773   2.426
 4002WAT      O12247   3.278   1.398   0.762
 4002WAT     H112248   3.283   1.480   0.820
 4002WAT     H212249   3.329   1.323   0.806
 4003WAT      O12250   9.673   0.820   8.894
 4003WAT     H112251   9.692   0.745   8.957
 4003WAT     H212252   9.584   0.860   8.915
 4004WAT      O12253   9.232   5.205   4.629
 4004WAT     H112254   9.292   5.224   4.552
 4004WAT     H212255   9.213   5.290   4.679
 4005WAT      O12256   6.891   6.966   4.409
 4005WAT     H112257   6.870   7.059   4.379
 4005WAT     H212258   6.872   6.957   4.507
 4006WAT      O12259   5.122   8.140   7.338
 4006WAT     H112260   5.153   8.108   7.428
 4006WAT     H212261   5.202   8.158   7.281
 4007WAT      O12262   0.487   9.215   2.029
 4007WAT     H112263   0.406   9.223   2.089
 4007WAT     H212264   0.557   9.160   2.076
 4008WAT      O12265   7.761   7.571   4.172
 4008WAT     H112266   7.678   7.517   4.157
 4008WAT     H212267   7.785   7.568   4.269
 4009WAT      O12268   5.344   5.605   6.548
 4009WAT     H112269   5.435   5.634   6.519
 4009WAT     H212270   5.315   5.660   6.626
 4010WAT      O12271   9.171   1.800   7.650
 4010WAT     H112272   9.162   1.798   7.750
 4010WAT     H212273   9.119   1.877   7.614
 4011WAT      O12274   6.517   6.214   1.659
 4011WAT     H112275   6.506   6.255   1.750
 4011WAT     H212276   6.449   6.253   1.597
 4012WAT      O12277   6.640   1.075   2.889
 4012WAT     H112278   6.734   1.083   2.855
 4012WAT     H212279   6.637   1.100   2.986
 4013WAT      O12280   5.813   7.827   0.512
 4013WAT     H112281   5.722   7.788   0.496
 4013WAT     H212282   5.825   7.844   0.609
 4014WAT      O12283   7.948   2.078   5.091
 4014WAT     H112284   7.903   2.079   5.181
 4014WAT     H212285   8.021   2.146   5.090
 4015WAT      O12286   8.803   9.419   1.187
 4015WAT     H112287   8.815   9.472   1.271
 4015WAT     H212288   8.708   9.391   1.179
 4016WAT      O12289   2.365   0.696   3.836
 4016WAT     H112290   2.440   0.710   3.771
 4016WAT     H212291   2.326   0.785   3.860
 4017WAT      O12292   8.315   6.482   7.118
 4017WAT     H112293   8.221   6.493   7.085
 4017WAT     H212294   8.358   6.572   7.127
 4018WAT      O12295   8.292   2.457   3.864
 4018WAT     H112296   8.250   2.472   3.774
 4018WAT     H212297   8.223   2.421   3.927
 4019WAT      O12298   4.314   4.002   2.160
 4019WAT     H112299   4.322   4.006   2.061
 4019WAT     H212300   4.398   4.037   2.202
 4020WAT      O12301   2.215   0.663   5.831
 4020WAT     H112302   2.260   0.743   5.871
 4020WAT     H212303   2.274   0.583   5.841
 4021WAT      O12304   5.798   0.384   8.420
 4021WAT     H112305   5.820   0.405   8.516
 4021WAT     H212306   5.719   0.323   8.416
 4022WAT      O12307   0.606   9.774   2.966
 4022WAT     H112308   0.517   9.799   2.929
 4022WAT     H212309   0.619   9.819   3.054
 4023WAT      O12310   0.035   2.073   2.543
 4023WAT     H112311   0.085   1.987   2.541
 4023WAT     H212312   0.049   2.118   2.632
 4024WAT      O12313   5.010   7.241   4.669
 4024WAT     H112314   5.029   7.332   4.632
 4024WAT     H212315   5.015   7.244   4.769
 4025WAT      O12316   5.002   4.529   7.554
 4025WAT     H112317   5.076   4.583   7.513
 4025WAT     H212318   4.964   4.467   7.485
 4026WAT      O12319   1.003   7.117   6.001
 4026WAT     H112320   1.021   7.115   5.902
 4026WAT     H212321   1.076   7.067   6.048
 4027WAT      O12322   4.671   0.182   9.664
 4027WAT     H112323   4.736   0.219   9.731
 4027WAT     H212324   4.697   0.089   9.639
 4028WAT      O12325   1.492   0.938   5.860
 4028WAT     H112326   1.472   0.967   5.766
 4028WAT     H212327   1.582   0.894   5.863
 4029WAT      O12328   3.302   8.263   1.073
 4029WAT     H112329   3.372   8.194   1.093
 4029WAT     H212330   3.302   8.332   1.146
 4030WAT      O12331   0.578   7.526   1.168
 4030WAT     H112332   0.606   7.586   1.093
 4030WAT     H212333   0.638   7.541   1.246
 4031WAT      O12334   2.419   2.192   0.695
 4031WAT     H112335   2.484   2.244   0.640
 4031WAT     H212336   2.437   2.094   0.685
 4032WAT      O12337   7.322   3.477   9.587
 4032WAT     H112338   7.371   3.532   9.654
 4032WAT     H212339   7.234   3.521   9.566
 4033WAT      O12340   1.720   7.047   1.800
 4033WAT     H112341   1.644   7.015   1.856
 4033WAT     H212342   1.747   6.974   1.736
 4034WAT      O12343   9.737   1.412   4.972
 4034WAT     H112344   9.676   1.456   4.906
 4034WAT     H212345   9.829   1.406   4.933
 4035WAT      O12346   8.142   5.488   3.437
 4035WAT     H112347   8.227   5.514   3.391
 4035WAT     H212348   8.065   5.534   3.393
 4036WAT      O12349   1.253   3.239   9.275
 4036WAT     H112350   1.178   3.305   9.272
 4036WAT     H212351   1.286   3.232   9.369
 4037WAT      O12352   4.705   0.606   5.695
 4037WAT     H112353   4.790   0.649   5.726
 4037WAT     H212354   4.726   0.520   5.648
 4038WAT      O12355   1.522   8.170   5.206
 4038WAT     H112356   1.431   8.138   5.231
 4038WAT     H212357   1.563   8.108   5.139
 4039WAT      O12358   3.217   8.206   7.236
 4039WAT     H112359   3.137   8.148   7.221
 4039WAT     H212360   3.298   8.149   7.251
 4040WAT      O12361   1.479   1.316   0.055
 4040WAT     H112362   1.388   1.355   0.069
 4040WAT     H212363   1.474   1.244  -0.014
 4041WAT      O12364   7.258   7.440   2.092
 4041WAT     H112365   7.305   7.434   2.179
 4041WAT     H212366   7.305   7.505   2.032
 4042WAT      O12367   3.989   2.153   1.479
 4042WAT     H112368   3.966   2.244   1.515
 4042WAT     H212369   3.905   2.104   1.456
 4043WAT      O12370   9.015   4.163   7.555
 4043WAT     H112371   9.000   4.166   7.654
 4043WAT     H212372   9.052   4.074   7.530
 4044WAT      O12373   8.177   8.756   9.835
 4044WAT     H112374   8.142   8.742   9.742
 4044WAT     H212375   8.107   8.730   9.901
 4045WAT      O12376   6.665   6.405   3.983
 4045WAT     H112377   6.580   6.394   4.035
 4045WAT     H212378   6.684   6.322   3.932
 4046WAT      O12379   4.977   6.584   1.574
 4046WAT     H112380   4.896   6.593   1.633
 4046WAT     H212381   5.042   6.522   1.617
 4047WAT      O12382   5.722   9.801   4.192
 4047WAT     H112383   5.741   9.805   4.094
 4047WAT     H212384   5.756   9.715   4.230
 4048WAT      O12385   3.786   2.765   0.294
 4048WAT     H112386   3.712   2.759   0.362
 4048WAT     H212387   3.867   2.803   0.338
 4049WAT      O12388   1.548   1.753   4.591
 4049WAT     H112389   1.467   1.803   4.561
 4049WAT     H212390   1.541   1.657   4.562
 4050WAT      O12391   3.702   3.577   0.749
 4050WAT     H112392   3.777   3.640   0.727
 4050WAT     H212393   3.634   3.580   0.676
 4051WAT      O12394   9.678   5.130   4.103
 4051WAT     H112395   9.640   5.097   4.189
 4051WAT     H212396   9.718   5.054   4.053
 4052WAT      O12397   0.239   6.068   6.751
 4052WAT     H112398   0.152   6.047   6.796
 4052WAT     H212399   0.302   6.109   6.817
 4053WAT      O12400   9.236   4.636   2.043
 4053WAT     H112401   9.253   4.562   1.978
 4053WAT     H212402   9.319   4.690   2.055
 4054WAT      O12403   6.236   5.353   4.150
 4054WAT     H112404   6.270   5.446   4.142
 4054WAT     H212405   6.140   5.355   4.179
 4055WAT      O12406   7.669   5.144   8.175
 4055WAT     H112407   7.626   5.106   8.093
 4055WAT     H212408   7.598   5.181   8.235
 4056WAT      O12409   7.729   5.505   9.507
 4056WAT     H112410   7.719   5.409   9.535
 4056WAT     H212411   7.825   5.530   9.508
 4057WAT      O12412   3.371   0.730   8.934
 4057WAT     H112413   3.271   0.732   8.937
 4057WAT     H212414   3.407   0.691   9.019
 4058WAT      O12415   0.035   1.909   1.496
 4058WAT     H112416   0.120   1.953   1.465
 4058WAT     H212417   0.044   1.810   1.490
 4059WAT      O12418   1.711   4.364   7.052
 4059WAT     H112419   1.760   4.277   7.042
 4059WAT     H212420   1.727   4.421   6.972
 4060WAT      O12421   3.905   0.328   0.986
 4060WAT     H112422   3.825   0.335   1.046
 4060WAT     H212423   3.984   0.368   1.032
 4061WAT      O12424   3.357   3.751   3.239
 4061WAT     H112425   3.377   3.749   3.141
 4061WAT     H212426   3.331   3.844   3.265
 4062WAT      O12427   1.590   7.454   6.570
 4062WAT     H112428   1.650   7.379   6.597
 4062WAT     H212429   1.498   7.419   6.553
 4063WAT      O12430   0.774   1.037   2.154
 4063WAT     H112431   0.729   0.950   2.172
 4063WAT     H212432   0.873   1.026   2.162
 4064WAT      O12433   5.952   2.623   2.204
 4064WAT     H112434   6.046   2.649   2.182
 4064WAT     H212435   5.910   2.694   2.260
 4065WAT      O12436   6.988   6.559   7.993
 4065WAT     H112437   7.060   6.571   7.924
 4065WAT     H212438   7.031   6.545   8.083
 4066WAT      O12439   1.346   0.112   6.238
 4066WAT     H112440   1.444   0.090   6.243
 4066WAT     H212441   1.312   0.095   6.146
 4067WAT      O12442   4.319   8.757   2.549
 4067WAT     H112443   4.345   8.852   2.536
 4067WAT     H212444   4.373   8.717   2.623
 4068WAT      O12445   1.079   5.912   9.806
 4068WAT     H112446   1.030   5.882   9.724
 4068WAT     H212447   1.013   5.945   9.874
 4069WAT      O12448   0.325   9.312   7.911
 4069WAT     H112449   0.228   9.291   7.895
 4069WAT     H212450   0.341   9.321   8.009
 4070WAT      O12451   9.171   2.328   8.379
 4070WAT     H112452   9.193   2.257   8.447
 4070WAT     H212453   9.155   2.285   8.291
 4071WAT      O12454   8.588   1.817   8.782
 4071WAT     H112455   8.523   1.746   8.755
 4071WAT     H212456   8.589   1.890   8.714
 4072WAT      O12457   5.735   2.448   6.852
 4072WAT     H112458   5.811   2.440   6.787
 4072WAT     H212459   5.659   2.496   6.808
 4073WAT      O12460   2.149   0.355   0.535
 4073WAT     H112461   2.065   0.394   0.495
 4073WAT     H212462   2.227   0.411   0.508
 4074WAT      O12463   6.939   7.204   8.660
 4074WAT     H112464   6.879   7.256   8.721
 4074WAT     H212465   6.897   7.116   8.638
 4075WAT      O12466   8.334   8.449   7.392
 4075WAT     H112467   8.305   8.543   7.409
 4075WAT     H212468   8.322   8.394   7.475
 4076WAT      O12469   5.086   7.118   5.805
 4076WAT     H112470   5.107   7.163   5.718
 4076WAT     H212471   5.162   7.057   5.830
 4077WAT      O12472   3.280   2.277   3.688
 4077WAT     H112473   3.347   2.317   3.625
 4077WAT     H212474   3.188   2.292   3.652
 4078WAT      O12475   2.259   4.357   6.764
 4078WAT     H112476   2.301   4.378   6.852
 4078WAT     H212477   2.271   4.260   6.744
 4079WAT      O12478   7.827   2.148   0.141
 4079WAT     H112479   7.880   2.064   0.130
 4079WAT     H212480   7.784   2.172   0.054
 4080WAT      O12481   0.667   5.873   0.468
 4080WAT     H112482   0.733   5.880   0.393
 4080WAT     H212483   0.701   5.925   0.546
 4081WAT      O12484   0.862   7.692   7.328
 4081WAT     H112485   0.822   7.604   7.301
 4081WAT     H212486   0.792   7.763   7.323
 4082WAT      O12487   5.380   4.462   3.376
 4082WAT     H112488   5.363   4.414   3.290
 4082WAT     H212489   5.414   4.397   3.444
 4083WAT      O12490   4.656   8.104   4.351
 4083WAT     H112491   4.644   8.203   4.353
 4083WAT     H212492   4.569   8.061   4.325
 4084WAT      O12493   7.374   8.146   2.051
 4084WAT     H112494   7.403   8.155   1.956
 4084WAT     H212495   7.439   8.089   2.101
 4085WAT      O12496   1.887   8.047   8.933
 4085WAT     H112497   1.971   8.000   8.959
 4085WAT     H212498   1.909   8.137   8.897
 4086WAT      O12499   6.263   3.786   2.438
 4086WAT     H112500   6.196   3.854   2.467
 4086WAT     H212501   6.338   3.831   2.390
 4087WAT      O12502   1.522   6.237   6.225
 4087WAT     H112503   1.598   6.293   6.259
 4087WAT     H212504   1.440   6.293   6.218
 4088WAT      O12505   0.452   2.131   3.864
 4088WAT     H112506   0.520   2.130   3.790
 4088WAT     H212507   0.485   2.191   3.937
 4089WAT      O12508   1.701   4.206   1.998
 4089WAT     H112509   1.783   4.173   1.952
 4089WAT     H212510   1.642   4.252   1.931
 4090WAT      O12511   1.480   9.284   1.511
 4090WAT     H112512   1.469   9.313   1.416
 4090WAT     H212513   1.411   9.329   1.568
 4091WAT      O12514   1.596   5.663   6.694
 4091WAT     H112515   1.566   5.597   6.625
 4091WAT     H212516   1.584   5.756   6.660
 4092WAT      O12517   2.084   8.255   5.041
 4092WAT     H112518   2.158   8.283   4.980
 4092WAT     H212519   2.117   8.252   5.135
 4093WAT      O12520   1.453   1.881   2.672
 4093WAT     H112521   1.541   1.925   2.694
 4093WAT     H212522   1.410   1.851   2.756
 4094WAT      O12523   4.620   9.208   6.831
 4094WAT     H112524   4.698   9.155   6.865
 4094WAT     H212525   4.536   9.173   6.870
 4095WAT      O12526   5.851   1.367   5.197
 4095WAT     H112527   5.938   1.324   5.172
 4095WAT     H212528   5.786   1.358   5.122
 4096WAT      O12529   6.607   9.785   8.039
 4096WAT     H112530   6.544   9.709   8.022
 4096WAT     H212531   6.672   9.758   8.110
 4097WAT      O12532   7.117   0.276   1.632
 4097WAT     H112533   7.089   0.248   1.540
 4097WAT     H212534   7.140   0.373   1.631
 4098WAT      O12535   1.285   0.901   0.971
 4098WAT     H112536   1.243   0.984   0.936
 4098WAT     H212537   1.312   0.842   0.895
 4099WAT      O12538   7.227   2.411   9.631
 4099WAT     H112539   7.145   2.417   9.575
 4099WAT     H212540   7.305   2.448   9.580
 4100WAT      O12541   7.214   0.800   4.985
 4100WAT     H112542   7.212   0.701   5.000
 4100WAT     H212543   7.243   0.846   5.069
 4101WAT      O12544   2.122   9.300   2.402
 4101WAT     H112545   2.177   9.374   2.441
 4101WAT     H212546   2.116   9.311   2.303
 4102WAT      O12547   9.133   6.576   2.041
 4102WAT     H112548   9.068   6.547   2.111
 4102WAT     H212549   9.095   6.556   1.951
 4103WAT      O12550   7.718   1.955   0.818
 4103WAT     H112551   7.764   1.869   0.839
 4103WAT     H212552   7.677   1.993   0.901
 4104WAT      O12553   4.930   7.903   1.954
 4104WAT     H112554   4.867   7.832   1.923
 4104WAT     H212555   4.949   7.890   2.051
 4105WAT      O12556   6.998   8.155   4.129
 4105WAT     H112557   7.037   8.096   4.200
 4105WAT     H212558   7.004   8.250   4.158
 4106WAT      O12559   6.023   6.358   6.960
 4106WAT     H112560   6.114   6.383   6.990
 4106WAT     H212561   5.955   6.390   7.026
 4107WAT      O12562   5.485   0.487   9.531
 4107WAT     H112563   5.473   0.584   9.553
 4107WAT     H212564   5.429   0.431   9.592
 4108WAT      O12565   2.495   0.763   3.182
 4108WAT     H112566   2.557   0.818   3.237
 4108WAT     H212567   2.428   0.823   3.138
 4109WAT      O12568   4.244   8.721   3.228
 4109WAT     H112569   4.293   8.752   3.310
 4109WAT     H212570   4.286   8.637   3.195
 4110WAT      O12571   4.558   8.381   8.147
 4110WAT     H112572   4.535   8.438   8.226
 4110WAT     H212573   4.574   8.287   8.177
 4111WAT      O12574   4.038   7.432   6.532
 4111WAT     H112575   4.001   7.432   6.625
 4111WAT     H212576   4.125   7.383   6.531
 4112WAT      O12577   8.925   2.151   9.157
 4112WAT     H112578   9.006   2.176   9.210
 4112WAT     H212579   8.951   2.132   9.063
 4113WAT      O12580   2.671   9.557   0.723
 4113WAT     H112581   2.584   9.571   0.770
 4113WAT     H212582   2.745   9.555   0.790
 4114WAT      O12583   3.523   9.515   9.082
 4114WAT     H112584   3.478   9.431   9.110
 4114WAT     H212585   3.541   9.512   8.984
 4115WAT      O12586   7.446   3.222   8.366
 4115WAT     H112587   7.523   3.176   8.322
 4115WAT     H212588   7.480   3.300   8.419
 4116WAT      O12589   7.658   1.377   2.792
 4116WAT     H112590   7.593   1.306   2.764
 4116WAT     H212591   7.736   1.335   2.837
 4117WAT      O12592   0.188   7.107   1.981
 4117WAT     H112593   0.192   7.191   1.926
 4117WAT     H212594   0.121   7.119   2.054
 4118WAT      O12595   1.420   4.118   5.995
 4118WAT     H112596   1.384   4.211   5.983
 4118WAT     H212597   1.508   4.111   5.948
 4119WAT      O12598   8.590   2.742   6.137
 4119WAT     H112599   8.507   2.797   6.141
 4119WAT     H212600   8.581   2.671   6.067
 4120WAT      O12601   2.153   1.049   3.584
 4120WAT     H112602   2.092   0.985   3.631
 4120WAT     H212603   2.156   1.135   3.634
 4121WAT      O12604   9.833   8.328   3.458
 4121WAT     H112605   9.858   8.369   3.545
 4121WAT     H212606   9.734   8.324   3.450
 4122WAT      O12607   2.133   5.178   2.337
 4122WAT     H112608   2.174   5.087   2.335
 4122WAT     H212609   2.115   5.205   2.432
 4123WAT      O12610   9.413   4.888   3.592
 4123WAT     H112611   9.400   4.889   3.493
 4123WAT     H212612   9.467   4.808   3.618
 4124WAT      O12613   9.658   4.901   9.145
 4124WAT     H112614   9.680   4.888   9.048
 4124WAT     H212615   9.742   4.908   9.198
 4125WAT      O12616   2.353   1.161   6.067
 4125WAT     H112617   2.444   1.190   6.038
 4125WAT     H212618   2.285   1.188   5.998
 4126WAT      O12619   2.471   2.168   2.538
 4126WAT     H112620   2.384   2.121   2.556
 4126WAT     H212621   2.458   2.235   2.464
 4127WAT      O12622   0.667   9.505   3.581
 4127WAT     H112623   0.741   9.572   3.586
 4127WAT     H212624   0.700   9.421   3.538
 4128WAT      O12625   1.247   3.582   1.103
 4128WAT     H112626   1.335   3.540   1.084
 4128WAT     H212627   1.210   3.546   1.188
 4129WAT      O12628   9.110   7.119   9.734
 4129WAT     H112629   9.168   7.086   9.809
 4129WAT     H212630   9.114   7.219   9.732
 4130WAT      O12631   1.893   0.912   4.254
 4130WAT     H112632   1.865   0.907   4.350
 4130WAT     H212633   1.957   0.838   4.234
 4131WAT      O12634   1.432   6.365   4.278
 4131WAT     H112635   1.370   6.430   4.324
 4131WAT     H212636   1.521   6.366   4.323
 4132WAT      O12637   2.320   4.018   6.823
 4132WAT     H112638   2.234   3.993   6.867
 4132WAT     H212639   2.300   4.064   6.736
 4133WAT      O12640   0.678   5.594   9.250
 4133WAT     H112641   0.643   5.634   9.335
 4133WAT     H212642   0.610   5.530   9.213
 4134WAT      O12643   6.570   9.018   5.018
 4134WAT     H112644   6.576   8.997   5.116
 4134WAT     H212645   6.636   8.962   4.968
 4135WAT      O12646   5.688   8.149   6.060
 4135WAT     H112647   5.655   8.243   6.050
 4135WAT     H212648   5.740   8.123   5.980
 4136WAT      O12649   2.750   7.790   5.971
 4136WAT     H112650   2.847   7.795   5.947
 4136WAT     H212651   2.695   7.809   5.890
 4137WAT      O12652   4.543   5.602   4.324
 4137WAT     H112653   4.587   5.533   4.267
 4137WAT     H212654   4.542   5.572   4.419
 4138WAT      O12655   8.879   7.446   5.314
 4138WAT     H112656   8.907   7.521   5.373
 4138WAT     H212657   8.804   7.395   5.357
 4139WAT      O12658   1.991   6.215   7.401
 4139WAT     H112659   1.984   6.124   7.442
 4139WAT     H212660   2.077   6.258   7.427
 4140WAT      O12661   5.026   6.968   1.832
 4140WAT     H112662   4.941   6.917   1.814
 4140WAT     H212663   5.032   6.989   1.929
 4141WAT      O12664   7.164   6.347   2.037
 4141WAT     H112665   7.135   6.287   1.963
 4141WAT     H212666   7.262   6.333   2.054
 4142WAT      O12667   6.736   0.644   5.249
 4142WAT     H112668   6.692   0.716   5.304
 4142WAT     H212669   6.835   0.655   5.255
 4143WAT      O12670   8.527   7.096   5.544
 4143WAT     H112671   8.448   7.119   5.601
 4143WAT     H212672   8.564   7.008   5.573
 4144WAT      O12673   8.441   2.996   7.497
 4144WAT     H112674   8.537   2.968   7.497
 4144WAT     H212675   8.412   3.016   7.403
 4145WAT      O12676   2.334   2.652   8.084
 4145WAT     H112677   2.317   2.643   8.182
 4145WAT     H212678   2.308   2.744   8.054
 4146WAT      O12679   3.794   8.867   5.865
 4146WAT     H112680   3.715   8.924   5.843
 4146WAT     H212681   3.803   8.794   5.798
 4147WAT      O12682   3.242   4.317   9.562
 4147WAT     H112683   3.340   4.331   9.575
 4147WAT     H212684   3.194   4.338   9.648
 4148WAT      O12685   5.648   5.884   1.943
 4148WAT     H112686   5.586   5.949   1.987
 4148WAT     H212687   5.732   5.931   1.916
 4149WAT      O12688   0.904   5.002   6.211
 4149WAT     H112689   0.832   4.933   6.220
 4149WAT     H212690   0.878   5.085   6.259
 4150WAT      O12691   2.183   7.777   5.080
 4150WAT     H112692   2.127   7.705   5.120
 4150WAT     H212693   2.158   7.789   4.983
 4151WAT      O12694   2.749   1.114   2.805
 4151WAT     H112695   2.761   1.097   2.707
 4151WAT     H212696   2.652   1.130   2.825
 4152WAT      O12697   7.137   8.119   0.690
 4152WAT     H112698   7.067   8.143   0.757
 4152WAT     H212699   7.099   8.053   0.625
 4153WAT      O12700   3.926   5.106   8.420
 4153WAT     H112701   3.857   5.136   8.485
 4153WAT     H212702   3.941   5.007   8.429
 4154WAT      O12703   6.958   5.957   2.340
 4154WAT     H112704   6.980   5.937   2.244
 4154WAT     H212705   6.909   6.044   2.345
 4155WAT      O12706   7.106   7.327   8.500
 4155WAT     H112707   7.056   7.404   8.459
 4155WAT     H212708   7.047   7.281   8.566
 4156WAT      O12709   1.789   6.312   2.409
 4156WAT     H112710   1.758   6.268   2.494
 4156WAT     H212711   1.840   6.395   2.431
 4157WAT      O12712   7.608   4.135   1.278
 4157WAT     H112713   7.629   4.068   1.206
 4157WAT     H212714   7.612   4.227   1.240
 4158WAT      O12715   9.650   4.298   8.450
 4158WAT     H112716   9.621   4.379   8.399
 4158WAT     H212717   9.647   4.219   8.390
 4159WAT      O12718   1.917   0.795   6.287
 4159WAT     H112719   1.978   0.874   6.297
 4159WAT     H212720   1.953   0.735   6.215
 4160WAT      O12721   7.164   5.870   6.021
 4160WAT     H112722   7.260   5.841   6.018
 4160WAT     H212723   7.105   5.789   6.019
 4161WAT      O12724   9.039   7.334   6.927
 4161WAT     H112725   8.953   7.378   6.899
 4161WAT     H212726   9.116   7.388   6.892
 4162WAT      O12727   3.889   6.145   5.271
 4162WAT     H112728   3.963   6.080   5.288
 4162WAT     H212729   3.927   6.232   5.240
 4163WAT      O12730   5.151   0.157   3.557
 4163WAT     H112731   5.118   0.217   3.485
 4163WAT     H212732   5.088   0.161   3.635
 4164WAT      O12733   9.055   0.933   8.242
 4164WAT     H112734   9.131   0.965   8.298
 4164WAT     H212735   9.004   0.862   8.293
 4165WAT      O12736   7.461   9.522   9.234
 4165WAT     H112737   7.378   9.525   9.289
 4165WAT     H212738   7.541   9.520   9.294
 4166WAT      O12739   6.377   6.372   8.263
 4166WAT     H112740   6.314   6.359   8.187
 4166WAT     H212741   6.325   6.395   8.345
 4167WAT      O12742   1.499   3.868   6.515
 4167WAT     H112743   1.558   3.788   6.505
 4167WAT     H212744   1.403   3.839   6.523
 4168WAT      O12745   5.155   1.858   7.533
 4168WAT     H112746   5.237   1.832   7.483
 4168WAT     H212747   5.143   1.957   7.528
 4169WAT      O12748   8.389   3.905   4.334
 4169WAT     H112749   8.482   3.900   4.297
 4169WAT     H212750   8.390   3.959   4.418
 4170WAT      O12751   5.854   2.838   4.198
 4170WAT     H112752   5.881   2.899   4.124
 4170WAT     H212753   5.759   2.855   4.223
 4171WAT      O12754   8.997   6.367   7.094
 4171WAT     H112755   9.027   6.301   7.163
 4171WAT     H212756   8.897   6.362   7.084
 4172WAT      O12757   4.237   2.994   6.229
 4172WAT     H112758   4.271   2.900   6.229
 4172WAT     H212759   4.214   3.020   6.323
 4173WAT      O12760   3.036   5.840   4.127
 4173WAT     H112761   2.988   5.765   4.174
 4173WAT     H212762   2.982   5.871   4.049
 4174WAT      O12763   6.806   4.983   0.503
 4174WAT     H112764   6.844   4.927   0.577
 4174WAT     H212765   6.793   4.926   0.422
 4175WAT      O12766   6.064   8.796   9.777
 4175WAT     H112767   6.065   8.700   9.748
 4175WAT     H212768   6.157   8.833   9.773
 4176WAT      O12769   1.861   3.368   5.581
 4176WAT     H112770   1.818   3.349   5.492
 4176WAT     H212771   1.860   3.286   5.637
 4177WAT      O12772   2.191   2.491   1.018
 4177WAT     H112773   2.097   2.524   1.011
 4177WAT     H212774   2.208   2.423   0.947
 4178WAT      O12775   3.378   5.436   3.492
 4178WAT     H112776   3.429   5.461   3.409
 4178WAT     H212777   3.442   5.420   3.567
 4179WAT      O12778   7.402   1.963   8.567
 4179WAT     H112779   7.311   1.928   8.586
 4179WAT     H212780   7.395   2.044   8.509
 4180WAT      O12781   1.592   7.710   3.725
 4180WAT     H112782   1.574   7.731   3.628
 4180WAT     H212783   1.547   7.779   3.782
 4181WAT      O12784   9.764   2.997   0.081
 4181WAT     H112785   9.741   3.088   0.045
 4181WAT     H212786   9.855   2.971   0.051
 4182WAT      O12787   3.432   3.393   4.751
 4182WAT     H112788   3.380   3.308   4.739
 4182WAT     H212789   3.474   3.393   4.841
 4183WAT      O12790   5.161   9.724   3.542
 4183WAT     H112791   5.144   9.823   3.540
 4183WAT     H212792   5.252   9.707   3.580
 4184WAT      O12793   0.331   3.354   7.665
 4184WAT     H112794   0.357   3.278   7.606
 4184WAT     H212795   0.320   3.437   7.610
 4185WAT      O12796   8.935   9.680   4.020
 4185WAT     H112797   9.028   9.718   4.024
 4185WAT     H212798   8.869   9.754   4.031
 4186WAT      O12799   9.854   7.192   2.133
 4186WAT     H112800   9.863   7.233   2.224
 4186WAT     H212801   9.845   7.263   2.064
 4187WAT      O12802   4.834   1.507   2.408
 4187WAT     H112803   4.931   1.508   2.430
 4187WAT     H212804   4.785   1.450   2.474
 4188WAT      O12805   6.132   1.719   9.082
 4188WAT     H112806   6.079   1.662   9.144
 4188WAT     H212807   6.190   1.661   9.024
 4189WAT      O12808   4.319   6.443   6.017
 4189WAT     H112809   4.394   6.505   5.994
 4189WAT     H212810   4.265   6.484   6.091
 4190WAT      O12811   2.960   1.194   9.290
 4190WAT     H112812   3.029   1.137   9.246
 4190WAT     H212813   2.971   1.187   9.390
 4191WAT      O12814   5.635   8.694   4.668
 4191WAT     H112815   5.652   8.728   4.760
 4191WAT     H212816   5.721   8.663   4.627
 4192WAT      O12817   9.801   2.502   3.170
 4192WAT     H112818   9.788   2.537   3.077
 4192WAT     H212819   9.848   2.414   3.166
 4193WAT      O12820   7.664   9.594   9.418
 4193WAT     H112821   7.758   9.590   9.387
 4193WAT     H212822   7.653   9.536   9.499
 4194WAT      O12823   6.961   1.586   7.603
 4194WAT     H112824   6.959   1.587   7.503
 4194WAT     H212825   6.893   1.522   7.637
 4195WAT      O12826   0.836   9.533   9.169
 4195WAT     H112827   0.742   9.538   9.135
 4195WAT     H212828   0.862   9.437   9.178
 4196WAT      O12829   4.818   5.584   7.374
 4196WAT     H112830   4.853   5.672   7.341
 4196WAT     H212831   4.895   5.528   7.406
 4197WAT      O12832   0.020   6.442   6.428
 4197WAT     H112833   0.052   6.407   6.516
 4197WAT     H212834   0.035   6.373   6.358
 4198WAT      O12835   5.293   7.070   9.482
 4198WAT     H112836   5.202   7.107   9.502
 4198WAT     H212837   5.285   6.997   9.415
 4199WAT      O12838   2.923   3.531   8.004
 4199WAT     H112839   2.832   3.536   8.045
 4199WAT     H212840   2.916   3.535   7.904
 4200WAT      O12841   3.446   7.206   3.030
 4200WAT     H112842   3.415   7.285   2.978
 4200WAT     H212843   3.545   7.197   3.022
 4201WAT      O12844   6.892   6.826   1.735
 4201WAT     H112845   6.883   6.794   1.829
 4201WAT     H212846   6.951   6.906   1.733
 4202WAT      O12847   4.540   8.402   5.390
 4202WAT     H112848   4.517   8.398   5.487
 4202WAT     H212849   4.606   8.330   5.368
 4203WAT      O12850   8.690   4.405   0.335
 4203WAT     H112851   8.785   4.431   0.348
 4203WAT     H212852   8.685   4.310   0.306
 4204WAT      O12853   6.303   9.363   1.416
 4204WAT     H112854   6.381   9.301   1.414
 4204WAT     H212855   6.231   9.326   1.474
 4205WAT      O12856   0.372   3.267   0.876
 4205WAT     H112857   0.441   3.259   0.804
 4205WAT     H212858   0.352   3.363   0.893
 4206WAT      O12859   6.606   1.760   6.620
 4206WAT     H112860   6.511   1.739   6.642
 4206WAT     H212861   6.643   1.824   6.687
 4207WAT      O12862   6.262   4.213   4.164
 4207WAT     H112863   6.252   4.114   4.168
 4207WAT     H212864   6.336   4.241   4.226
 4208WAT      O12865   8.196   8.745   3.291
 4208WAT     H112866   8.124   8.813   3.306
 4208WAT     H212867   8.212   8.733   3.193
 4209WAT      O12868   6.897   1.984   4.878
 4209WAT     H112869   6.812   2.037   4.882
 4209WAT     H212870   6.957   2.024   4.809
 4210WAT      O12871   9.141   0.675   2.815
 4210WAT     H112872   9.209   0.606   2.838
 4210WAT     H212873   9.073   0.682   2.888
 4211WAT      O12874   3.509   2.199   4.804
 4211WAT     H112875   3.462   2.183   4.717
 4211WAT     H212876   3.539   2.111   4.842
 4212WAT      O12877   0.404   5.521   4.167
 4212WAT     H112878   0.312   5.498   4.136
 4212WAT     H212879   0.399   5.573   4.252
 4213WAT      O12880   6.879   6.776   0.414
 4213WAT     H112881   6.815   6.832   0.467
 4213WAT     H212882   6.942   6.836   0.365
 4214WAT      O12883   1.580   3.952   5.730
 4214WAT     H112884   1.644   3.941   5.654
 4214WAT     H212885   1.628   3.992   5.808
 4215WAT      O12886   6.392   3.938   6.465
 4215WAT     H112887   6.374   3.842   6.446
 4215WAT     H212888   6.424   3.983   6.382
 4216WAT      O12889   7.371   3.270   2.521
 4216WAT     H112890   7.349   3.189   2.467
 4216WAT     H212891   7.332   3.351   2.477
 4217WAT      O12892   7.663   9.333   4.205
 4217WAT     H112893   7.642   9.393   4.127
 4217WAT     H212894   7.726   9.380   4.267
 4218WAT      O12895   7.381   1.541   0.917
 4218WAT     H112896   7.337   1.457   0.885
 4218WAT     H212897   7.444   1.575   0.847
 4219WAT      O12898   9.160   6.778   3.520
 4219WAT     H112899   9.071   6.817   3.545
 4219WAT     H212900   9.150   6.680   3.503
 4220WAT      O12901   2.293   6.693   8.302
 4220WAT     H112902   2.384   6.730   8.284
 4220WAT     H212903   2.228   6.728   8.235
 4221WAT      O12904   7.545   3.705   8.268
 4221WAT     H112905   7.495   3.619   8.256
 4221WAT     H212906   7.525   3.767   8.192
 4222WAT      O12907   1.947   1.344   5.758
 4222WAT     H112908   1.983   1.346   5.665
 4222WAT     H212909   1.889   1.264   5.770
 4223WAT      O12910   7.131   7.326   0.076
 4223WAT     H112911   7.046   7.372   0.102
 4223WAT     H212912   7.198   7.336   0.149
 4224WAT      O12913   7.269   3.395   0.516
 4224WAT     H112914   7.230   3.303   0.517
 4224WAT     H212915   7.296   3.421   0.609
 4225WAT      O12916   6.875   5.826   8.229
 4225WAT     H112917   6.817   5.859   8.154
 4225WAT     H212918   6.818   5.779   8.297
 4226WAT      O12919   4.423   2.208   4.351
 4226WAT     H112920   4.505   2.258   4.322
 4226WAT     H212921   4.362   2.269   4.401
 4227WAT      O12922   8.361   2.422   1.616
 4227WAT     H112923   8.365   2.521   1.598
 4227WAT     H212924   8.331   2.374   1.533
 4228WAT      O12925   7.170   7.129   4.962
 4228WAT     H112926   7.086   7.182   4.968
 4228WAT     H212927   7.211   7.141   4.871
 4229WAT      O12928   7.634   1.831   2.048
 4229WAT     H112929   7.718   1.858   2.002
 4229WAT     H212930   7.617   1.893   2.125
 4230WAT      O12931   9.551   8.179   6.016
 4230WAT     H112932   9.475   8.236   6.048
 4230WAT     H212933   9.570   8.108   6.084
 4231WAT      O12934   5.837   4.563   2.393
 4231WAT     H112935   5.870   4.596   2.481
 4231WAT     H212936   5.737   4.562   2.392
 4232WAT      O12937   7.189   2.630   6.611
 4232WAT     H112938   7.208   2.634   6.709
 4232WAT     H212939   7.241   2.701   6.564
 4233WAT      O12940   2.196   1.274   8.275
 4233WAT     H112941   2.294   1.294   8.273
 4233WAT     H212942   2.146   1.353   8.310
 4234WAT      O12943   2.659   9.691   7.664
 4234WAT     H112944   2.709   9.655   7.743
 4234WAT     H212945   2.566   9.716   7.691
 4235WAT      O12946   1.594   4.155   2.251
 4235WAT     H112947   1.672   4.209   2.285
 4235WAT     H212948   1.612   4.128   2.156
 4236WAT      O12949   9.809   7.043   3.248
 4236WAT     H112950   9.759   6.988   3.181
 4236WAT     H212951   9.745   7.102   3.298
 4237WAT      O12952   1.988   0.254   2.912
 4237WAT     H112953   1.912   0.296   2.961
 4237WAT     H212954   2.074   0.274   2.961
 4238WAT      O12955   1.250   4.304   6.286
 4238WAT     H112956   1.304   4.278   6.366
 4238WAT     H212957   1.163   4.255   6.287
 4239WAT      O12958   7.609   6.223   8.417
 4239WAT     H112959   7.696   6.187   8.452
 4239WAT     H212960   7.548   6.243   8.493
 4240WAT      O12961   0.320   3.986   5.448
 4240WAT     H112962   0.268   3.902   5.463
 4240WAT     H212963   0.258   4.061   5.424
 4241WAT      O12964   1.814   5.891   1.620
 4241WAT     H112965   1.791   5.843   1.535
 4241WAT     H212966   1.913   5.892   1.631
 4242WAT      O12967   0.154   9.698   6.533
 4242WAT     H112968   0.246   9.708   6.572
 4242WAT     H212969   0.092   9.762   6.579
 4243WAT      O12970   7.444   3.980   4.953
 4243WAT     H112971   7.411   3.894   4.913
 4243WAT     H212972   7.408   4.057   4.900
 4244WAT      O12973   6.483   3.100   1.575
 4244WAT     H112974   6.457   3.004   1.585
 4244WAT     H212975   6.510   3.137   1.663
 4245WAT      O12976   0.706   3.195   2.731
 4245WAT     H112977   0.694   3.157   2.640
 4245WAT     H212978   0.752   3.284   2.724
 4246WAT      O12979   1.953   9.834   2.855
 4246WAT     H112980   2.047   9.823   2.889
 4246WAT     H212981   1.928   9.931   2.861
 4247WAT      O12982   7.371   8.951   4.488
 4247WAT     H112983   7.310   8.973   4.565
 4247WAT     H212984   7.402   9.035   4.445
 4248WAT      O12985   6.558   5.745   8.122
 4248WAT     H112986   6.469   5.789   8.135
 4248WAT     H212987   6.621   5.809   8.077
 4249WAT      O12988   2.936   7.952   1.221
 4249WAT     H112989   2.952   7.965   1.319
 4249WAT     H212990   2.952   8.038   1.173
 4250WAT      O12991   5.117   9.541   7.975
 4250WAT     H112992   5.114   9.636   8.007
 4250WAT     H212993   5.024   9.504   7.974
 4251WAT      O12994   3.245   1.524   4.068
 4251WAT     H112995   3.168   1.587   4.056
 4251WAT     H212996   3.248   1.460   3.992
 4252WAT      O12997   8.294   3.143   3.495
 4252WAT     H112998   8.202   3.183   3.503
 4252WAT     H212999   8.319   3.100   3.582
 4253WAT      O13000   9.473   2.529   3.384
 4253WAT     H113001   9.555   2.583   3.399
 4253WAT     H213002   9.394   2.590   3.375
 4254WAT      O13003   4.538   2.335   5.674
 4254WAT     H113004   4.606   2.266   5.698
 4254WAT     H213005   4.539   2.408   5.742
 4255WAT      O13006   1.121   5.329   4.901
 4255WAT     H113007   1.099   5.247   4.849
 4255WAT     H213008   1.193   5.380   4.854
 4256WAT      O13009   6.769   4.889   0.969
 4256WAT     H113010   6.739   4.954   0.899
 4256WAT     H213011   6.694   4.826   0.990
 4257WAT      O13012   8.745   2.428   4.307
 4257WAT     H113013   8.744   2.433   4.207
 4257WAT     H213014   8.696   2.507   4.345
 4258WAT      O13015   7.434   8.998   7.623
 4258WAT     H113016   7.389   8.933   7.685
 4258WAT     H213017   7.417   8.971   7.528
 4259WAT      O13018   8.127   7.585   9.055
 4259WAT     H113019   8.116   7.685   9.052
 4259WAT     H213020   8.037   7.542   9.053
 4260WAT      O13021   6.398   7.275   8.614
 4260WAT     H113022   6.381   7.266   8.712
 4260WAT     H213023   6.488   7.316   8.599
 4261WAT      O13024   2.098   0.347   2.446
 4261WAT     H113025   2.044   0.412   2.393
 4261WAT     H213026   2.045   0.318   2.526
 4262WAT      O13027   3.038   4.718   7.489
 4262WAT     H113028   3.039   4.798   7.549
 4262WAT     H213029   3.056   4.636   7.543
 4263WAT      O13030   3.853   2.715   8.480
 4263WAT     H113031   3.818   2.800   8.521
 4263WAT     H213032   3.777   2.655   8.457
 4264WAT      O13033   2.900   2.864   5.107
 4264WAT     H113034   2.946   2.840   5.192
 4264WAT     H213035   2.946   2.820   5.030
 4265WAT      O13036   8.283   7.865   4.449
 4265WAT     H113037   8.364   7.917   4.422
 4265WAT     H213038   8.204   7.926   4.455
 4266WAT      O13039   8.713   0.019   0.888
 4266WAT     H113040   8.799   0.012   0.937
 4266WAT     H213041   8.670  -0.071   0.881
 4267WAT      O13042   2.617   9.180   2.053
 4267WAT     H113043   2.618   9.082   2.069
 4267WAT     H213044   2.534   9.219   2.092
 4268WAT      O13045   8.465   6.042   8.026
 4268WAT     H113046   8.406   5.971   7.987
 4268WAT     H213047   8.424   6.131   8.012
 4269WAT      O13048   3.461   2.278   3.248
 4269WAT     H113049   3.415   2.237   3.169
 4269WAT     H213050   3.474   2.376   3.232
 4270WAT      O13051   9.130   0.582   8.728
 4270WAT     H113052   9.092   0.562   8.819
 4270WAT     H213053   9.067   0.549   8.658
 4271WAT      O13054   7.483   5.172   9.376
 4271WAT     H113055   7.564   5.229   9.388
 4271WAT     H213056   7.402   5.230   9.370
 4272WAT      O13057   4.198   7.914   7.726
 4272WAT     H113058   4.201   7.938   7.628
 4272WAT     H213059   4.284   7.870   7.752
 4273WAT      O13060   8.106   8.638   1.236
 4273WAT     H113061   8.154   8.726   1.238
 4273WAT     H213062   8.064   8.620   1.325
 4274WAT      O13063   8.460   6.874   3.071
 4274WAT     H113064   8.453   6.965   3.113
 4274WAT     H213065   8.489   6.808   3.140
 4275WAT      O13066   9.070   9.813   6.829
 4275WAT     H113067   9.118   9.781   6.911
 4275WAT     H213068   9.136   9.854   6.766
 4276WAT      O13069   4.431   1.069   3.304
 4276WAT     H113070   4.519   1.025   3.316
 4276WAT     H213071   4.417   1.138   3.376
 4277WAT      O13072   1.695   5.769   8.513
 4277WAT     H113073   1.660   5.862   8.511
 4277WAT     H213074   1.729   5.744   8.422
 4278WAT      O13075   2.098   6.412   1.136
 4278WAT     H113076   2.198   6.422   1.137
 4278WAT     H213077   2.068   6.391   1.043
 4279WAT      O13078   4.574   8.130   3.445
 4279WAT     H113079   4.570   8.227   3.469
 4279WAT     H213080   4.619   8.080   3.519
 4280WAT      O13081   3.424   2.485   9.082
 4280WAT     H113082   3.358   2.488   9.006
 4280WAT     H213083   3.452   2.578   9.105
 4281WAT      O13084   9.409   1.139   0.897
 4281WAT     H113085   9.451   1.106   0.812
 4281WAT     H213086   9.477   1.138   0.970
 4282WAT      O13087   3.555   5.297   8.225
 4282WAT     H113088   3.511   5.313   8.137
 4282WAT     H213089   3.562   5.383   8.275
 4283WAT      O13090   4.446   1.143   2.905
 4283WAT     H113091   4.484   1.062   2.860
 4283WAT     H213092   4.520   1.206   2.929
 4284WAT      O13093   7.714   5.867   3.217
 4284WAT     H113094   7.696   5.961   3.246
 4284WAT     H213095   7.657   5.804   3.270
 4285WAT      O13096   6.006   7.438   1.352
 4285WAT     H113097   6.041   7.353   1.391
 4285WAT     H213098   5.907   7.443   1.365
 4286WAT      O13099   7.059   5.329   5.287
 4286WAT     H113100   7.043   5.261   5.215
 4286WAT     H213101   7.156   5.331   5.310
 4287WAT      O13102   3.212   3.048   3.011
 4287WAT     H113103   3.306   3.050   2.976
 4287WAT     H213104   3.182   2.953   3.018
 4288WAT      O13105   8.057   1.926   6.661
 4288WAT     H113106   8.122   1.879   6.601
 4288WAT     H213107   8.090   1.921   6.756
 4289WAT      O13108   9.075   7.684   4.899
 4289WAT     H113109   8.975   7.695   4.903
 4289WAT     H213110   9.099   7.588   4.913
 4290WAT      O13111   8.557   2.267   9.405
 4290WAT     H113112   8.589   2.358   9.379
 4290WAT     H213113   8.582   2.201   9.333
 4291WAT      O13114   9.424   3.594   0.093
 4291WAT     H113115   9.370   3.511   0.092
 4291WAT     H213116   9.495   3.589   0.022
 4292WAT      O13117   8.646   0.286   6.102
 4292WAT     H113118   8.742   0.261   6.094
 4292WAT     H213119   8.622   0.292   6.199
 4293WAT      O13120   3.035   0.119   2.986
 4293WAT     H113121   3.114   0.175   3.009
 4293WAT     H213122   2.961   0.137   3.050
 4294WAT      O13123   8.911   6.813   6.124
 4294WAT     H113124   8.932   6.774   6.035
 4294WAT     H213125   8.813   6.805   6.142
 4295WAT      O13126   7.171   8.345   3.565
 4295WAT     H113127   7.096   8.394   3.520
 4295WAT     H213128   7.238   8.411   3.599
 4296WAT      O13129   1.869   8.195   7.233
 4296WAT     H113130   1.941   8.201   7.164
 4296WAT     H213131   1.800   8.266   7.216
 4297WAT      O13132   3.661   3.240   4.544
 4297WAT     H113133   3.675   3.294   4.461
 4297WAT     H213134   3.702   3.287   4.622
 4298WAT      O13135   5.664   2.619   7.504
 4298WAT     H113136   5.712   2.544   7.458
 4298WAT     H213137   5.731   2.680   7.547
 4299WAT      O13138   6.221   4.696   9.748
 4299WAT     H113139   6.236   4.794   9.764
 4299WAT     H213140   6.290   4.643   9.796
 4300WAT      O13141   1.168   6.408   9.477
 4300WAT     H113142   1.098   6.480   9.481
 4300WAT     H213143   1.150   6.339   9.547
 4301WAT      O13144   7.668   3.128   9.266
 4301WAT     H113145   7.727   3.065   9.216
 4301WAT     H213146   7.711   3.218   9.270
 4302WAT      O13147   4.589   2.314   5.191
 4302WAT     H113148   4.543   2.340   5.106
 4302WAT     H213149   4.544   2.359   5.268
 4303WAT      O13150   7.859   5.052   7.331
 4303WAT     H113151   7.858   5.104   7.416
 4303WAT     H213152   7.773   5.067   7.282
 4304WAT      O13153   8.931   7.978   8.121
 4304WAT     H113154   8.856   8.044   8.122
 4304WAT     H213155   8.922   7.917   8.200
 4305WAT      O13156   8.286   3.717   3.446
 4305WAT     H113157   8.305   3.801   3.497
 4305WAT     H213158   8.301   3.638   3.505
 4306WAT      O13159   1.386   3.562   6.318
 4306WAT     H113160   1.463   3.604   6.367
 4306WAT     H213161   1.413   3.544   6.223
 4307WAT      O13162   1.180   7.622   2.677
 4307WAT     H113163   1.253   7.573   2.629
 4307WAT     H213164   1.096   7.568   2.674
 4308WAT      O13165   7.163   2.168   9.249
 4308WAT     H113166   7.163   2.106   9.328
 4308WAT     H213167   7.078   2.222   9.248
 4309WAT      O13168   6.786   8.229   8.522
 4309WAT     H113169   6.688   8.247   8.523
 4309WAT     H213170   6.803   8.135   8.550
 4310WAT      O13171   2.199   5.245   6.837
 4310WAT     H113172   2.219   5.148   6.856
 4310WAT     H213173   2.276   5.301   6.865
 4311WAT      O13174   7.829   7.881   2.449
 4311WAT     H113175   7.873   7.849   2.533
 4311WAT     H213176   7.757   7.817   2.422
 4312WAT      O13177   2.227   2.972   4.333
 4312WAT     H113178   2.291   2.973   4.257
 4312WAT     H213179   2.245   2.892   4.391
 4313WAT      O13180   7.521   1.929   7.606
 4313WAT     H113181   7.535   1.967   7.698
 4313WAT     H213182   7.543   1.831   7.607
 4314WAT      O13183   0.832   2.066   1.516
 4314WAT     H113184   0.916   2.057   1.463
 4314WAT     H213185   0.847   2.034   1.609
 4315WAT      O13186   8.526   1.388   1.640
 4315WAT     H113187   8.550   1.301   1.684
 4315WAT     H213188   8.509   1.457   1.709
 4316WAT      O13189   0.721   7.301   3.153
 4316WAT     H113190   0.685   7.250   3.231
 4316WAT     H213191   0.821   7.296   3.154
 4317WAT      O13192   6.085   1.188   7.467
 4317WAT     H113193   6.060   1.091   7.468
 4317WAT     H213194   6.152   1.204   7.395
 4318WAT      O13195   1.952   9.586   3.856
 4318WAT     H113196   2.004   9.513   3.900
 4318WAT     H213197   1.956   9.668   3.913
 4319WAT      O13198   2.309   9.819   9.309
 4319WAT     H113199   2.274   9.892   9.367
 4319WAT     H213200   2.236   9.752   9.293
 4320WAT      O13201   0.554   0.291   4.473
 4320WAT     H113202   0.543   0.317   4.569
 4320WAT     H213203   0.483   0.226   4.447
 4321WAT      O13204   4.064   6.339   5.207
 4321WAT     H113205   4.155   6.305   5.233
 4321WAT     H213206   4.072   6.394   5.124
 4322WAT      O13207   3.344   7.074   8.200
 4322WAT     H113208   3.432   7.082   8.152
 4322WAT     H213209   3.309   7.165   8.220
 4323WAT      O13210   1.179   0.207   7.111
 4323WAT     H113211   1.184   0.292   7.057
 4323WAT     H213212   1.104   0.213   7.177
 4324WAT      O13213   2.604   9.382   3.529
 4324WAT     H113214   2.565   9.290   3.521
 4324WAT     H213215   2.698   9.381   3.495
 4325WAT      O13216   4.278   7.225   1.221
 4325WAT     H113217   4.234   7.295   1.164
 4325WAT     H213218   4.364   7.198   1.179
 4326WAT      O13219   8.696   3.156   6.920
 4326WAT     H113220   8.611   3.137   6.871
 4326WAT     H213221   8.718   3.080   6.981
 4327WAT      O13222   5.997   9.829   6.766
 4327WAT     H113223   6.037   9.802   6.678
 4327WAT     H213224   5.965   9.923   6.760
 4328WAT      O13225   7.674   0.434   8.541
 4328WAT     H113226   7.737   0.373   8.589
 4328WAT     H213227   7.581   0.418   8.573
 4329WAT      O13228   0.837   6.388   6.805
 4329WAT     H113229   0.925   6.428   6.832
 4329WAT     H213230   0.852   6.298   6.764
 4330WAT      O13231   7.032   0.035   4.691
 4330WAT     H113232   7.022   0.132   4.668
 4330WAT     H213233   6.998  -0.020   4.615
 4331WAT      O13234   0.428   9.263   4.549
 4331WAT     H113235   0.431   9.352   4.595
 4331WAT     H213236   0.380   9.272   4.462
 4332WAT      O13237   9.316   4.733   8.127
 4332WAT     H113238   9.274   4.799   8.190
 4332WAT     H213239   9.249   4.661   8.106
 4333WAT      O13240   9.870   1.060   5.713
 4333WAT     H113241   9.794   1.091   5.771
 4333WAT     H213242   9.852   0.967   5.683
 4334WAT      O13243   4.990   4.531   7.825
 4334WAT     H113244   4.995   4.567   7.732
 4334WAT     H213245   5.035   4.595   7.887
 4335WAT      O13246   6.034   7.601   9.257
 4335WAT     H113247   6.103   7.606   9.330
 4335WAT     H213248   5.972   7.679   9.265
 4336WAT      O13249   2.426   4.323   3.713
 4336WAT     H113250   2.510   4.298   3.762
 4336WAT     H213251   2.412   4.259   3.637
 4337WAT      O13252   5.595   8.655   6.346
 4337WAT     H113253   5.692   8.665   6.368
 4337WAT     H213254   5.569   8.724   6.278
 4338WAT      O13255   3.150   0.072   9.155
 4338WAT     H113256   3.162   0.074   9.254
 4338WAT     H213257   3.125   0.163   9.122
 4339WAT      O13258   2.653   9.717   7.236
 4339WAT     H113259   2.702   9.735   7.321
 4339WAT     H213260   2.700   9.760   7.160
 4340WAT      O13261   4.751   3.116   4.219
 4340WAT     H113262   4.814   3.104   4.296
 4340WAT     H213263   4.803   3.132   4.135
 4341WAT      O13264   8.898   7.552   1.459
 4341WAT     H113265   8.909   7.584   1.553
 4341WAT     H213266   8.881   7.631   1.399
 4342WAT      O13267   5.466   8.665   6.605
 4342WAT     H113268   5.443   8.583   6.656
 4342WAT     H213269   5.509   8.640   6.518
 4343WAT      O13270   3.360   6.079   9.469
 4343WAT     H113271   3.288   6.020   9.506
 4343WAT     H213272   3.432   6.022   9.430
 4344WAT      O13273   8.243   1.822   7.480
 4344WAT     H113274   8.283   1.812   7.389
 4344WAT     H213275   8.181   1.746   7.499
 4345WAT      O13276   3.113   3.935   0.019
 4345WAT     H113277   3.143   4.030   0.023
 4345WAT     H213278   3.013   3.932   0.013
 4346WAT      O13279   7.679   4.484   0.658
 4346WAT     H113280   7.678   4.428   0.575
 4346WAT     H213281   7.744   4.559   0.646
 4347WAT      O13282   6.201   7.802   0.564
 4347WAT     H113283   6.252   7.861   0.502
 4347WAT     H213284   6.202   7.708   0.529
 4348WAT      O13285   5.732   5.576   2.787
 4348WAT     H113286   5.780   5.516   2.851
 4348WAT     H213287   5.799   5.627   2.733
 4349WAT      O13288   6.358   1.329   3.833
 4349WAT     H113289   6.330   1.358   3.741
 4349WAT     H213290   6.277   1.312   3.889
 4350WAT      O13291   6.565   8.622   8.798
 4350WAT     H113292   6.542   8.663   8.887
 4350WAT     H213293   6.659   8.644   8.775
 4351WAT      O13294   8.880   2.236   3.786
 4351WAT     H113295   8.909   2.175   3.712
 4351WAT     H213296   8.960   2.265   3.839
 4352WAT      O13297   4.860   8.544   9.612
 4352WAT     H113298   4.792   8.515   9.546
 4352WAT     H213299   4.815   8.566   9.699
 4353WAT      O13300   8.115   8.897   7.902
 4353WAT     H113301   8.185   8.909   7.831
 4353WAT     H213302   8.159   8.881   7.990
 4354WAT      O13303   0.869   4.324   1.385
 4354WAT     H113304   0.889   4.241   1.333
 4354WAT     H213305   0.926   4.327   1.467
 4355WAT      O13306   5.970   7.299   4.414
 4355WAT     H113307   5.914   7.373   4.375
 4355WAT     H213308   5.973   7.223   4.349
 4356WAT      O13309   7.798   1.437   1.238
 4356WAT     H113310   7.735   1.472   1.169
 4356WAT     H213311   7.892   1.444   1.203
 4357WAT      O13312   0.439   1.476   2.867
 4357WAT     H113313   0.504   1.515   2.933
 4357WAT     H213314   0.489   1.439   2.789
 4358WAT      O13315   2.502   7.522   7.344
 4358WAT     H113316   2.438   7.512   7.421
 4358WAT     H213317   2.525   7.432   7.308
 4359WAT      O13318   1.143   7.138   0.388
 4359WAT     H113319   1.203   7.215   0.408
 4359WAT     H213320   1.054   7.172   0.357
 4360WAT      O13321   0.667   2.616   7.465
 4360WAT     H113322   0.715   2.687   7.517
 4360WAT     H213323   0.574   2.647   7.446
 4361WAT      O13324   1.105   4.409   3.912
 4361WAT     H113325   1.097   4.422   3.813
 4361WAT     H213326   1.183   4.350   3.931
 4362WAT      O13327   6.449   8.982   1.697
 4362WAT     H113328   6.522   8.916   1.680
 4362WAT     H213329   6.439   8.997   1.795
 4363WAT      O13330   7.837   8.900   1.469
 4363WAT     H113331   7.834   8.803   1.493
 4363WAT     H213332   7.931   8.926   1.447
 4364WAT      O13333   3.749   0.493   1.994
 4364WAT     H113334   3.806   0.559   2.043
 4364WAT     H213335   3.656   0.497   2.031
 4365WAT      O13336   7.823   8.623   2.669
 4365WAT     H113337   7.781   8.696   2.614
 4365WAT     H213338   7.761   8.597   2.743
 4366WAT      O13339   1.966   0.752   6.662
 4366WAT     H113340   1.949   0.720   6.755
 4366WAT     H213341   1.990   0.674   6.604
 4367WAT      O13342   6.684   4.728   5.175
 4367WAT     H113343   6.718   4.734   5.269
 4367WAT     H213344   6.590   4.694   5.175
 4368WAT      O13345   9.439   7.012   6.419
 4368WAT     H113346   9.490   7.095   6.440
 4368WAT     H213347   9.361   7.004   6.481
 4369WAT      O13348   2.741   0.427   1.921
 4369WAT     H113349   2.698   0.457   1.836
 4369WAT     H213350   2.693   0.468   1.999
 4370WAT      O13351   3.908   0.655   5.243
 4370WAT     H113352   3.984   0.705   5.286
 4370WAT     H213353   3.926   0.557   5.246
 4371WAT      O13354   4.703   4.604   2.734
 4371WAT     H113355   4.746   4.693   2.749
 4371WAT     H213356   4.706   4.552   2.819
 4372WAT      O13357   5.763   9.824   4.560
 4372WAT     H113358   5.681   9.766   4.565
 4372WAT     H213359   5.755   9.899   4.626
 4373WAT      O13360   7.482   1.477   6.351
 4373WAT     H113361   7.411   1.527   6.300
 4373WAT     H213362   7.559   1.459   6.290
 4374WAT      O13363   5.169   9.634   9.020
 4374WAT     H113364   5.257   9.591   9.041
 4374WAT     H213365   5.183   9.716   8.966
 4375WAT      O13366   0.592   2.696   7.030
 4375WAT     H113367   0.636   2.731   7.113
 4375WAT     H213368   0.509   2.647   7.055
 4376WAT      O13369   7.549   8.774   3.662
 4376WAT     H113370   7.607   8.794   3.741
 4376WAT     H213371   7.459   8.744   3.693
 4377WAT      O13372   0.238   6.796   6.343
 4377WAT     H113373   0.307   6.860   6.307
 4377WAT     H213374   0.236   6.714   6.285
 4378WAT      O13375   2.398   9.209   8.870
 4378WAT     H113376   2.436   9.176   8.956
 4378WAT     H213377   2.298   9.202   8.872
 4379WAT      O13378   1.736   6.560   2.598
 4379WAT     H113379   1.679   6.638   2.574
 4379WAT     H213380   1.829   6.575   2.565
 4380WAT      O13381   3.501   2.289   0.973
 4380WAT     H113382   3.546   2.373   0.941
 4380WAT     H213383   3.570   2.224   1.004
 4381WAT      O13384   7.001   8.680   4.682
 4381WAT     H113385   6.924   8.737   4.656
 4381WAT     H213386   7.010   8.604   4.618
 4382WAT      O13387   5.016   1.790   7.007
 4382WAT     H113388   4.931   1.789   6.955
 4382WAT     H213389   5.023   1.707   7.062
 4383WAT      O13390   1.009   6.056   5.495
 4383WAT     H113391   1.080   6.097   5.438
 4383WAT     H213392   1.038   5.965   5.525
 4384WAT      O13393   7.724   8.971   9.043
 4384WAT     H113394   7.761   8.936   8.957
 4384WAT     H213395   7.737   9.070   9.047
 4385WAT      O13396   9.661   2.970   3.101
 4385WAT     H113397   9.586   3.006   3.156
 4385WAT     H213398   9.634   2.966   3.005
 4386WAT      O13399   5.797   1.584   4.320
 4386WAT     H113400   5.796   1.495   4.273
 4386WAT     H213401   5.738   1.580   4.400
 4387WAT      O13402   9.855   1.475   8.481
 4387WAT     H113403   9.769   1.454   8.528
 4387WAT     H213404   9.890   1.563   8.513
 4388WAT      O13405   6.848   1.611   1.549
 4388WAT     H113406   6.795   1.631   1.467
 4388WAT     H213407   6.936   1.571   1.524
 4389WAT      O13408   2.964   2.794   0.573
 4389WAT     H113409   3.026   2.715   0.573
 4389WAT     H213410   2.953   2.827   0.480
 4390WAT      O13411   4.244   5.085   1.114
 4390WAT     H113412   4.161   5.034   1.135
 4390WAT     H213413   4.312   5.024   1.074
 4391WAT      O13414   8.605   9.200   8.587
 4391WAT     H113415   8.624   9.294   8.615
 4391WAT     H213416   8.669   9.139   8.632
 4392WAT      O13417   7.608   2.518   9.796
 4392WAT     H113418   7.554   2.484   9.873
 4392WAT     H213419   7.551   2.523   9.714
 4393WAT      O13420   0.332   7.620   5.461
 4393WAT     H113421   0.391   7.675   5.521
 4393WAT     H213422   0.240   7.660   5.459
 4394WAT      O13423   2.527   2.551   2.540
 4394WAT     H113424   2.529   2.467   2.485
 4394WAT     H213425   2.620   2.588   2.547
 4395WAT      O13426   1.636   2.196   8.101
 4395WAT     H113427   1.555   2.143   8.127
 4395WAT     H213428   1.651   2.269   8.168
 4396WAT      O13429   8.543   7.997   0.908
 4396WAT     H113430   8.495   7.983   0.995
 4396WAT     H213431   8.492   7.955   0.834
 4397WAT      O13432   0.857   0.260   3.906
 4397WAT     H113433   0.800   0.340   3.926
 4397WAT     H213434   0.918   0.244   3.983
 4398WAT      O13435   0.576   4.870   8.980
 4398WAT     H113436   0.533   4.801   9.038
 4398WAT     H213437   0.507   4.912   8.922
 4399WAT      O13438   5.170   7.522   0.680
 4399WAT     H113439   5.080   7.485   0.657
 4399WAT     H213440   5.190   7.503   0.776
 4400WAT      O13441   4.608   9.820   8.408
 4400WAT     H113442   4.610   9.919   8.423
 4400WAT     H213443   4.676   9.795   8.339
 4401WAT      O13444   4.573   1.456   2.059
 4401WAT     H113445   4.646   1.516   2.092
 4401WAT     H213446   4.539   1.400   2.135
 4402WAT      O13447   0.542   0.577   5.748
 4402WAT     H113448   0.488   0.570   5.832
 4402WAT     H213449   0.493   0.533   5.672
 4403WAT      O13450   4.595   3.346   3.927
 4403WAT     H113451   4.528   3.306   3.989
 4403WAT     H213452   4.618   3.280   3.856
 4404WAT      O13453   4.228   3.047   3.737
 4404WAT     H113454   4.254   3.134   3.695
 4404WAT     H213455   4.210   2.980   3.666
 4405WAT      O13456   9.867   1.571   2.297
 4405WAT     H113457   9.780   1.568   2.346
 4405WAT     H213458   9.888   1.666   2.272
 4406WAT      O13459   9.081   5.368   0.612
 4406WAT     H113460   8.993   5.321   0.621
 4406WAT     H213461   9.153   5.313   0.655
 4407WAT      O13462   8.676   9.111   7.801
 4407WAT     H113463   8.686   9.209   7.818
 4407WAT     H213464   8.644   9.065   7.885
 4408WAT      O13465   0.570   3.131   3.544
 4408WAT     H113466   0.617   3.156   3.459
 4408WAT     H213467   0.482   3.177   3.549
 4409WAT      O13468   9.880   9.484   1.323
 4409WAT     H113469   9.857   9.577   1.298
 4409WAT     H213470   9.829   9.420   1.266
 4410WAT      O13471   6.355   7.719   2.315
 4410WAT     H113472   6.292   7.786   2.355
 4410WAT     H213473   6.364   7.641   2.376
 4411WAT      O13474   0.562   5.312   9.699
 4411WAT     H113475   0.525   5.227   9.737
 4411WAT     H213476   0.503   5.388   9.725
 4412WAT      O13477   6.882   7.048   3.044
 4412WAT     H113478   6.965   6.999   3.017
 4412WAT     H213479   6.873   7.131   2.989
 4413WAT      O13480   3.074   6.721   0.105
 4413WAT     H113481   3.103   6.779   0.029
 4413WAT     H213482   3.098   6.765   0.192
 4414WAT      O13483   6.856   5.640   6.378
 4414WAT     H113484   6.917   5.577   6.331
 4414WAT     H213485   6.773   5.591   6.406
 4415WAT      O13486   8.626   4.741   2.521
 4415WAT     H113487   8.678   4.821   2.494
 4415WAT     H213488   8.546   4.770   2.574
 4416WAT      O13489   8.202   6.879   9.542
 4416WAT     H113490   8.169   6.786   9.556
 4416WAT     H213491   8.249   6.886   9.454
 4417WAT      O13492   2.647   9.658   3.006
 4417WAT     H113493   2.615   9.648   3.100
 4417WAT     H213494   2.680   9.751   2.991
 4418WAT      O13495   0.439   6.966   0.423
 4418WAT     H113496   0.437   6.880   0.371
 4418WAT     H213497   0.449   6.944   0.520
 4419WAT      O13498   4.539   9.311   6.102
 4419WAT     H113499   4.545   9.216   6.134
 4419WAT     H213500   4.444   9.342   6.110
 4420WAT      O13501   7.993   2.664   1.680
 4420WAT     H113502   7.936   2.700   1.753
 4420WAT     H213503   8.059   2.734   1.651
 4421WAT      O13504   5.961   3.349   7.185
 4421WAT     H113505   5.984   3.360   7.282
 4421WAT     H213506   5.963   3.437   7.139
 4422WAT      O13507   7.557   4.908   7.491
 4422WAT     H113508   7.473   4.922   7.543
 4422WAT     H213509   7.599   4.996   7.470
 4423WAT      O13510   9.031   3.804   6.983
 4423WAT     H113511   8.970   3.774   7.056
 4423WAT     H213512   9.049   3.902   6.992
 4424WAT      O13513   9.078   1.417   1.638
 4424WAT     H113514   9.028   1.478   1.700
 4424WAT     H213515   9.065   1.449   1.544
 4425WAT      O13516   5.978   2.319   4.548
 4425WAT     H113517   5.906   2.354   4.608
 4425WAT     H213518   5.937   2.292   4.460
 4426WAT      O13519   9.602   7.866   2.779
 4426WAT     H113520   9.669   7.880   2.851
 4426WAT     H213521   9.563   7.774   2.786
 4427WAT      O13522   2.956   6.336   7.981
 4427WAT     H113523   3.051   6.359   7.960
 4427WAT     H213524   2.919   6.276   7.910
 4428WAT      O13525   5.429   8.703   9.756
 4428WAT     H113526   5.521   8.732   9.780
 4428WAT     H213527   5.428   8.672   9.661
 4429WAT      O13528   0.901   6.594   6.200
 4429WAT     H113529   0.900   6.684   6.156
 4429WAT     H213530   0.810   6.553   6.195
 4430WAT      O13531   7.848   1.881   1.902
 4430WAT     H113532   7.945   1.856   1.910
 4430WAT     H213533   7.840   1.963   1.845
 4431WAT      O13534   5.115   7.192   2.453
 4431WAT     H113535   5.037   7.176   2.513
 4431WAT     H213536   5.173   7.264   2.492
 4432WAT      O13537   6.899   1.833   1.066
 4432WAT     H113538   6.998   1.816   1.061
 4432WAT     H213539   6.850   1.756   1.027
 4433WAT      O13540   9.670   6.606   6.930
 4433WAT     H113541   9.638   6.687   6.882
 4433WAT     H213542   9.593   6.546   6.951
 4434WAT      O13543   3.316   2.979   7.157
 4434WAT     H113544   3.301   3.072   7.123
 4434WAT     H213545   3.342   2.983   7.253
 4435WAT      O13546   8.935   1.500   4.190
 4435WAT     H113547   8.876   1.420   4.185
 4435WAT     H213548   8.890   1.571   4.244
 4436WAT      O13549   3.393   5.048   0.468
 4436WAT     H113550   3.491   5.028   0.470
 4436WAT     H213551   3.377   5.129   0.411
 4437WAT      O13552   2.323   8.026   5.172
 4437WAT     H113553   2.341   8.070   5.084
 4437WAT     H213554   2.271   7.942   5.158
 4438WAT      O13555   9.521   1.928   9.185
 4438WAT     H113556   9.476   1.983   9.256
 4438WAT     H213557   9.502   1.831   9.201
 4439WAT      O13558   2.286   9.463   0.302
 4439WAT     H113559   2.334   9.534   0.353
 4439WAT     H213560   2.344   9.430   0.228
 4440WAT      O13561   7.916   0.717   4.189
 4440WAT     H113562   7.990   0.777   4.162
 4440WAT     H213563   7.846   0.769   4.237
 4441WAT      O13564   4.282   3.057   2.660
 4441WAT     H113565   4.248   3.107   2.580
 4441WAT     H213566   4.286   2.959   2.639
 4442WAT      O13567   6.332   9.027   2.249
 4442WAT     H113568   6.428   9.000   2.258
 4442WAT     H213569   6.299   9.002   2.158
 4443WAT      O13570   0.380   8.572   3.355
 4443WAT     H113571   0.293   8.545   3.314
 4443WAT     H213572   0.368   8.657   3.406
 4444WAT      O13573   0.249   1.114   6.275
 4444WAT     H113574   0.158   1.093   6.240
 4444WAT     H213575   0.254   1.092   6.373
 4445WAT      O13576   2.376   4.169   3.453
 4445WAT     H113577   2.338   4.083   3.487
 4445WAT     H213578   2.476   4.164   3.452
 4446WAT      O13579   0.621   1.107   8.347
 4446WAT     H113580   0.626   1.078   8.252
 4446WAT     H213581   0.711   1.095   8.391
 4447WAT      O13582   3.870   1.291   3.303
 4447WAT     H113583   3.868   1.191   3.302
 4447WAT     H213584   3.922   1.323   3.224
 4448WAT      O13585   8.310   8.372   5.091
 4448WAT     H113586   8.405   8.352   5.115
 4448WAT     H213587   8.277   8.304   5.025
 4449WAT      O13588   5.392   1.391   3.388
 4449WAT     H113589   5.388   1.476   3.335
 4449WAT     H213590   5.324   1.394   3.461
 4450WAT      O13591   2.267   0.474   8.670
 4450WAT     H113592   2.286   0.559   8.623
 4450WAT     H213593   2.227   0.408   8.606
 4451WAT      O13594   7.769   3.445   3.081
 4451WAT     H113595   7.823   3.433   2.997
 4451WAT     H213596   7.678   3.406   3.067
 4452WAT      O13597   8.664   4.144   9.647
 4452WAT     H113598   8.730   4.199   9.597
 4452WAT     H213599   8.711   4.069   9.693
 4453WAT      O13600   0.005   2.639   5.510
 4453WAT     H113601  -0.026   2.546   5.526
 4453WAT     H213602  -0.032   2.673   5.424
 4454WAT      O13603   5.465   3.917   4.790
 4454WAT     H113604   5.564   3.922   4.780
 4454WAT     H213605   5.430   3.838   4.740
 4455WAT      O13606   5.462   5.963   8.961
 4455WAT     H113607   5.487   5.923   8.873
 4455WAT     H213608   5.369   5.935   8.985
 4456WAT      O13609   5.244   8.135   0.724
 4456WAT     H113610   5.259   8.067   0.796
 4456WAT     H213611   5.314   8.206   0.729
 4457WAT      O13612   0.449   8.522   4.667
 4457WAT     H113613   0.364   8.574   4.670
 4457WAT     H213614   0.501   8.548   4.585
 4458WAT      O13615   5.673   3.636   7.831
 4458WAT     H113616   5.625   3.598   7.910
 4458WAT     H213617   5.641   3.729   7.813
 4459WAT      O13618   8.704   5.646   3.593
 4459WAT     H113619   8.682   5.588   3.671
 4459WAT     H213620   8.655   5.733   3.602
 4460WAT      O13621   7.917   4.794   4.280
 4460WAT     H113622   7.847   4.724   4.262
 4460WAT     H213623   7.948   4.787   4.374
 4461WAT      O13624   6.179   0.785   2.184
 4461WAT     H113625   6.164   0.765   2.281
 4461WAT     H213626   6.277   0.800   2.167
 4462WAT      O13627   5.404   6.127   0.327
 4462WAT     H113628   5.446   6.038   0.339
 4462WAT     H213629   5.447   6.194   0.387
 4463WAT      O13630   6.589   7.231   0.955
 4463WAT     H113631   6.584   7.131   0.946
 4463WAT     H213632   6.532   7.274   0.885
 4464WAT      O13633   4.702   7.639   8.563
 4464WAT     H113634   4.609   7.675   8.571
 4464WAT     H213635   4.698   7.542   8.539
 4465WAT      O13636   3.001   6.084   5.910
 4465WAT     H113637   3.020   5.987   5.926
 4465WAT     H213638   2.937   6.117   5.979
 4466WAT      O13639   7.945   3.536   8.537
 4466WAT     H113640   7.986   3.589   8.463
 4466WAT     H213641   7.977   3.441   8.532
 4467WAT      O13642   8.092   3.134   3.772
 4467WAT     H113643   8.031   3.125   3.693
 4467WAT     H213644   8.046   3.186   3.844
 4468WAT      O13645   0.355   4.981   4.889
 4468WAT     H113646   0.390   5.047   4.955
 4468WAT     H213647   0.277   5.021   4.841
 4469WAT      O13648   3.361   6.337   7.537
 4469WAT     H113649   3.303   6.255   7.532
 4469WAT     H213650   3.348   6.391   7.454
 4470WAT      O13651   8.087   4.091   6.718
 4470WAT     H113652   8.174   4.136   6.738
 4470WAT     H213653   8.024   4.157   6.678
 4471WAT      O13654   8.455   3.816   8.010
 4471WAT     H113655   8.496   3.725   8.023
 4471WAT     H213656   8.509   3.884   8.059
 4472WAT      O13657   4.516   5.952   3.338
 4472WAT     H113658   4.502   5.939   3.436
 4472WAT     H213659   4.540   5.864   3.296
 4473WAT      O13660   7.526   4.662   0.184
 4473WAT     H113661   7.545   4.661   0.086
 4473WAT     H213662   7.612   4.666   0.235
 4474WAT      O13663   1.994   2.195   2.192
 4474WAT     H113664   2.030   2.288   2.202
 4474WAT     H213665   1.942   2.188   2.107
 4475WAT      O13666   3.649   8.461   6.365
 4475WAT     H113667   3.618   8.393   6.432
 4475WAT     H213668   3.633   8.553   6.401
 4476WAT      O13669   7.069   1.466   8.909
 4476WAT     H113670   6.998   1.479   8.840
 4476WAT     H213671   7.097   1.370   8.910
 4477WAT      O13672   8.324   2.976   3.164
 4477WAT     H113673   8.317   2.969   3.064
 4477WAT     H213674   8.254   3.039   3.198
 4478WAT      O13675   5.966   5.544   7.240
 4478WAT     H113676   5.960   5.495   7.153
 4478WAT     H213677   5.902   5.621   7.240
 4479WAT      O13678   7.936   8.456   8.872
 4479WAT     H113679   7.984   8.382   8.918
 4479WAT     H213680   7.960   8.457   8.775
 4480WAT      O13681   9.369   3.294   2.716
 4480WAT     H113682   9.292   3.242   2.751
 4480WAT     H213683   9.443   3.231   2.690
 4481WAT      O13684   1.224   7.130   6.623
 4481WAT     H113685   1.162   7.120   6.545
 4481WAT     H213686   1.173   7.161   6.703
 4482WAT      O13687   5.983   1.812   2.308
 4482WAT     H113688   6.078   1.804   2.279
 4482WAT     H213689   5.975   1.783   2.403
 4483WAT      O13690   7.642   8.168   5.767
 4483WAT     H113691   7.661   8.181   5.670
 4483WAT     H213692   7.641   8.256   5.813
 4484WAT      O13693   4.662   8.542   6.958
 4484WAT     H113694   4.595   8.616   6.946
 4484WAT     H213695   4.614   8.456   6.977
 4485WAT      O13696   4.130   1.432   7.244
 4485WAT     H113697   4.065   1.430   7.320
 4485WAT     H213698   4.127   1.521   7.199
 4486WAT      O13699   3.730   2.658   3.203
 4486WAT     H113700   3.715   2.742   3.152
 4486WAT     H213701   3.754   2.584   3.140
 4487WAT      O13702   6.902   4.523   5.543
 4487WAT     H113703   6.946   4.458   5.481
 4487WAT     H213704   6.871   4.475   5.625
 4488WAT      O13705   9.172   6.177   3.854
 4488WAT     H113706   9.156   6.116   3.777
 4488WAT     H213707   9.135   6.136   3.938
 4489WAT      O13708   0.862   3.296   3.475
 4489WAT     H113709   0.782   3.352   3.455
 4489WAT     H213710   0.894   3.314   3.568
 4490WAT      O13711   4.932   6.210   2.599
 4490WAT     H113712   4.864   6.181   2.532
 4490WAT     H213713   4.974   6.128   2.640
 4491WAT      O13714   9.266   3.637   8.504
 4491WAT     H113715   9.311   3.699   8.568
 4491WAT     H213716   9.247   3.685   8.418
 4492WAT      O13717   4.590   6.878   1.644
 4492WAT     H113718   4.532   6.959   1.656
 4492WAT     H213719   4.659   6.875   1.716
 4493WAT      O13720   8.592   5.125   4.554
 4493WAT     H113721   8.591   5.151   4.651
 4493WAT     H213722   8.644   5.040   4.543
 4494WAT      O13723   3.742   3.688   1.130
 4494WAT     H113724   3.720   3.601   1.175
 4494WAT     H213725   3.683   3.760   1.165
 4495WAT      O13726   2.205   4.563   0.087
 4495WAT     H113727   2.186   4.467   0.110
 4495WAT     H213728   2.147   4.592   0.011
 4496WAT      O13729   3.066   7.186   6.468
 4496WAT     H113730   3.122   7.266   6.449
 4496WAT     H213731   3.109   7.131   6.539
 4497WAT      O13732   8.817   4.332   9.529
 4497WAT     H113733   8.875   4.311   9.450
 4497WAT     H213734   8.874   4.338   9.611
 4498WAT      O13735   6.409   6.807   8.876
 4498WAT     H113736   6.484   6.751   8.841
 4498WAT     H213737   6.353   6.752   8.939
 4499WAT      O13738   4.783   5.991   6.376
 4499WAT     H113739   4.701   6.024   6.423
 4499WAT     H213740   4.765   5.900   6.339
 4500WAT      O13741   3.952   3.918   0.038
 4500WAT     H113742   3.899   4.000   0.062
 4500WAT     H213743   3.890   3.849  -0.001
 4501WAT      O13744   7.398   4.443   5.251
 4501WAT     H113745   7.487   4.447   5.296
 4501WAT     H213746   7.343   4.523   5.277
 4502WAT      O13747   5.822   4.720   0.164
 4502WAT     H113748   5.733   4.675   0.163
 4502WAT     H213749   5.881   4.680   0.094
 4503WAT      O13750   7.293   0.243   5.358
 4503WAT     H113751   7.309   0.329   5.311
 4503WAT     H213752   7.289   0.258   5.457
 4504WAT      O13753   2.661   2.029   4.494
 4504WAT     H113754   2.636   2.115   4.451
 4504WAT     H213755   2.758   2.032   4.522
 4505WAT      O13756   3.610   2.384   8.660
 4505WAT     H113757   3.604   2.464   8.721
 4505WAT     H213758   3.521   2.339   8.655
 4506WAT      O13759   0.813   7.200   0.730
 4506WAT     H113760   0.778   7.239   0.815
 4506WAT     H213761   0.778   7.107   0.719
 4507WAT      O13762   5.861   6.589   2.571
 4507WAT     H113763   5.843   6.637   2.485
 4507WAT     H213764   5.925   6.642   2.626
 4508WAT      O13765   2.063   8.062   2.637
 4508WAT     H113766   2.082   8.129   2.708
 4508WAT     H213767   2.087   7.970   2.669
 4509WAT      O13768   7.511   6.796   7.130
 4509WAT     H113769   7.570   6.776   7.052
 4509WAT     H213770   7.567   6.811   7.212
 4510WAT      O13771   6.430   4.114   5.980
 4510WAT     H113772   6.452   4.065   5.896
 4510WAT     H213773   6.334   4.101   6.002
 4511WAT      O13774   5.038   3.367   6.957
 4511WAT     H113775   5.011   3.444   6.899
 4511WAT     H213776   5.128   3.334   6.928
 4512WAT      O13777   5.833   2.425   3.834
 4512WAT     H113778   5.927   2.392   3.833
 4512WAT     H213779   5.828   2.512   3.785
 4513WAT      O13780   5.553   8.624   2.394
 4513WAT     H113781   5.478   8.632   2.459
 4513WAT     H213782   5.544   8.539   2.342
 4514WAT      O13783   9.370   0.981   4.076
 4514WAT     H113784   9.396   1.068   4.118
 4514WAT     H213785   9.415   0.906   4.123
 4515WAT      O13786   9.196   5.390   8.785
 4515WAT     H113787   9.210   5.367   8.689
 4515WAT     H213788   9.285   5.409   8.828
 4516WAT      O13789   2.938   4.606   2.180
 4516WAT     H113790   2.907   4.511   2.175
 4516WAT     H213791   2.868   4.661   2.227
 4517WAT      O13792   3.823   6.969   6.662
 4517WAT     H113793   3.788   7.059   6.690
 4517WAT     H213794   3.915   6.980   6.624
 4518WAT      O13795   9.136   6.504   7.745
 4518WAT     H113796   9.186   6.431   7.700
 4518WAT     H213797   9.146   6.495   7.844
 4519WAT      O13798   0.052   5.812   6.536
 4519WAT     H113799  -0.014   5.742   6.511
 4519WAT     H213800   0.006   5.901   6.544
 4520WAT      O13801   5.293   4.254   5.526
 4520WAT     H113802   5.345   4.179   5.484
 4520WAT     H213803   5.356   4.318   5.568
 4521WAT      O13804   2.713   0.807   6.447
 4521WAT     H113805   2.634   0.752   6.476
 4521WAT     H213806   2.794   0.749   6.443
 4522WAT      O13807   6.144   7.101   4.292
 4522WAT     H113808   6.234   7.110   4.250
 4522WAT     H213809   6.083   7.052   4.230
 4523WAT      O13810   4.145   1.195   1.030
 4523WAT     H113811   4.110   1.208   0.938
 4523WAT     H213812   4.169   1.098   1.043
 4524WAT      O13813   5.768   2.324   6.433
 4524WAT     H113814   5.684   2.333   6.379
 4524WAT     H213815   5.805   2.232   6.422
 4525WAT      O13816   8.758   2.948   7.082
 4525WAT     H113817   8.855   2.937   7.105
 4525WAT     H213818   8.727   2.866   7.033
 4526WAT      O13819   2.637   7.197   2.620
 4526WAT     H113820   2.576   7.118   2.629
 4526WAT     H213821   2.705   7.180   2.548
 4527WAT      O13822   8.097   6.422   5.980
 4527WAT     H113823   8.148   6.402   6.063
 4527WAT     H213824   8.157   6.414   5.901
 4528WAT      O13825   6.807   9.545   3.992
 4528WAT     H113826   6.786   9.590   4.079
 4528WAT     H213827   6.771   9.452   3.993
 4529WAT      O13828   1.211   0.826   1.717
 4529WAT     H113829   1.174   0.733   1.725
 4529WAT     H213830   1.305   0.827   1.752
 4530WAT      O13831   9.604   5.887   7.873
 4530WAT     H113832   9.547   5.964   7.901
 4530WAT     H213833   9.687   5.921   7.829
 4531WAT      O13834   4.412   7.243   6.757
 4531WAT     H113835   4.416   7.143   6.768
 4531WAT     H213836   4.480   7.286   6.816
 4532WAT      O13837   4.311   5.341   1.765
 4532WAT     H113838   4.390   5.400   1.784
 4532WAT     H213839   4.268   5.315   1.852
 4533WAT      O13840   2.605   5.078   2.625
 4533WAT     H113841   2.649   5.121   2.704
 4533WAT     H213842   2.636   5.123   2.541
 4534WAT      O13843   3.295   7.370   4.725
 4534WAT     H113844   3.253   7.410   4.806
 4534WAT     H213845   3.249   7.405   4.643
 4535WAT      O13846   6.610   7.608   8.186
 4535WAT     H113847   6.680   7.542   8.161
 4535WAT     H213848   6.599   7.609   8.285
 4536WAT      O13849   1.689   3.253   8.380
 4536WAT     H113850   1.625   3.267   8.305
 4536WAT     H213851   1.652   3.188   8.445
 4537WAT      O13852   7.159   1.722   7.211
 4537WAT     H113853   7.171   1.659   7.135
 4537WAT     H213854   7.246   1.736   7.258
 4538WAT      O13855   8.257   5.568   7.851
 4538WAT     H113856   8.173   5.600   7.806
 4538WAT     H213857   8.301   5.499   7.794
 4539WAT      O13858   9.089   8.608   7.092
 4539WAT     H113859   9.043   8.666   7.024
 4539WAT     H213860   9.173   8.571   7.053
 4540WAT      O13861   3.165   9.174   4.621
 4540WAT     H113862   3.164   9.264   4.666
 4540WAT     H213863   3.241   9.171   4.555
 4541WAT      O13864   0.515   1.797   7.739
 4541WAT     H113865   0.519   1.781   7.837
 4541WAT     H213866   0.518   1.896   7.721
 4542WAT      O13867   5.802   7.241   7.114
 4542WAT     H113868   5.838   7.262   7.023
 4542WAT     H213869   5.744   7.316   7.145
 4543WAT      O13870   9.731   2.286   5.084
 4543WAT     H113871   9.658   2.353   5.075
 4543WAT     H213872   9.713   2.209   5.022
 4544WAT      O13873   3.152   3.642   8.388
 4544WAT     H113874   3.252   3.649   8.393
 4544WAT     H213875   3.123   3.558   8.432
 4545WAT      O13876   7.021   0.569   8.057
 4545WAT     H113877   7.008   0.472   8.079
 4545WAT     H213878   7.088   0.609   8.120
 4546WAT      O13879   5.176   7.395   6.804
 4546WAT     H113880   5.230   7.414   6.723
 4546WAT     H213881   5.080   7.418   6.787
 4547WAT      O13882   6.367   1.252   5.174
 4547WAT     H113883   6.427   1.229   5.250
 4547WAT     H213884   6.373   1.181   5.104
 4548WAT      O13885   4.221   6.118   8.800
 4548WAT     H113886   4.132   6.071   8.806
 4548WAT     H213887   4.260   6.103   8.709
 4549WAT      O13888   7.850   8.530   4.054
 4549WAT     H113889   7.935   8.482   4.036
 4549WAT     H213890   7.859   8.584   4.138
 4550WAT      O13891   8.367   0.617   0.182
 4550WAT     H113892   8.311   0.581   0.107
 4550WAT     H213893   8.428   0.546   0.216
 4551WAT      O13894   9.005   0.729   6.789
 4551WAT     H113895   9.035   0.743   6.695
 4551WAT     H213896   9.047   0.647   6.826
 4552WAT      O13897   7.446   5.799   8.443
 4552WAT     H113898   7.525   5.740   8.459
 4552WAT     H213899   7.472   5.874   8.383
 4553WAT      O13900   0.034   0.572   1.263
 4553WAT     H113901   0.086   0.519   1.196
 4553WAT     H213902   0.002   0.657   1.221
 4554WAT      O13903   8.620   7.307   8.596
 4554WAT     H113904   8.687   7.359   8.544
 4554WAT     H213905   8.528   7.336   8.570
 4555WAT      O13906   5.376   3.256   3.865
 4555WAT     H113907   5.373   3.164   3.904
 4555WAT     H213908   5.286   3.281   3.829
 4556WAT      O13909   6.230   1.382   9.602
 4556WAT     H113910   6.237   1.480   9.584
 4556WAT     H213911   6.311   1.336   9.565
 4557WAT      O13912   6.079   1.285   5.056
 4557WAT     H113913   6.065   1.197   5.010
 4557WAT     H213914   6.171   1.288   5.094
 4558WAT      O13915   9.564   3.761   4.204
 4558WAT     H113916   9.496   3.824   4.167
 4558WAT     H213917   9.640   3.812   4.243
 4559WAT      O13918   5.814   7.703   2.002
 4559WAT     H113919   5.825   7.790   2.050
 4559WAT     H213920   5.753   7.714   1.924
 4560WAT      O13921   7.723   9.420   2.141
 4560WAT     H113922   7.726   9.513   2.177
 4560WAT     H213923   7.792   9.411   2.069
 4561WAT      O13924   6.099   7.148   6.155
 4561WAT     H113925   6.077   7.063   6.203
 4561WAT     H213926   6.074   7.139   6.059
 4562WAT      O13927   5.050   5.783   5.834
 4562WAT     H113928   4.975   5.757   5.772
 4562WAT     H213929   5.107   5.703   5.852
 4563WAT      O13930   7.348   6.676   5.253
 4563WAT     H113931   7.378   6.737   5.180
 4563WAT     H213932   7.287   6.606   5.216
 4564WAT      O13933   5.443   7.220   9.304
 4564WAT     H113934   5.417   7.158   9.378
 4564WAT     H213935   5.424   7.314   9.331
 4565WAT      O13936   5.022   4.893   8.422
 4565WAT     H113937   4.973   4.950   8.489
 4565WAT     H213938   4.957   4.833   8.376
 4566WAT      O13939   1.684   7.457   0.780
 4566WAT     H113940   1.746   7.379   0.787
 4566WAT     H213941   1.686   7.509   0.866
 4567WAT      O13942   7.071   2.245   3.940
 4567WAT     H113943   7.072   2.230   3.841
 4567WAT     H213944   7.164   2.242   3.976
 4568WAT      O13945   7.415   1.528   3.854
 4568WAT     H113946   7.454   1.442   3.822
 4568WAT     H213947   7.318   1.533   3.829
 4569WAT      O13948   6.781   0.313   0.791
 4569WAT     H113949   6.690   0.271   0.798
 4569WAT     H213950   6.806   0.355   0.878
 4570WAT      O13951   7.037   5.994   3.692
 4570WAT     H113952   6.956   6.016   3.637
 4570WAT     H213953   7.013   6.001   3.789
 4571WAT      O13954   1.877   0.599   9.122
 4571WAT     H113955   1.854   0.696   9.119
 4571WAT     H213956   1.793   0.545   9.129
 4572WAT      O13957   8.955   2.048   6.986
 4572WAT     H113958   8.874   2.103   6.965
 4572WAT     H213959   9.013   2.097   7.051
 4573WAT      O13960   2.141   2.132   6.161
 4573WAT     H113961   2.225   2.118   6.108
 4573WAT     H213962   2.067   2.077   6.120
 4574WAT      O13963   1.792   2.809   9.113
 4574WAT     H113964   1.777   2.895   9.065
 4574WAT     H213965   1.704   2.772   9.143
 4575WAT      O13966   8.221   3.135   6.461
 4575WAT     H113967   8.170   3.163   6.380
 4575WAT     H213968   8.318   3.125   6.437
 4576WAT      O13969   4.345   7.568   0.057
 4576WAT     H113970   4.366   7.474   0.082
 4576WAT     H213971   4.421   7.628   0.084
 4577WAT      O13972   2.366   5.566   1.543
 4577WAT     H113973   2.330   5.645   1.495
 4577WAT     H213974   2.368   5.487   1.482
 4578WAT      O13975   0.732   8.679   5.906
 4578WAT     H113976   0.668   8.740   5.860
 4578WAT     H213977   0.751   8.600   5.847
 4579WAT      O13978   7.374   0.525   9.281
 4579WAT     H113979   7.295   0.582   9.302
 4579WAT     H213980   7.344   0.433   9.258
 4580WAT      O13981   1.318   7.946   5.532
 4580WAT     H113982   1.312   7.974   5.436
 4580WAT     H213983   1.381   7.869   5.540
 4581WAT      O13984   8.948   4.210   6.361
 4581WAT     H113985   8.928   4.112   6.356
 4581WAT     H213986   9.044   4.223   6.387
 4582WAT      O13987   4.272   2.624   0.272
 4582WAT     H113988   4.260   2.670   0.185
 4582WAT     H213989   4.230   2.679   0.345
 4583WAT      O13990   6.905   0.152   0.498
 4583WAT     H113991   6.992   0.169   0.451
 4583WAT     H213992   6.842   0.227   0.480
 4584WAT      O13993   8.726   0.935   0.181
 4584WAT     H113994   8.754   1.026   0.151
 4584WAT     H213995   8.744   0.869   0.107
 4585WAT      O13996   4.573   1.447   1.563
 4585WAT     H113997   4.637   1.450   1.486
 4585WAT     H213998   4.487   1.405   1.534
 4586WAT      O13999   2.620   2.546   9.828
 4586WAT     H114000   2.674   2.598   9.894
 4586WAT     H214001   2.668   2.460   9.807
 4587WAT      O14002   5.007   1.541   1.301
 4587WAT     H114003   5.042   1.632   1.279
 4587WAT     H214004   5.019   1.523   1.398
 4588WAT      O14005   2.357   2.181   4.981
 4588WAT     H114006   2.415   2.214   5.055
 4588WAT     H214007   2.400   2.102   4.938
 4589WAT      O14008   9.578   5.060   4.362
 4589WAT     H114009   9.618   5.113   4.436
 4589WAT     H214010   9.481   5.044   4.380
 4590WAT      O14011   7.760   9.823   6.836
 4590WAT     H114012   7.799   9.779   6.916
 4590WAT     H214013   7.804   9.787   6.753
 4591WAT      O14014   1.403   4.665   9.338
 4591WAT     H114015   1.450   4.739   9.386
 4591WAT     H214016   1.304   4.677   9.346
 4592WAT      O14017   9.124   0.930   1.638
 4592WAT     H114018   9.031   0.951   1.608
 4592WAT     H214019   9.145   0.984   1.720
 4593WAT      O14020   7.995   0.927   8.321
 4593WAT     H114021   7.951   0.870   8.250
 4593WAT     H214022   7.937   1.006   8.340
 4594WAT      O14023   1.332   9.424   4.167
 4594WAT     H114024   1.417   9.458   4.127
 4594WAT     H214025   1.271   9.501   4.186
 4595WAT      O14026   9.648   7.735   9.477
 4595WAT     H114027   9.693   7.824   9.480
 4595WAT     H214028   9.549   7.748   9.467
 4596WAT      O14029   9.725   6.220   7.411
 4596WAT     H114030   9.770   6.141   7.369
 4596WAT     H214031   9.776   6.303   7.390
 4597WAT      O14032   2.532   3.662   2.840
 4597WAT     H114033   2.471   3.591   2.805
 4597WAT     H214034   2.512   3.678   2.937
 4598WAT      O14035   0.611   2.174   2.104
 4598WAT     H114036   0.701   2.160   2.147
 4598WAT     H214037   0.624   2.218   2.015
 4599WAT      O14038   9.189   1.756   6.520
 4599WAT     H114039   9.255   1.776   6.447
 4599WAT     H214040   9.182   1.835   6.581
 4600WAT      O14041   1.769   4.747   4.166
 4600WAT     H114042   1.683   4.784   4.201
 4600WAT     H214043   1.834   4.822   4.150
 4601WAT      O14044   3.061   0.161   8.643
 4601WAT     H114045   3.049   0.248   8.596
 4601WAT     H214046   3.028   0.087   8.583
 4602WAT      O14047   5.044   4.018   3.323
 4602WAT     H114048   5.133   3.988   3.289
 4602WAT     H214049   5.033   4.116   3.305
 4603WAT      O14050   1.102   8.059   3.620
 4603WAT     H114051   1.153   8.039   3.704
 4603WAT     H214052   1.080   7.973   3.573
 4604WAT      O14053   1.914   8.587   6.347
 4604WAT     H114054   1.902   8.686   6.352
 4604WAT     H214055   1.824   8.542   6.352
 4605WAT      O14056   8.327   5.663   5.860
 4605WAT     H114057   8.414   5.646   5.816
 4605WAT     H214058   8.340   5.667   5.959
 4606WAT      O14059   8.846   7.672   7.398
 4606WAT     H114060   8.752   7.637   7.401
 4606WAT     H214061   8.908   7.607   7.441
 4607WAT      O14062   6.626   5.132   0.141
 4607WAT     H114063   6.552   5.188   0.105
 4607WAT     H214064   6.649   5.163   0.233
 4608WAT      O14065   3.520   6.484   8.959
 4608WAT     H114066   3.425   6.489   8.991
 4608WAT     H214067   3.525   6.421   8.881
 4609WAT      O14068   7.801   1.720   0.911
 4609WAT     H114069   7.741   1.655   0.957
 4609WAT     H214070   7.892   1.715   0.952
 4610WAT      O14071   8.618   2.147   6.702
 4610WAT     H114072   8.609   2.047   6.699
 4610WAT     H214073   8.650   2.180   6.613
 4611WAT      O14074   9.331   0.191   7.900
 4611WAT     H114075   9.283   0.165   7.816
 4611WAT     H214076   9.265   0.205   7.974
 4612WAT      O14077   1.356   3.939   8.526
 4612WAT     H114078   1.423   3.992   8.475
 4612WAT     H214079   1.306   3.878   8.464
 4613WAT      O14080   2.341   8.355   0.662
 4613WAT     H114081   2.275   8.305   0.606
 4613WAT     H214082   2.292   8.419   0.722
 4614WAT      O14083   1.904   2.288   5.819
 4614WAT     H114084   1.868   2.287   5.912
 4614WAT     H214085   1.854   2.223   5.762
 4615WAT      O14086   4.433   0.265   9.794
 4615WAT     H114087   4.429   0.316   9.880
 4615WAT     H214088   4.528   0.247   9.770
 4616WAT      O14089   2.967   1.660   2.196
 4616WAT     H114090   2.917   1.726   2.141
 4616WAT     H214091   2.904   1.612   2.257
 4617WAT      O14092   2.155   7.477   3.607
 4617WAT     H114093   2.244   7.436   3.586
 4617WAT     H214094   2.106   7.495   3.521
 4618WAT      O14095   8.220   4.203   0.996
 4618WAT     H114096   8.187   4.266   0.925
 4618WAT     H214097   8.181   4.112   0.979
 4619WAT      O14098   7.811   0.690   3.817
 4619WAT     H114099   7.905   0.718   3.802
 4619WAT     H214100   7.752   0.770   3.825
 4620WAT      O14101   5.089   3.964   2.119
 4620WAT     H114102   4.994   3.944   2.143
 4620WAT     H214103   5.133   3.881   2.087
 4621WAT      O14104   0.881   2.018   4.708
 4621WAT     H114105   0.917   2.072   4.785
 4621WAT     H214106   0.796   1.973   4.735
 4622WAT      O14107   8.144   6.557   4.828
 4622WAT     H114108   8.235   6.533   4.795
 4622WAT     H214109   8.144   6.652   4.859
 4623WAT      O14110   9.843   5.832   3.935
 4623WAT     H114111   9.845   5.928   3.905
 4623WAT     H214112   9.752   5.794   3.919
 4624WAT      O14113   0.718   0.706   2.644
 4624WAT     H114114   0.693   0.751   2.729
 4624WAT     H214115   0.788   0.637   2.661
 4625WAT      O14116   1.543   1.569   9.114
 4625WAT     H114117   1.494   1.482   9.103
 4625WAT     H214118   1.491   1.629   9.174
 4626WAT      O14119   6.120   8.888   8.397
 4626WAT     H114120   6.135   8.833   8.479
 4626WAT     H214121   6.208   8.912   8.356
 4627WAT      O14122   8.728   1.963   6.287
 4627WAT     H114123   8.717   2.009   6.198
 4627WAT     H214124   8.703   1.867   6.277
 4628WAT      O14125   2.649   9.282   1.560
 4628WAT     H114126   2.613   9.196   1.525
 4628WAT     H214127   2.695   9.266   1.648
 4629WAT      O14128   7.177   6.521   8.845
 4629WAT     H114129   7.154   6.478   8.932
 4629WAT     H214130   7.187   6.620   8.858
 4630WAT      O14131   1.122   3.247   0.071
 4630WAT     H114132   1.068   3.317   0.024
 4630WAT     H214133   1.114   3.259   0.170
 4631WAT      O14134   3.253   2.437   8.549
 4631WAT     H114135   3.316   2.366   8.580
 4631WAT     H214136   3.170   2.394   8.514
 4632WAT      O14137   3.637   0.605   1.222
 4632WAT     H114138   3.637   0.670   1.147
 4632WAT     H214139   3.600   0.649   1.304
 4633WAT      O14140   3.375   9.063   3.998
 4633WAT     H114141   3.362   9.130   3.925
 4633WAT     H214142   3.348   9.102   4.085
 4634WAT      O14143   7.854   9.263   9.506
 4634WAT     H114144   7.947   9.286   9.480
 4634WAT     H214145   7.855   9.195   9.579
 4635WAT      O14146   6.090   7.847   1.517
 4635WAT     H114147   6.061   7.941   1.500
 4635WAT     H214148   6.108   7.802   1.429
 4636WAT      O14149   7.738   6.448   8.317
 4636WAT     H114150   7.679   6.371   8.343
 4636WAT     H214151   7.834   6.421   8.327
 4637WAT      O14152   6.478   2.772   8.715
 4637WAT     H114153   6.540   2.784   8.792
 4637WAT     H214154   6.396   2.828   8.729
 4638WAT      O14155   0.601   5.874   8.221
 4638WAT     H114156   0.552   5.911   8.300
 4638WAT     H214157   0.662   5.801   8.251
 4639WAT      O14158   3.265   2.648   1.261
 4639WAT     H114159   3.189   2.633   1.325
 4639WAT     H214160   3.290   2.560   1.220
 4640WAT      O14161   3.189   5.581   1.419
 4640WAT     H114162   3.281   5.551   1.394
 4640WAT     H214163   3.130   5.502   1.431
 4641WAT      O14164   4.485   1.815   8.022
 4641WAT     H114165   4.518   1.735   7.972
 4641WAT     H214166   4.554   1.843   8.089
 4642WAT      O14167   2.106   8.617   7.874
 4642WAT     H114168   2.119   8.544   7.940
 4642WAT     H214169   2.009   8.641   7.869
 4643WAT      O14170   1.204   2.820   5.371
 4643WAT     H114171   1.132   2.756   5.343
 4643WAT     H214172   1.283   2.767   5.402
 4644WAT      O14173   7.691   0.328   5.981
 4644WAT     H114174   7.645   0.391   6.044
 4644WAT     H214175   7.655   0.236   5.994
 4645WAT      O14176   1.547   1.940   2.306
 4645WAT     H114177   1.617   2.006   2.333
 4645WAT     H214178   1.458   1.984   2.308
 4646WAT      O14179   4.500   0.123   2.581
 4646WAT     H114180   4.512   0.023   2.577
 4646WAT     H214181   4.545   0.165   2.502
 4647WAT      O14182   7.241   0.476   7.804
 4647WAT     H114183   7.275   0.400   7.749
 4647WAT     H214184   7.142   0.483   7.794
 4648WAT      O14185   6.324   9.131   0.296
 4648WAT     H114186   6.238   9.096   0.260
 4648WAT     H214187   6.395   9.123   0.226
 4649WAT      O14188   7.479   0.489   4.154
 4649WAT     H114189   7.388   0.523   4.129
 4649WAT     H214190   7.525   0.453   4.073
 4650WAT      O14191   9.845   5.373   2.448
 4650WAT     H114192   9.901   5.324   2.515
 4650WAT     H214193   9.756   5.329   2.440
 4651WAT      O14194   8.250   1.136   9.468
 4651WAT     H114195   8.284   1.225   9.438
 4651WAT     H214196   8.185   1.100   9.400
 4652WAT      O14197   6.383   8.477   2.604
 4652WAT     H114198   6.415   8.570   2.591
 4652WAT     H214199   6.370   8.460   2.702
 4653WAT      O14200   1.464   3.804   3.469
 4653WAT     H114201   1.371   3.780   3.499
 4653WAT     H214202   1.458   3.873   3.397
 4654WAT      O14203   5.519   2.334   9.083
 4654WAT     H114204   5.503   2.299   9.175
 4654WAT     H214205   5.576   2.417   9.088
 4655WAT      O14206   9.094   0.630   3.773
 4655WAT     H114207   9.064   0.658   3.682
 4655WAT     H214208   9.171   0.687   3.802
 4656WAT      O14209   8.081   6.842   6.989
 4656WAT     H114210   8.013   6.806   6.925
 4656WAT     H214211   8.099   6.938   6.967
 4657WAT      O14212   9.671   8.469   8.689
 4657WAT     H114213   9.673   8.523   8.606
 4657WAT     H214214   9.582   8.479   8.734
 4658WAT      O14215   8.314   7.808   4.106
 4658WAT     H114216   8.276   7.896   4.134
 4658WAT     H214217   8.355   7.763   4.185
 4659WAT      O14218   0.597   2.472   3.122
 4659WAT     H114219   0.591   2.405   3.195
 4659WAT     H214220   0.597   2.425   3.033
 4660WAT      O14221   2.480   7.060   7.377
 4660WAT     H114222   2.527   6.974   7.399
 4660WAT     H214223   2.398   7.068   7.433
 4661WAT      O14224   7.120   8.967   7.070
 4661WAT     H114225   7.171   8.900   7.125
 4661WAT     H214226   7.088   9.041   7.129
 4662WAT      O14227   4.563   1.249   9.761
 4662WAT     H114228   4.478   1.197   9.769
 4662WAT     H214229   4.604   1.232   9.671
 4663WAT      O14230   4.494   2.947   5.207
 4663WAT     H114231   4.433   3.012   5.252
 4663WAT     H214232   4.588   2.978   5.214
 4664WAT      O14233   8.177   3.816   8.961
 4664WAT     H114234   8.208   3.827   8.867
 4664WAT     H214235   8.091   3.865   8.974
 4665WAT      O14236   6.968   8.674   2.789
 4665WAT     H114237   7.023   8.593   2.772
 4665WAT     H214238   6.878   8.648   2.824
 4666WAT      O14239   0.381   7.691   7.636
 4666WAT     H114240   0.314   7.757   7.604
 4666WAT     H214241   0.446   7.736   7.697
 4667WAT      O14242   7.709   3.718   3.088
 4667WAT     H114243   7.751   3.627   3.083
 4667WAT     H214244   7.727   3.758   3.178
 4668WAT      O14245   9.307   2.342   7.915
 4668WAT     H114246   9.234   2.334   7.982
 4668WAT     H214247   9.309   2.260   7.857
 4669WAT      O14248   7.418   3.836   3.709
 4669WAT     H114249   7.360   3.853   3.629
 4669WAT     H214250   7.408   3.741   3.738
 4670WAT      O14251   5.219   2.795   9.132
 4670WAT     H114252   5.151   2.784   9.204
 4670WAT     H214253   5.228   2.710   9.081
 4671WAT      O14254   8.139   5.428   5.919
 4671WAT     H114255   8.211   5.487   5.882
 4671WAT     H214256   8.104   5.368   5.847
 4672WAT      O14257   1.511   1.346   6.753
 4672WAT     H114258   1.448   1.277   6.716
 4672WAT     H214259   1.600   1.338   6.706
 4673WAT      O14260   2.047   6.651   6.324
 4673WAT     H114261   2.108   6.609   6.392
 4673WAT     H214262   2.020   6.742   6.356
 4674WAT      O14263   7.557   5.352   3.722
 4674WAT     H114264   7.606   5.282   3.671
 4674WAT     H214265   7.598   5.442   3.703
 4675WAT      O14266   0.778   1.900   7.067
 4675WAT     H114267   0.752   1.997   7.059
 4675WAT     H214268   0.781   1.875   7.164
 4676WAT      O14269   7.273   3.306   2.201
 4676WAT     H114270   7.372   3.320   2.197
 4676WAT     H214271   7.228   3.374   2.143
 4677WAT      O14272   5.974   5.793   9.133
 4677WAT     H114273   5.904   5.750   9.077
 4677WAT     H214274   5.953   5.779   9.230
 4678WAT      O14275   1.190   7.942   1.417
 4678WAT     H114276   1.107   7.988   1.385
 4678WAT     H214277   1.167   7.855   1.460
 4679WAT      O14278   3.840   1.771   1.889
 4679WAT     H114279   3.867   1.718   1.808
 4679WAT     H214280   3.807   1.861   1.860
 4680WAT      O14281   0.876   8.038   0.044
 4680WAT     H114282   0.889   7.975   0.121
 4680WAT     H214283   0.780   8.033   0.014
 4681WAT      O14284   4.707   7.533   6.374
 4681WAT     H114285   4.799   7.494   6.383
 4681WAT     H214286   4.669   7.550   6.464
 4682WAT      O14287   1.258   9.364   7.630
 4682WAT     H114288   1.336   9.383   7.571
 4682WAT     H214289   1.244   9.265   7.636
 4683WAT      O14290   1.563   9.817   7.592
 4683WAT     H114291   1.602   9.764   7.516
 4683WAT     H214292   1.464   9.821   7.581
 4684WAT      O14293   7.696   3.112   7.560
 4684WAT     H114294   7.710   3.013   7.563
 4684WAT     H214295   7.783   3.157   7.540
 4685WAT      O14296   8.568   6.657   4.948
 4685WAT     H114297   8.533   6.580   4.895
 4685WAT     H214298   8.541   6.743   4.905
 4686WAT      O14299   4.283   1.108   6.379
 4686WAT     H114300   4.264   1.190   6.326
 4686WAT     H214301   4.213   1.039   6.360
 4687WAT      O14302   5.765   6.700   7.424
 4687WAT     H114303   5.809   6.752   7.497
 4687WAT     H214304   5.808   6.610   7.417
 4688WAT      O14305   8.592   7.200   2.731
 4688WAT     H114306   8.673   7.253   2.705
 4688WAT     H214307   8.576   7.209   2.829
 4689WAT      O14308   9.014   0.312   1.686
 4689WAT     H114309   9.009   0.294   1.588
 4689WAT     H214310   8.938   0.371   1.713
 4690WAT      O14311   5.811   9.406   4.524
 4690WAT     H114312   5.712   9.392   4.533
 4690WAT     H214313   5.853   9.324   4.483
 4691WAT      O14314   0.970   2.884   0.548
 4691WAT     H114315   0.909   2.892   0.627
 4691WAT     H214316   1.059   2.922   0.571
 4692WAT      O14317   4.543   4.409   1.678
 4692WAT     H114318   4.577   4.502   1.662
 4692WAT     H214319   4.472   4.411   1.749
 4693WAT      O14320   5.710   3.684   8.189
 4693WAT     H114321   5.775   3.633   8.131
 4693WAT     H214322   5.756   3.764   8.227
 4694WAT      O14323   7.821   1.973   4.530
 4694WAT     H114324   7.842   1.880   4.558
 4694WAT     H214325   7.769   2.019   4.602
 4695WAT      O14326   3.662   7.652   1.776
 4695WAT     H114327   3.657   7.650   1.676
 4695WAT     H214328   3.627   7.566   1.813
 4696WAT      O14329   7.705   7.127   6.306
 4696WAT     H114330   7.623   7.182   6.289
 4696WAT     H214331   7.688   7.066   6.383
 4697WAT      O14332   1.251   5.448   7.131
 4697WAT     H114333   1.174   5.499   7.095
 4697WAT     H214334   1.314   5.510   7.178
 4698WAT      O14335   1.913   6.911   1.035
 4698WAT     H114336   1.831   6.854   1.042
 4698WAT     H214337   1.897   6.999   1.079
 4699WAT      O14338   4.843   6.804   8.911
 4699WAT     H114339   4.789   6.836   8.990
 4699WAT     H214340   4.932   6.773   8.943
 4700WAT      O14341   3.757   3.837   4.794
 4700WAT     H114342   3.819   3.763   4.820
 4700WAT     H214343   3.770   3.859   4.698
 4701WAT      O14344   3.026   3.595   3.224
 4701WAT     H114345   3.045   3.584   3.126
 4701WAT     H214346   3.094   3.544   3.276
 4702WAT      O14347   0.334   0.283   7.596
 4702WAT     H114348   0.296   0.226   7.524
 4702WAT     H214349   0.386   0.226   7.660
 4703WAT      O14350   5.417   7.716   3.304
 4703WAT     H114351   5.450   7.782   3.372
 4703WAT     H214352   5.464   7.730   3.217
 4704WAT      O14353   3.498   8.149   8.057
 4704WAT     H114354   3.401   8.166   8.040
 4704WAT     H214355   3.552   8.226   8.023
 4705WAT      O14356   2.338   8.507   6.262
 4705WAT     H114357   2.418   8.494   6.321
 4705WAT     H214358   2.291   8.592   6.288
 4706WAT      O14359   8.979   2.229   3.068
 4706WAT     H114360   9.030   2.164   3.124
 4706WAT     H214361   9.021   2.320   3.075
 4707WAT      O14362   7.949   2.808   9.146
 4707WAT     H114363   8.004   2.745   9.091
 4707WAT     H214364   7.949   2.779   9.241
 4708WAT      O14365   7.817   9.166   4.980
 4708WAT     H114366   7.830   9.182   5.077
 4708WAT     H214367   7.760   9.239   4.941
 4709WAT      O14368   2.093   8.149   9.517
 4709WAT     H114369   2.162   8.156   9.590
 4709WAT     H214370   2.109   8.065   9.465
 4710WAT      O14371   8.520   2.617   3.338
 4710WAT     H114372   8.535   2.689   3.270
 4710WAT     H214373   8.589   2.546   3.327
 4711WAT      O14374   9.870   8.281   2.364
 4711WAT     H114375   9.845   8.242   2.453
 4711WAT     H214376   9.966   8.260   2.345
 4712WAT      O14377   1.573   5.967   8.848
 4712WAT     H114378   1.593   6.024   8.927
 4712WAT     H214379   1.630   5.995   8.771
 4713WAT      O14380   1.893   6.406   6.495
 4713WAT     H114381   1.965   6.354   6.448
 4713WAT     H214382   1.911   6.504   6.486
 4714WAT      O14383   2.752   1.423   5.396
 4714WAT     H114384   2.778   1.328   5.413
 4714WAT     H214385   2.664   1.426   5.349
 4715WAT      O14386   5.627   6.635   9.089
 4715WAT     H114387   5.694   6.657   9.018
 4715WAT     H214388   5.649   6.684   9.173
 4716WAT      O14389   9.409   6.362   6.485
 4716WAT     H114390   9.334   6.395   6.426
 4716WAT     H214391   9.492   6.415   6.465
 4717WAT      O14392   8.190   8.010   7.558
 4717WAT     H114393   8.204   8.009   7.459
 4717WAT     H214394   8.126   7.938   7.583
 4718WAT      O14395   3.827   9.600   6.884
 4718WAT     H114396   3.859   9.688   6.919
 4718WAT     H214397   3.858   9.588   6.790
 4719WAT      O14398   7.994   4.773   3.915
 4719WAT     H114399   8.027   4.818   3.998
 4719WAT     H214400   7.926   4.831   3.871
 4720WAT      O14401   0.723   5.768   1.350
 4720WAT     H114402   0.787   5.716   1.408
 4720WAT     H214403   0.737   5.744   1.254
 4721WAT      O14404   0.674   3.355   4.261
 4721WAT     H114405   0.613   3.427   4.227
 4721WAT     H214406   0.716   3.385   4.347
 4722WAT      O14407   0.705   7.589   8.955
 4722WAT     H114408   0.613   7.560   8.929
 4722WAT     H214409   0.725   7.559   9.048
 4723WAT      O14410   5.852   2.649   1.569
 4723WAT     H114411   5.912   2.659   1.490
 4723WAT     H214412   5.807   2.560   1.566
 4724WAT      O14413   6.909   5.572   1.994
 4724WAT     H114414   6.871   5.530   2.077
 4724WAT     H214415   6.990   5.522   1.966
 4725WAT      O14416   3.332   7.621   3.132
 4725WAT     H114417   3.357   7.698   3.072
 4725WAT     H214418   3.255   7.571   3.091
 4726WAT      O14419   2.257   6.510   2.598
 4726WAT     H114420   2.270   6.417   2.633
 4726WAT     H214421   2.268   6.576   2.673
 4727WAT      O14422   3.801   4.656   8.287
 4727WAT     H114423   3.798   4.558   8.306
 4727WAT     H214424   3.785   4.672   8.190
 4728WAT      O14425   0.780   1.078   3.700
 4728WAT     H114426   0.777   1.173   3.670
 4728WAT     H214427   0.696   1.056   3.749
 4729WAT      O14428   1.186   3.859   3.507
 4729WAT     H114429   1.176   3.932   3.575
 4729WAT     H214430   1.101   3.849   3.456
 4730WAT      O14431   5.306   9.639   6.746
 4730WAT     H114432   5.241   9.618   6.819
 4730WAT     H214433   5.365   9.715   6.774
 4731WAT      O14434   7.121   6.751   2.388
 4731WAT     H114435   7.148   6.783   2.297
 4731WAT     H214436   7.088   6.657   2.382
 4732WAT      O14437   3.371   1.794   9.243
 4732WAT     H114438   3.328   1.880   9.218
 4732WAT     H214439   3.458   1.784   9.194
 4733WAT      O14440   8.551   3.827   0.418
 4733WAT     H114441   8.627   3.763   0.407
 4733WAT     H214442   8.584   3.909   0.465
 4734WAT      O14443   5.104   8.445   2.860
 4734WAT     H114444   5.180   8.434   2.796
 4734WAT     H214445   5.023   8.399   2.824
 4735WAT      O14446   9.487   1.596   3.771
 4735WAT     H114447   9.564   1.558   3.721
 4735WAT     H214448   9.428   1.647   3.709
 4736WAT      O14449   6.195   8.542   1.908
 4736WAT     H114450   6.271   8.503   1.960
 4736WAT     H214451   6.226   8.567   1.817
 4737WAT      O14452   8.345   9.143   4.366
 4737WAT     H114453   8.258   9.095   4.358
 4737WAT     H214454   8.341   9.228   4.315
 4738WAT      O14455   0.181   6.807   0.252
 4738WAT     H114456   0.181   6.894   0.302
 4738WAT     H214457   0.119   6.814   0.174
 4739WAT      O14458   3.843   6.626   2.801
 4739WAT     H114459   3.836   6.714   2.848
 4739WAT     H214460   3.864   6.555   2.868
 4740WAT      O14461   1.329   6.419   7.151
 4740WAT     H114462   1.250   6.463   7.108
 4740WAT     H214463   1.402   6.486   7.164
 4741WAT      O14464   0.591   5.570   9.538
 4741WAT     H114465   0.527   5.642   9.512
 4741WAT     H214466   0.553   5.516   9.613
 4742WAT      O14467   2.534   6.807   2.802
 4742WAT     H114468   2.567   6.855   2.883
 4742WAT     H214469   2.606   6.746   2.768
 4743WAT      O14470   2.783   5.087   0.963
 4743WAT     H114471   2.708   5.049   0.909
 4743WAT     H214472   2.841   5.143   0.904
 4744WAT      O14473   2.083   9.350   0.034
 4744WAT     H114474   2.008   9.291   0.061
 4744WAT     H214475   2.086   9.430   0.094
 4745WAT      O14476   4.867   6.677   6.062
 4745WAT     H114477   4.918   6.763   6.061
 4745WAT     H214478   4.911   6.613   5.999
 4746WAT      O14479   7.255   7.668   1.294
 4746WAT     H114480   7.261   7.768   1.293
 4746WAT     H214481   7.324   7.631   1.357
 4747WAT      O14482   1.090   2.236   3.400
 4747WAT     H114483   1.079   2.318   3.342
 4747WAT     H214484   1.056   2.156   3.351
 4748WAT      O14485   2.746   0.064   3.536
 4748WAT     H114486   2.707  -0.024   3.563
 4748WAT     H214487   2.845   0.062   3.547
 4749WAT      O14488   8.595   6.047   5.176
 4749WAT     H114489   8.671   6.009   5.229
 4749WAT     H214490   8.611   6.030   5.078
 4750WAT      O14491   9.201   9.566   1.384
 4750WAT     H114492   9.149   9.579   1.300
 4750WAT     H214493   9.197   9.649   1.440
 4751WAT      O14494   5.316   8.772   3.620
 4751WAT     H114495   5.397   8.784   3.678
 4751WAT     H214496   5.343   8.725   3.536
 4752WAT      O14497   7.808   6.612   7.163
 4752WAT     H114498   7.749   6.579   7.237
 4752WAT     H214499   7.758   6.608   7.076
 4753WAT      O14500   3.782   1.211   1.881
 4753WAT     H114501   3.755   1.305   1.860
 4753WAT     H214502   3.790   1.200   1.980
 4754WAT      O14503   4.693   7.831   2.682
 4754WAT     H114504   4.717   7.817   2.778
 4754WAT     H214505   4.681   7.928   2.664
 4755WAT      O14506   2.241   7.156   6.436
 4755WAT     H114507   2.210   7.251   6.433
 4755WAT     H214508   2.339   7.154   6.456
 4756WAT      O14509   7.291   1.965   6.759
 4756WAT     H114510   7.380   1.921   6.763
 4756WAT     H214511   7.221   1.898   6.733
 4757WAT      O14512   5.438   0.843   4.954
 4757WAT     H114513   5.463   0.853   4.858
 4757WAT     H214514   5.375   0.916   4.980
 4758WAT      O14515   4.233   4.134   0.811
 4758WAT     H114516   4.163   4.180   0.866
 4758WAT     H214517   4.271   4.199   0.745
 4759WAT      O14518   2.544   6.229   1.238
 4759WAT     H114519   2.487   6.237   1.320
 4759WAT     H214520   2.596   6.143   1.242
 4760WAT      O14521   9.603   6.271   2.400
 4760WAT     H114522   9.605   6.327   2.483
 4760WAT     H214523   9.691   6.225   2.389
 4761WAT      O14524   3.929   1.469   4.388
 4761WAT     H114525   3.988   1.537   4.431
 4761WAT     H214526   3.967   1.444   4.299
 4762WAT      O14527   1.650   8.913   4.682
 4762WAT     H114528   1.648   9.013   4.683
 4762WAT     H214529   1.699   8.880   4.763
 4763WAT      O14530   0.712   5.020   3.634
 4763WAT     H114531   0.692   5.104   3.686
 4763WAT     H214532   0.798   5.031   3.585
 4764WAT      O14533   1.090   5.740   1.362
 4764WAT     H114534   1.105   5.837   1.344
 4764WAT     H214535   1.151   5.685   1.306
 4765WAT      O14536   7.743   9.659   9.754
 4765WAT     H114537   7.682   9.596   9.802
 4765WAT     H214538   7.768   9.620   9.665
 4766WAT      O14539   2.638   4.308   0.525
 4766WAT     H114540   2.683   4.225   0.492
 4766WAT     H214541   2.597   4.356   0.448
 4767WAT      O14542   3.764   3.976   5.067
 4767WAT     H114543   3.753   3.878   5.085
 4767WAT     H214544   3.718   4.000   4.982
 4768WAT      O14545   1.324   3.891   2.136
 4768WAT     H114546   1.247   3.924   2.191
 4768WAT     H214547   1.316   3.927   2.043
 4769WAT      O14548   3.797   0.057   6.578
 4769WAT     H114549   3.825   0.153   6.587
 4769WAT     H214550   3.740   0.031   6.656
 4770WAT      O14551   4.709   1.667   2.751
 4770WAT     H114552   4.693   1.748   2.695
 4770WAT     H214553   4.802   1.634   2.736
 4771WAT      O14554   2.467   4.941   4.641
 4771WAT     H114555   2.521   4.872   4.593
 4771WAT     H214556   2.521   5.025   4.651
 4772WAT      O14557   8.818   7.471   6.257
 4772WAT     H114558   8.770   7.554   6.229
 4772WAT     H214559   8.828   7.410   6.178
 4773WAT      O14560   6.701   7.080   7.531
 4773WAT     H114561   6.664   7.040   7.615
 4773WAT     H214562   6.625   7.116   7.475
 4774WAT      O14563   7.462   0.746   4.598
 4774WAT     H114564   7.489   0.827   4.545
 4774WAT     H214565   7.474   0.664   4.541
 4775WAT      O14566   0.052   0.513   6.155
 4775WAT     H114567   0.010   0.437   6.206
 4775WAT     H214568   0.032   0.502   6.058
 4776WAT      O14569   3.064   1.752   1.882
 4776WAT     H114570   3.095   1.658   1.869
 4776WAT     H214571   2.967   1.754   1.904
 4777WAT      O14572   1.509   5.649   6.953
 4777WAT     H114573   1.540   5.658   6.858
 4777WAT     H214574   1.509   5.553   6.980
 4778WAT      O14575   5.587   3.978   8.536
 4778WAT     H114576   5.682   3.974   8.567
 4778WAT     H214577   5.573   4.062   8.483
 4779WAT      O14578   1.637   1.099   7.030
 4779WAT     H114579   1.709   1.139   7.086
 4779WAT     H214580   1.620   1.005   7.060
 4780WAT      O14581   4.080   3.171   1.615
 4780WAT     H114582   4.054   3.260   1.654
 4780WAT     H214583   4.068   3.100   1.685
 4781WAT      O14584   4.834   9.647   9.821
 4781WAT     H114585   4.890   9.565   9.809
 4781WAT     H214586   4.738   9.622   9.824
 4782WAT      O14587   6.122   8.854   4.193
 4782WAT     H114588   6.198   8.792   4.178
 4782WAT     H214589   6.101   8.859   4.291
 4783WAT      O14590   9.690   3.443   2.050
 4783WAT     H114591   9.725   3.506   1.980
 4783WAT     H214592   9.742   3.454   2.134
 4784WAT      O14593   8.216   3.049   9.017
 4784WAT     H114594   8.224   3.001   9.105
 4784WAT     H214595   8.291   3.116   9.009
 4785WAT      O14596   1.063   0.426   3.237
 4785WAT     H114597   0.992   0.442   3.305
 4785WAT     H214598   1.151   0.415   3.282
 4786WAT      O14599   3.105   5.204   3.622
 4786WAT     H114600   3.102   5.302   3.605
 4786WAT     H214601   3.186   5.165   3.577
 4787WAT      O14602   8.203   4.258   1.466
 4787WAT     H114603   8.197   4.264   1.366
 4787WAT     H214604   8.261   4.332   1.500
 4788WAT      O14605   4.749   8.687   3.880
 4788WAT     H114606   4.659   8.731   3.885
 4788WAT     H214607   4.797   8.719   3.799
 4789WAT      O14608   6.794   0.914   6.621
 4789WAT     H114609   6.755   0.945   6.708
 4789WAT     H214610   6.764   0.973   6.547
 4790WAT      O14611   4.632   9.493   6.846
 4790WAT     H114612   4.602   9.516   6.939
 4790WAT     H214613   4.628   9.394   6.834
 4791WAT      O14614   5.797   6.965   0.483
 4791WAT     H114615   5.806   6.866   0.472
 4791WAT     H214616   5.737   7.002   0.413
 4792WAT      O14617   9.554   3.865   6.939
 4792WAT     H114618   9.626   3.800   6.914
 4792WAT     H214619   9.476   3.815   6.975
 4793WAT      O14620   2.833   2.724   7.744
 4793WAT     H114621   2.759   2.689   7.687
 4793WAT     H214622   2.821   2.822   7.759
 4794WAT      O14623   7.559   8.966   5.273
 4794WAT     H114624   7.648   8.942   5.233
 4794WAT     H214625   7.544   8.911   5.355
 4795WAT      O14626   2.571   0.761   2.657
 4795WAT     H114627   2.661   0.773   2.613
 4795WAT     H214628   2.502   0.748   2.586
 4796WAT      O14629   3.598   0.473   0.126
 4796WAT     H114630   3.669   0.541   0.144
 4796WAT     H214631   3.526   0.482   0.194
 4797WAT      O14632   8.469   2.390   2.797
 4797WAT     H114633   8.502   2.453   2.868
 4797WAT     H214634   8.452   2.300   2.837
 4798WAT      O14635   9.726   3.370   0.214
 4798WAT     H114636   9.654   3.439   0.216
 4798WAT     H214637   9.725   3.317   0.299
 4799WAT      O14638   3.227   0.379   2.460
 4799WAT     H114639   3.234   0.300   2.399
 4799WAT     H214640   3.314   0.428   2.461
 4800WAT      O14641   5.877   5.379   2.597
 4800WAT     H114642   5.843   5.376   2.503
 4800WAT     H214643   5.913   5.470   2.616
 4801WAT      O14644   2.628   7.544   1.199
 4801WAT     H114645   2.638   7.613   1.271
 4801WAT     H214646   2.569   7.579   1.127
 4802WAT      O14647   4.095   9.703   4.525
 4802WAT     H114648   4.113   9.605   4.537
 4802WAT     H214649   4.134   9.733   4.439
 4803WAT      O14650   1.903   8.324   2.214
 4803WAT     H114651   1.935   8.298   2.305
 4803WAT     H214652   1.938   8.415   2.192
 4804WAT      O14653   0.852   7.833   5.248
 4804WAT     H114654   0.916   7.880   5.187
 4804WAT     H214655   0.797   7.768   5.196
 4805WAT      O14656   7.625   7.085   9.109
 4805WAT     H114657   7.664   7.088   9.017
 4805WAT     H214658   7.645   6.996   9.151
 4806WAT      O14659   6.809   5.277   8.442
 4806WAT     H114660   6.825   5.285   8.541
 4806WAT     H214661   6.854   5.195   8.408
 4807WAT      O14662   9.619   8.437   8.135
 4807WAT     H114663   9.604   8.351   8.087
 4807WAT     H214664   9.705   8.432   8.187
 4808WAT      O14665   0.536   6.166   6.140
 4808WAT     H114666   0.567   6.242   6.197
 4808WAT     H214667   0.573   6.176   6.048
 4809WAT      O14668   2.918   0.445   2.997
 4809WAT     H114669   2.847   0.434   3.067
 4809WAT     H214670   2.997   0.388   3.019
 4810WAT      O14671   5.343   1.098   9.155
 4810WAT     H114672   5.319   1.118   9.060
 4810WAT     H214673   5.309   1.007   9.180
 4811WAT      O14674   7.745   0.223   3.295
 4811WAT     H114675   7.696   0.236   3.381
 4811WAT     H214676   7.751   0.126   3.274
 4812WAT      O14677   8.527   0.571   0.801
 4812WAT     H114678   8.448   0.528   0.844
 4812WAT     H214679   8.592   0.501   0.771
 4813WAT      O14680   5.362   6.492   7.636
 4813WAT     H114681   5.436   6.472   7.700
 4813WAT     H214682   5.336   6.588   7.643
 4814WAT      O14683   7.890   8.278   1.057
 4814WAT     H114684   7.922   8.224   0.979
 4814WAT     H214685   7.915   8.374   1.044
 4815WAT      O14686   4.452   7.990   6.897
 4815WAT     H114687   4.469   7.998   6.995
 4815WAT     H214688   4.354   8.000   6.879
 4816WAT      O14689   4.960   6.102   6.547
 4816WAT     H114690   5.035   6.038   6.561
 4816WAT     H214691   4.893   6.062   6.484
 4817WAT      O14692   3.186   2.181   7.257
 4817WAT     H114693   3.165   2.098   7.204
 4817WAT     H214694   3.285   2.195   7.256
 4818WAT      O14695   6.504   3.807   2.030
 4818WAT     H114696   6.501   3.763   1.940
 4818WAT     H214697   6.599   3.811   2.062
 4819WAT      O14698   4.296   0.677   4.168
 4819WAT     H114699   4.225   0.629   4.220
 4819WAT     H214700   4.357   0.724   4.231
 4820WAT      O14701   8.106   9.578   9.518
 4820WAT     H114702   8.046   9.555   9.441
 4820WAT     H214703   8.084   9.520   9.596
 4821WAT      O14704   6.692   0.813   8.691
 4821WAT     H114705   6.628   0.769   8.754
 4821WAT     H214706   6.724   0.746   8.624
 4822WAT      O14707   8.649   2.887   2.011
 4822WAT     H114708   8.562   2.923   1.978
 4822WAT     H214709   8.700   2.959   2.057
 4823WAT      O14710   5.674   7.172   5.083
 4823WAT     H114711   5.617   7.143   5.160
 4823WAT     H214712   5.669   7.104   5.010
 4824WAT      O14713   3.204   1.927   8.558
 4824WAT     H114714   3.132   1.864   8.586
 4824WAT     H214715   3.257   1.886   8.483
 4825WAT      O14716   2.845   2.434   2.270
 4825WAT     H114717   2.869   2.397   2.360
 4825WAT     H214718   2.750   2.412   2.249
 4826WAT      O14719   7.049   9.719   4.928
 4826WAT     H114720   7.103   9.635   4.932
 4826WAT     H214721   7.044   9.751   4.833
 4827WAT      O14722   0.817   2.072   6.473
 4827WAT     H114723   0.750   2.134   6.431
 4827WAT     H214724   0.877   2.035   6.402
 4828WAT      O14725   5.842   0.541   8.075
 4828WAT     H114726   5.749   0.565   8.103
 4828WAT     H214727   5.907   0.581   8.139
 4829WAT      O14728   2.729   6.454   8.073
 4829WAT     H114729   2.805   6.403   8.034
 4829WAT     H214730   2.655   6.460   8.006
 4830WAT      O14731   0.091   3.523   3.357
 4830WAT     H114732   0.036   3.606   3.348
 4830WAT     H214733   0.031   3.444   3.367
 4831WAT      O14734   9.809   5.971   9.585
 4831WAT     H114735   9.762   5.984   9.672
 4831WAT     H214736   9.905   5.995   9.595
 4832WAT      O14737   5.002   1.781   3.449
 4832WAT     H114738   4.964   1.808   3.537
 4832WAT     H214739   5.102   1.781   3.454
 4833WAT      O14740   9.644   6.819   1.096
 4833WAT     H114741   9.633   6.878   1.016
 4833WAT     H214742   9.652   6.876   1.178
 4834WAT      O14743   3.147   5.272   2.316
 4834WAT     H114744   3.159   5.250   2.220
 4834WAT     H214745   3.123   5.369   2.326
 4835WAT      O14746   8.691   6.511   6.442
 4835WAT     H114747   8.669   6.426   6.490
 4835WAT     H214748   8.608   6.546   6.397
 4836WAT      O14749   3.483   7.242   7.565
 4836WAT     H114750   3.527   7.175   7.625
 4836WAT     H214751   3.539   7.324   7.561
 4837WAT      O14752   8.541   5.653   5.220
 4837WAT     H114753   8.600   5.642   5.140
 4837WAT     H214754   8.446   5.662   5.190
 4838WAT      O14755   7.248   5.032   3.791
 4838WAT     H114756   7.195   4.948   3.790
 4838WAT     H214757   7.343   5.012   3.816
 4839WAT      O14758   5.203   7.721   1.240
 4839WAT     H114759   5.203   7.740   1.338
 4839WAT     H214760   5.226   7.624   1.226
 4840WAT      O14761   2.243   2.782   1.134
 4840WAT     H114762   2.201   2.779   1.043
 4840WAT     H214763   2.308   2.706   1.143
 4841WAT      O14764   9.857   3.432   8.393
 4841WAT     H114765   9.909   3.347   8.386
 4841WAT     H214766   9.760   3.410   8.408
 4842WAT      O14767   9.758   5.809   1.313
 4842WAT     H114768   9.756   5.712   1.285
 4842WAT     H214769   9.829   5.857   1.263
 4843WAT      O14770   1.807   0.463   3.738
 4843WAT     H114771   1.777   0.394   3.672
 4843WAT     H214772   1.861   0.419   3.809
 4844WAT      O14773   4.986   4.160   4.260
 4844WAT     H114774   4.921   4.139   4.333
 4844WAT     H214775   5.051   4.229   4.292
 4845WAT      O14776   0.468   8.222   5.638
 4845WAT     H114777   0.537   8.228   5.567
 4845WAT     H214778   0.466   8.130   5.677
 4846WAT      O14779   5.152   7.681   3.841
 4846WAT     H114780   5.090   7.753   3.813
 4846WAT     H214781   5.227   7.673   3.775
 4847WAT      O14782   1.494   9.277   5.469
 4847WAT     H114783   1.444   9.238   5.392
 4847WAT     H214784   1.514   9.205   5.535
 4848WAT      O14785   7.623   6.274   1.861
 4848WAT     H114786   7.644   6.367   1.891
 4848WAT     H214787   7.694   6.211   1.893
 4849WAT      O14788   5.556   8.377   6.344
 4849WAT     H114789   5.457   8.378   6.337
 4849WAT     H214790   5.590   8.471   6.354
 4850WAT      O14791   2.927   0.097   8.871
 4850WAT     H114792   2.834   0.130   8.884
 4850WAT     H214793   2.967   0.140   8.790
 4851WAT      O14794   8.074   5.685   5.763
 4851WAT     H114795   8.170   5.666   5.782
 4851WAT     H214796   8.016   5.623   5.816
 4852WAT      O14797   3.915   6.841   5.211
 4852WAT     H114798   3.900   6.742   5.215
 4852WAT     H214799   3.864   6.885   5.284
 4853WAT      O14800   7.793   8.107   8.303
 4853WAT     H114801   7.713   8.062   8.264
 4853WAT     H214802   7.771   8.201   8.329
 4854WAT      O14803   3.666   2.814   3.832
 4854WAT     H114804   3.633   2.720   3.822
 4854WAT     H214805   3.631   2.853   3.917
 4855WAT      O14806   5.050   5.984   2.698
 4855WAT     H114807   5.079   5.899   2.654
 4855WAT     H214808   5.096   5.993   2.786
 4856WAT      O14809   8.253   3.569   7.494
 4856WAT     H114810   8.183   3.521   7.546
 4856WAT     H214811   8.221   3.662   7.474
 4857WAT      O14812   2.361   4.181   1.397
 4857WAT     H114813   2.450   4.137   1.407
 4857WAT     H214814   2.291   4.111   1.383
 4858WAT      O14815   9.629   9.296   6.852
 4858WAT     H114816   9.551   9.299   6.915
 4858WAT     H214817   9.626   9.376   6.792
 4859WAT      O14818   1.714   7.119   8.367
 4859WAT     H114819   1.748   7.179   8.439
 4859WAT     H214820   1.775   7.041   8.357
 4860WAT      O14821   0.568   0.016   8.657
 4860WAT     H114822   0.647  -0.013   8.711
 4860WAT     H214823   0.588   0.103   8.613
 4861WAT      O14824   8.506   0.636   4.422
 4861WAT     H114825   8.416   0.675   4.403
 4861WAT     H214826   8.576   0.684   4.370
 4862WAT      O14827   9.496   4.509   9.667
 4862WAT     H114828   9.535   4.518   9.759
 4862WAT     H214829   9.399   4.531   9.670
 4863WAT      O14830   6.776   1.374   7.669
 4863WAT     H114831   6.773   1.377   7.769
 4863WAT     H214832   6.856   1.322   7.639
 4864WAT      O14833   1.505   4.622   2.791
 4864WAT     H114834   1.590   4.665   2.823
 4864WAT     H214835   1.513   4.603   2.693
 4865WAT      O14836   9.450   7.655   9.118
 4865WAT     H114837   9.397   7.627   9.198
 4865WAT     H214838   9.450   7.755   9.112
 4866WAT      O14839   2.360   4.064   2.277
 4866WAT     H114840   2.319   4.090   2.364
 4866WAT     H214841   2.297   4.087   2.202
 4867WAT      O14842   1.892   8.072   0.258
 4867WAT     H114843   1.935   8.143   0.204
 4867WAT     H214844   1.914   7.982   0.220
 4868WAT      O14845   3.511   6.936   3.091
 4868WAT     H114846   3.467   7.025   3.089
 4868WAT     H214847   3.484   6.883   3.010
 4869WAT      O14848   0.910   8.714   7.775
 4869WAT     H114849   0.860   8.798   7.752
 4869WAT     H214850   0.904   8.650   7.698
 4870WAT      O14851   7.947   4.021   5.772
 4870WAT     H114852   7.937   3.959   5.849
 4870WAT     H214853   8.015   3.985   5.708
 4871WAT      O14854   2.219   8.475   2.351
 4871WAT     H114855   2.306   8.485   2.302
 4871WAT     H214856   2.143   8.493   2.288
 4872WAT      O14857   0.517   2.051   8.919
 4872WAT     H114858   0.542   2.141   8.884
 4872WAT     H214859   0.447   2.060   8.989
 4873WAT      O14860   3.177   8.620   4.314
 4873WAT     H114861   3.248   8.550   4.313
 4873WAT     H214862   3.207   8.698   4.259
 4874WAT      O14863   3.115   4.228   1.126
 4874WAT     H114864   3.209   4.194   1.133
 4874WAT     H214865   3.112   4.304   1.061
 4875WAT      O14866   8.844   9.644   6.709
 4875WAT     H114867   8.839   9.644   6.809
 4875WAT     H214868   8.753   9.660   6.672
 4876WAT      O14869   4.461   4.167   5.506
 4876WAT     H114870   4.530   4.136   5.440
 4876WAT     H214871   4.457   4.103   5.583
 4877WAT      O14872   7.161   0.913   7.273
 4877WAT     H114873   7.190   0.892   7.180
 4877WAT     H214874   7.226   0.872   7.338
 4878WAT      O14875   8.087   0.542   4.294
 4878WAT     H114876   8.031   0.477   4.345
 4878WAT     H214877   8.029   0.611   4.251
 4879WAT      O14878   7.781   7.959   1.744
 4879WAT     H114879   7.801   8.019   1.822
 4879WAT     H214880   7.847   7.885   1.741
 4880WAT      O14881   4.276   6.620   0.896
 4880WAT     H114882   4.231   6.687   0.954
 4880WAT     H214883   4.334   6.561   0.953
 4881WAT      O14884   8.897   5.508   5.596
 4881WAT     H114885   8.867   5.530   5.503
 4881WAT     H214886   8.913   5.593   5.646
 4882WAT      O14887   2.477   5.026   6.685
 4882WAT     H114888   2.390   5.023   6.734
 4882WAT     H214889   2.550   4.990   6.744
 4883WAT      O14890   5.141   4.536   1.395
 4883WAT     H114891   5.118   4.521   1.299
 4883WAT     H214892   5.196   4.619   1.404
 4884WAT      O14893   5.870   8.533   4.127
 4884WAT     H114894   5.772   8.521   4.108
 4884WAT     H214895   5.888   8.628   4.152
 4885WAT      O14896   6.864   7.527   1.812
 4885WAT     H114897   6.784   7.556   1.864
 4885WAT     H214898   6.942   7.584   1.836
 4886WAT      O14899   7.823   9.609   1.801
 4886WAT     H114900   7.863   9.543   1.865
 4886WAT     H214901   7.724   9.615   1.816
 4887WAT      O14902   6.729   3.385   1.408
 4887WAT     H114903   6.820   3.367   1.445
 4887WAT     H214904   6.715   3.329   1.326
 4888WAT      O14905   8.462   1.388   4.189
 4888WAT     H114906   8.473   1.465   4.126
 4888WAT     H214907   8.428   1.421   4.277
 4889WAT      O14908   0.704   9.075   2.110
 4889WAT     H114909   0.742   9.018   2.038
 4889WAT     H214910   0.779   9.120   2.160
 4890WAT      O14911   4.560   3.301   4.286
 4890WAT     H114912   4.635   3.251   4.244
 4890WAT     H214913   4.595   3.384   4.330
 4891WAT      O14914   1.378   9.545   8.861
 4891WAT     H114915   1.417   9.617   8.805
 4891WAT     H214916   1.279   9.541   8.846
 4892WAT      O14917   6.108   0.481   2.540
 4892WAT     H114918   6.042   0.472   2.466
 4892WAT     H214919   6.061   0.478   2.628
 4893WAT      O14920   9.198   8.130   9.504
 4893WAT     H114921   9.219   8.062   9.575
 4893WAT     H214922   9.155   8.084   9.426
 4894WAT      O14923   6.934   3.971   0.372
 4894WAT     H114924   6.977   3.924   0.294
 4894WAT     H214925   6.900   3.903   0.437
 4895WAT      O14926   1.780   3.149   9.294
 4895WAT     H114927   1.797   3.105   9.206
 4895WAT     H214928   1.697   3.112   9.335
 4896WAT      O14929   5.198   3.397   8.192
 4896WAT     H114930   5.251   3.432   8.270
 4896WAT     H214931   5.240   3.429   8.107
 4897WAT      O14932   3.235   4.573   3.379
 4897WAT     H114933   3.273   4.598   3.290
 4897WAT     H214934   3.161   4.507   3.366
 4898WAT      O14935   9.412   4.150   7.143
 4898WAT     H114936   9.499   4.124   7.101
 4898WAT     H214937   9.336   4.117   7.088
 4899WAT      O14938   5.296   8.095   9.756
 4899WAT     H114939   5.338   8.148   9.830
 4899WAT     H214940   5.211   8.139   9.729
 4900WAT      O14941   8.964   1.887   2.919
 4900WAT     H114942   9.026   1.814   2.949
 4900WAT     H214943   9.016   1.954   2.865
 4901WAT      O14944   8.759   0.050   4.068
 4901WAT     H114945   8.812   0.133   4.081
 4901WAT     H214946   8.664   0.074   4.047
 4902WAT      O14947   2.408   6.948   0.994
 4902WAT     H114948   2.318   6.920   1.026
 4902WAT     H214949   2.478   6.915   1.058
 4903WAT      O14950   8.161   0.575   4.822
 4903WAT     H114951   8.065   0.547   4.812
 4903WAT     H214952   8.166   0.674   4.822
 4904WAT      O14953   8.236   0.498   2.269
 4904WAT     H114954   8.300   0.514   2.194
 4904WAT     H214955   8.280   0.442   2.339
 4905WAT      O14956   4.665   4.033   0.408
 4905WAT     H114957   4.620   4.106   0.356
 4905WAT     H214958   4.641   3.944   0.369
 4906WAT      O14959   6.352   5.553   8.483
 4906WAT     H114960   6.360   5.483   8.412
 4906WAT     H214961   6.402   5.635   8.454
 4907WAT      O14962   4.436   9.472   9.583
 4907WAT     H114963   4.451   9.571   9.589
 4907WAT     H214964   4.337   9.454   9.577
 4908WAT      O14965   6.477   9.681   0.806
 4908WAT     H114966   6.430   9.751   0.860
 4908WAT     H214967   6.466   9.592   0.850
 4909WAT      O14968   0.840   4.668   7.324
 4909WAT     H114969   0.873   4.709   7.239
 4909WAT     H214970   0.868   4.724   7.402
 4910WAT      O14971   2.367   6.907   5.363
 4910WAT     H114972   2.408   6.894   5.454
 4910WAT     H214973   2.366   6.820   5.314
 4911WAT      O14974   2.665   1.172   1.618
 4911WAT     H114975   2.649   1.077   1.594
 4911WAT     H214976   2.590   1.204   1.676
 4912WAT      O14977   4.556   0.881   5.689
 4912WAT     H114978   4.555   0.781   5.688
 4912WAT     H214979   4.588   0.913   5.779
 4913WAT      O14980   5.703   3.592   2.899
 4913WAT     H114981   5.647   3.604   2.981
 4913WAT     H214982   5.768   3.667   2.892
 4914WAT      O14983   2.075   8.561   3.924
 4914WAT     H114984   2.138   8.519   3.990
 4914WAT     H214985   2.096   8.658   3.915
 4915WAT      O14986   0.580   2.074   4.423
 4915WAT     H114987   0.510   2.109   4.361
 4915WAT     H214988   0.639   2.148   4.452
 4916WAT      O14989   1.527   3.938   8.199
 4916WAT     H114990   1.500   3.976   8.110
 4916WAT     H214991   1.491   3.845   8.207
 4917WAT      O14992   2.346   9.500   3.140
 4917WAT     H114993   2.399   9.470   3.219
 4917WAT     H214994   2.385   9.464   3.056
 4918WAT      O14995   5.242   9.368   2.304
 4918WAT     H114996   5.172   9.428   2.343
 4918WAT     H214997   5.270   9.300   2.372
 4919WAT      O14998   4.111   6.697   4.193
 4919WAT     H114999   4.164   6.640   4.132
 4919WAT     H215000   4.078   6.642   4.270
 4920WAT      O15001   7.039   7.075   2.040
 4920WAT     H115002   6.945   7.042   2.038
 4920WAT     H215003   7.043   7.167   2.002
 4921WAT      O15004   0.727   6.960   2.483
 4921WAT     H115005   0.720   7.026   2.558
 4921WAT     H215006   0.637   6.918   2.468
 4922WAT      O15007   1.288   9.013   1.928
 4922WAT     H115008   1.333   9.074   1.863
 4922WAT     H215009   1.354   8.947   1.963
 4923WAT      O15010   6.599   6.959   0.909
 4923WAT     H115011   6.525   6.931   0.848
 4923WAT     H215012   6.687   6.937   0.866
 4924WAT      O15013   4.653   7.108   4.438
 4924WAT     H115014   4.576   7.071   4.491
 4924WAT     H215015   4.620   7.148   4.353
 4925WAT      O15016   4.061   6.217   6.108
 4925WAT     H115017   4.137   6.168   6.066
 4925WAT     H215018   4.015   6.272   6.038
 4926WAT      O15019   1.753   7.284   8.941
 4926WAT     H115020   1.747   7.185   8.936
 4926WAT     H215021   1.849   7.312   8.929
 4927WAT      O15022   3.468   9.449   1.444
 4927WAT     H115023   3.538   9.520   1.443
 4927WAT     H215024   3.425   9.446   1.534
 4928WAT      O15025   8.005   9.571   4.273
 4928WAT     H115026   8.037   9.664   4.293
 4928WAT     H215027   7.971   9.567   4.179
 4929WAT      O15028   7.465   7.753   2.333
 4929WAT     H115029   7.509   7.732   2.420
 4929WAT     H215030   7.512   7.703   2.259
 4930WAT      O15031   5.515   7.359   5.732
 4930WAT     H115032   5.517   7.259   5.722
 4930WAT     H215033   5.527   7.383   5.828
 4931WAT      O15034   4.624   0.951   8.936
 4931WAT     H115035   4.626   0.863   8.983
 4931WAT     H215036   4.534   0.965   8.896
 4932WAT      O15037   0.537   8.019   8.496
 4932WAT     H115038   0.518   8.088   8.566
 4932WAT     H215039   0.494   7.933   8.522
 4933WAT      O15040   6.028   6.691   1.021
 4933WAT     H115041   5.932   6.676   1.043
 4933WAT     H215042   6.044   6.790   1.010
 4934WAT      O15043   0.604   6.034   0.868
 4934WAT     H115044   0.583   5.937   0.875
 4934WAT     H215045   0.563   6.083   0.945
 4935WAT      O15046   2.215   2.740   9.636
 4935WAT     H115047   2.185   2.782   9.550
 4935WAT     H215048   2.231   2.812   9.704
 4936WAT      O15049   3.668   4.589   8.789
 4936WAT     H115050   3.674   4.522   8.863
 4936WAT     H215051   3.653   4.543   8.702
 4937WAT      O15052   2.660   9.048   2.501
 4937WAT     H115053   2.593   9.111   2.540
 4937WAT     H215054   2.628   8.954   2.513
 4938WAT      O15055   4.706   0.524   9.246
 4938WAT     H115056   4.719   0.442   9.190
 4938WAT     H215057   4.640   0.503   9.319
 4939WAT      O15058   3.055   4.101   5.792
 4939WAT     H115059   3.102   4.078   5.706
 4939WAT     H215060   3.114   4.160   5.847
 4940WAT      O15061   2.879   1.110   7.509
 4940WAT     H115062   2.935   1.193   7.518
 4940WAT     H215063   2.917   1.051   7.439
 4941WAT      O15064   7.679   4.153   2.882
 4941WAT     H115065   7.609   4.097   2.927
 4941WAT     H215066   7.749   4.094   2.844
 4942WAT      O15067   5.354   0.523   6.883
 4942WAT     H115068   5.356   0.430   6.919
 4942WAT     H215069   5.266   0.540   6.838
 4943WAT      O15070   5.390   4.190   2.026
 4943WAT     H115071   5.397   4.178   2.125
 4943WAT     H215072   5.294   4.203   2.001
 4944WAT      O15073   5.838   3.995   8.589
 4944WAT     H115074   5.883   4.067   8.537
 4944WAT     H215075   5.906   3.931   8.624
 4945WAT      O15076   4.344   2.435   3.469
 4945WAT     H115077   4.300   2.511   3.421
 4945WAT     H215078   4.439   2.459   3.489
 4946WAT      O15079   7.220   8.404   9.832
 4946WAT     H115080   7.238   8.434   9.738
 4946WAT     H215081   7.175   8.315   9.831
 4947WAT      O15082   2.095   5.448   2.271
 4947WAT     H115083   2.150   5.368   2.294
 4947WAT     H215084   2.136   5.495   2.192
 4948WAT      O15085   7.512   2.909   3.656
 4948WAT     H115086   7.490   2.989   3.711
 4948WAT     H215087   7.505   2.932   3.559
 4949WAT      O15088   2.419   7.913   7.116
 4949WAT     H115089   2.379   7.860   7.041
 4949WAT     H215090   2.519   7.913   7.107
 4950WAT      O15091   4.120   2.150   5.468
 4950WAT     H115092   4.107   2.211   5.546
 4950WAT     H215093   4.163   2.200   5.393
 4951WAT      O15094   3.118   5.316   8.276
 4951WAT     H115095   3.034   5.303   8.329
 4951WAT     H215096   3.195   5.328   8.338
 4952WAT      O15097   8.203   6.745   7.211
 4952WAT     H115098   8.296   6.742   7.174
 4952WAT     H215099   8.137   6.740   7.136
 4953WAT      O15100   8.674   8.877   7.100
 4953WAT     H115101   8.679   8.883   7.000
 4953WAT     H215102   8.766   8.879   7.138
 4954WAT      O15103   5.007   1.532   9.636
 4954WAT     H115104   4.946   1.494   9.705
 4954WAT     H215105   5.064   1.459   9.599
 4955WAT      O15106   5.580   5.074   8.734
 4955WAT     H115107   5.496   5.058   8.682
 4955WAT     H215108   5.587   5.006   8.807
 4956WAT      O15109   6.998   6.990   9.227
 4956WAT     H115110   6.933   6.927   9.184
 4956WAT     H215111   7.059   7.027   9.158
 4957WAT      O15112   1.835   2.460   7.169
 4957WAT     H115113   1.850   2.545   7.220
 4957WAT     H215114   1.906   2.394   7.193
 4958WAT      O15115   3.158   7.785   4.726
 4958WAT     H115116   3.126   7.810   4.817
 4958WAT     H215117   3.106   7.707   4.693
 4959WAT      O15118   0.535   5.707   7.104
 4959WAT     H115119   0.476   5.788   7.111
 4959WAT     H215120   0.602   5.721   7.031
 4960WAT      O15121   7.959   6.905   4.744
 4960WAT     H115122   7.950   7.002   4.722
 4960WAT     H215123   8.053   6.884   4.767
 4961WAT      O15124   1.373   5.841   4.800
 4961WAT     H115125   1.290   5.794   4.772
 4961WAT     H215126   1.359   5.882   4.891
 4962WAT      O15127   7.104   3.084   6.724
 4962WAT     H115128   7.089   3.124   6.815
 4962WAT     H215129   7.137   2.990   6.735
 4963WAT      O15130   3.414   4.123   5.421
 4963WAT     H115131   3.436   4.219   5.405
 4963WAT     H215132   3.471   4.065   5.363
 4964WAT      O15133   8.422   3.209   1.258
 4964WAT     H115134   8.504   3.215   1.316
 4964WAT     H215135   8.401   3.299   1.221
 4965WAT      O15136   2.480   0.047   1.231
 4965WAT     H115137   2.521   0.138   1.230
 4965WAT     H215138   2.478   0.011   1.138
 4966WAT      O15139   3.995   2.643   0.873
 4966WAT     H115140   4.084   2.616   0.836
 4966WAT     H215141   3.931   2.568   0.863
 4967WAT      O15142   5.289   8.541   8.920
 4967WAT     H115143   5.255   8.579   8.834
 4967WAT     H215144   5.311   8.616   8.983
 4968WAT      O15145   9.506   6.038   2.084
 4968WAT     H115146   9.460   6.124   2.066
 4968WAT     H215147   9.445   5.977   2.134
 4969WAT      O15148   3.064   9.784   0.184
 4969WAT     H115149   3.047   9.877   0.217
 4969WAT     H215150   3.004   9.720   0.233
 4970WAT      O15151   2.933   0.470   4.643
 4970WAT     H115152   2.900   0.538   4.708
 4970WAT     H215153   2.982   0.398   4.693
 4971WAT      O15154   9.519   6.191   5.863
 4971WAT     H115155   9.423   6.190   5.837
 4971WAT     H215156   9.550   6.285   5.875
 4972WAT      O15157   7.309   2.617   1.867
 4972WAT     H115158   7.260   2.687   1.920
 4972WAT     H215159   7.350   2.660   1.787
 4973WAT      O15160   6.295   2.615   5.114
 4973WAT     H115161   6.234   2.662   5.050
 4973WAT     H215162   6.299   2.667   5.199
 4974WAT      O15163   8.270   8.292   7.582
 4974WAT     H115164   8.358   8.303   7.628
 4974WAT     H215165   8.244   8.196   7.581
 4975WAT      O15166   1.552   4.925   8.951
 4975WAT     H115167   1.608   4.979   8.889
 4975WAT     H215168   1.578   4.828   8.943
 4976WAT      O15169   3.379   9.138   8.000
 4976WAT     H115170   3.375   9.039   7.984
 4976WAT     H215171   3.298   9.167   8.051
 4977WAT      O15172   7.845   3.793   6.254
 4977WAT     H115173   7.746   3.786   6.258
 4977WAT     H215174   7.886   3.713   6.299
 4978WAT      O15175   0.242   7.194   2.816
 4978WAT     H115176   0.165   7.156   2.868
 4978WAT     H215177   0.328   7.172   2.862
 4979WAT      O15178   9.344   7.181   3.212
 4979WAT     H115179   9.418   7.115   3.222
 4979WAT     H215180   9.310   7.179   3.118
 4980WAT      O15181   0.669   7.916   2.009
 4980WAT     H115182   0.767   7.917   1.988
 4980WAT     H215183   0.626   7.996   1.967
 4981WAT      O15184   8.369   5.893   0.995
 4981WAT     H115185   8.305   5.819   1.017
 4981WAT     H215186   8.338   5.978   1.038
 4982WAT      O15187   2.272   3.129   4.790
 4982WAT     H115188   2.310   3.170   4.707
 4982WAT     H215189   2.286   3.191   4.867
 4983WAT      O15190   4.106   1.903   1.682
 4983WAT     H115191   4.089   1.986   1.628
 4983WAT     H215192   4.125   1.929   1.777
 4984WAT      O15193   6.830   6.867   9.577
 4984WAT     H115194   6.760   6.938   9.576
 4984WAT     H215195   6.796   6.785   9.530
 4985WAT      O15196   2.758   4.504   5.964
 4985WAT     H115197   2.679   4.528   6.021
 4985WAT     H215198   2.798   4.418   5.997
 4986WAT      O15199   3.865   9.393   3.833
 4986WAT     H115200   3.837   9.489   3.845
 4986WAT     H215201   3.792   9.333   3.865
 4987WAT      O15202   6.872   8.342   9.577
 4987WAT     H115203   6.843   8.283   9.652
 4987WAT     H215204   6.848   8.437   9.598
 4988WAT      O15205   7.598   8.991   3.070
 4988WAT     H115206   7.503   9.020   3.077
 4988WAT     H215207   7.603   8.891   3.069
 4989WAT      O15208   8.685   8.899   1.942
 4989WAT     H115209   8.715   8.887   1.847
 4989WAT     H215210   8.733   8.978   1.982
 4990WAT      O15211   3.259   6.424   2.971
 4990WAT     H115212   3.340   6.453   3.022
 4990WAT     H215213   3.280   6.339   2.922
 4991WAT      O15214   5.431   4.977   1.421
 4991WAT     H115215   5.435   5.074   1.445
 4991WAT     H215216   5.446   4.922   1.503
 4992WAT      O15217   2.339   0.895   0.259
 4992WAT     H115218   2.253   0.849   0.238
 4992WAT     H215219   2.324   0.962   0.331
 4993WAT      O15220   6.750   6.623   4.542
 4993WAT     H115221   6.697   6.691   4.594
 4993WAT     H215222   6.758   6.654   4.447
 4994WAT      O15223   0.262   5.733   9.601
 4994WAT     H115224   0.240   5.697   9.510
 4994WAT     H215225   0.206   5.814   9.619
 4995WAT      O15226   0.253   6.759   5.452
 4995WAT     H115227   0.351   6.764   5.469
 4995WAT     H215228   0.213   6.688   5.509
 4996WAT      O15229   9.135   7.192   8.682
 4996WAT     H115230   9.087   7.220   8.598
 4996WAT     H215231   9.077   7.129   8.734
 4997WAT      O15232   0.678   3.675   3.232
 4997WAT     H115233   0.738   3.720   3.299
 4997WAT     H215234   0.586   3.712   3.240
 4998WAT      O15235   0.669   7.274   1.182
 4998WAT     H115236   0.735   7.278   1.107
 4998WAT     H215237   0.616   7.359   1.184
 4999WAT      O15238   8.141   1.141   0.848
 4999WAT     H115239   8.119   1.171   0.756
 4999WAT     H215240   8.072   1.076   0.879
 5000WAT      O15241   7.269   7.663   5.453
 5000WAT     H115242   7.247   7.709   5.367
 5000WAT     H215243   7.332   7.720   5.506
 5001WAT      O15244   4.135   0.690   3.936
 5001WAT     H115245   4.182   0.674   4.022
 5001WAT     H215246   4.078   0.772   3.944
 5002WAT      O15247   1.556   5.706   4.035
 5002WAT     H115248   1.559   5.671   3.942
 5002WAT     H215249   1.498   5.788   4.039
 5003WAT      O15250   0.725   1.923   2.744
 5003WAT     H115251   0.654   1.875   2.794
 5003WAT     H215252   0.813   1.913   2.791
 5004WAT      O15253   2.142   5.847   2.020
 5004WAT     H115254   2.234   5.811   2.037
 5004WAT     H215255   2.099   5.869   2.107
 5005WAT      O15256   2.799   0.085   4.964
 5005WAT     H115257   2.756   0.169   4.997
 5005WAT     H215258   2.831   0.031   5.043
 5006WAT      O15259   6.770   7.310   0.612
 5006WAT     H115260   6.810   7.247   0.679
 5006WAT     H215261   6.843   7.353   0.560
 5007WAT      O15262   5.484   6.234   6.638
 5007WAT     H115263   5.406   6.282   6.598
 5007WAT     H215264   5.453   6.150   6.682
 5008WAT      O15265   4.568   0.982   0.362
 5008WAT     H115266   4.607   1.018   0.277
 5008WAT     H215267   4.479   1.026   0.379
 5009WAT      O15268   9.467   7.526   1.770
 5009WAT     H115269   9.506   7.611   1.805
 5009WAT     H215270   9.513   7.501   1.684
 5010WAT      O15271   1.590   3.071   4.322
 5010WAT     H115272   1.618   2.985   4.279
 5010WAT     H215273   1.613   3.148   4.263
 5011WAT      O15274   2.555   9.600   8.218
 5011WAT     H115275   2.467   9.592   8.265
 5011WAT     H215276   2.581   9.512   8.178
 5012WAT      O15277   5.948   4.207   0.339
 5012WAT     H115278   5.980   4.284   0.393
 5012WAT     H215279   5.901   4.240   0.257
 5013WAT      O15280   2.638   4.957   9.271
 5013WAT     H115281   2.689   5.028   9.223
 5013WAT     H215282   2.695   4.915   9.341
 5014WAT      O15283   3.908   4.539   1.579
 5014WAT     H115284   3.951   4.628   1.560
 5014WAT     H215285   3.840   4.551   1.652
 5015WAT      O15286   5.801   2.202   5.191
 5015WAT     H115287   5.706   2.221   5.165
 5015WAT     H215288   5.803   2.147   5.275
 5016WAT      O15289   0.846   3.574   8.366
 5016WAT     H115290   0.856   3.669   8.395
 5016WAT     H215291   0.772   3.566   8.300
 5017WAT      O15292   8.107   2.576   6.950
 5017WAT     H115293   8.042   2.523   6.896
 5017WAT     H215294   8.061   2.655   6.991
 5018WAT      O15295   0.585   4.008   3.115
 5018WAT     H115296   0.506   3.996   3.175
 5018WAT     H215297   0.566   4.078   3.047
 5019WAT      O15298   5.675   0.145   5.629
 5019WAT     H115299   5.673   0.079   5.704
 5019WAT     H215300   5.770   0.167   5.608
 5020WAT      O15301   4.028   1.597   5.305
 5020WAT     H115302   4.124   1.586   5.332
 5020WAT     H215303   3.984   1.507   5.303
 5021WAT      O15304   9.427   4.252   5.731
 5021WAT     H115305   9.354   4.318   5.712
 5021WAT     H215306   9.512   4.302   5.752
 5022WAT      O15307   2.710   0.084   1.598
 5022WAT     H115308   2.769   0.155   1.560
 5022WAT     H215309   2.731  -0.003   1.554
 5023WAT      O15310   6.047   8.465   3.293
 5023WAT     H115311   6.110   8.441   3.368
 5023WAT     H215312   5.969   8.403   3.294
 5024WAT      O15313   2.020   6.394   2.995
 5024WAT     H115314   2.047   6.351   3.081
 5024WAT     H215315   2.025   6.326   2.922
 5025WAT      O15316   2.142   7.912   1.926
 5025WAT     H115317   2.087   7.993   1.943
 5025WAT     H215318   2.169   7.870   2.013
 5026WAT      O15319   4.278   0.736   9.481
 5026WAT     H115320   4.344   0.661   9.481
 5026WAT     H215321   4.199   0.711   9.538
 5027WAT      O15322   8.653   7.555   2.753
 5027WAT     H115323   8.572   7.558   2.812
 5027WAT     H215324   8.699   7.467   2.764
 5028WAT      O15325   8.466   1.586   8.745
 5028WAT     H115326   8.432   1.534   8.823
 5028WAT     H215327   8.390   1.607   8.683
 5029WAT      O15328   7.539   2.770   1.004
 5029WAT     H115329   7.466   2.765   1.071
 5029WAT     H215330   7.512   2.830   0.929
 5030WAT      O15331   3.112   2.367   0.751
 5030WAT     H115332   3.152   2.278   0.772
 5030WAT     H215333   3.180   2.439   0.771
 5031WAT      O15334   5.845   4.073   2.005
 5031WAT     H115335   5.830   4.144   1.936
 5031WAT     H215336   5.802   4.101   2.091
 5032WAT      O15337   4.588   3.176   4.577
 5032WAT     H115338   4.530   3.243   4.531
 5032WAT     H215339   4.680   3.214   4.590
 5033WAT      O15340   9.101   5.244   2.381
 5033WAT     H115341   9.052   5.179   2.322
 5033WAT     H215342   9.155   5.194   2.448
 5034WAT      O15343   7.839   3.796   5.268
 5034WAT     H115344   7.754   3.813   5.218
 5034WAT     H215345   7.857   3.698   5.273
 5035WAT      O15346   5.941   4.165   6.850
 5035WAT     H115347   6.030   4.121   6.837
 5035WAT     H215348   5.914   4.210   6.765
 5036WAT      O15349   9.618   4.488   6.117
 5036WAT     H115350   9.519   4.498   6.129
 5036WAT     H215351   9.665   4.549   6.181
 5037WAT      O15352   1.444   8.784   0.423
 5037WAT     H115353   1.442   8.768   0.521
 5037WAT     H215354   1.535   8.763   0.387
 5038WAT      O15355   7.097   8.425   2.748
 5038WAT     H115356   7.171   8.371   2.789
 5038WAT     H215357   7.101   8.416   2.648
 5039WAT      O15358   2.946   8.320   3.622
 5039WAT     H115359   3.044   8.312   3.603
 5039WAT     H215360   2.893   8.278   3.549
 5040WAT      O15361   7.355   4.993   6.902
 5040WAT     H115362   7.375   4.984   6.804
 5040WAT     H215363   7.414   4.932   6.954
 5041WAT      O15364   4.967   6.433   6.381
 5041WAT     H115365   4.868   6.436   6.372
 5041WAT     H215366   5.005   6.523   6.358
 5042WAT      O15367   2.195   2.766   5.709
 5042WAT     H115368   2.250   2.843   5.743
 5042WAT     H215369   2.224   2.682   5.756
 5043WAT      O15370   0.232   9.484   9.066
 5043WAT     H115371   0.195   9.490   9.159
 5043WAT     H215372   0.158   9.486   9.000
 5044WAT      O15373   3.223   1.654   2.801
 5044WAT     H115374   3.248   1.748   2.777
 5044WAT     H215375   3.216   1.599   2.718
 5045WAT      O15376   7.719   7.286   3.855
 5045WAT     H115377   7.771   7.341   3.790
 5045WAT     H215378   7.754   7.300   3.947
 5046WAT      O15379   2.287   1.225   7.426
 5046WAT     H115380   2.309   1.268   7.514
 5046WAT     H215381   2.201   1.262   7.392
 5047WAT      O15382   1.507   2.421   4.808
 5047WAT     H115383   1.435   2.410   4.876
 5047WAT     H215384   1.569   2.342   4.811
 5048WAT      O15385   7.422   9.433   8.964
 5048WAT     H115386   7.349   9.367   8.948
 5048WAT     H215387   7.413   9.472   9.055
 5049WAT      O15388   3.012   3.287   7.619
 5049WAT     H115389   2.961   3.354   7.564
 5049WAT     H215390   3.073   3.335   7.681
 5050WAT      O15391   4.734   8.126   3.893
 5050WAT     H115392   4.704   8.042   3.939
 5050WAT     H215393   4.787   8.102   3.811
 5051WAT      O15394   0.080   2.954   5.830
 5051WAT     H115395   0.163   2.914   5.791
 5051WAT     H215396   0.104   3.040   5.876
 5052WAT      O15397   4.780   9.017   8.285
 5052WAT     H115398   4.764   8.997   8.381
 5052WAT     H215399   4.719   8.962   8.228
 5053WAT      O15400   9.795   6.085   6.546
 5053WAT     H115401   9.775   6.103   6.450
 5053WAT     H215402   9.716   6.042   6.589
 5054WAT      O15403   7.765   3.862   3.306
 5054WAT     H115404   7.863   3.878   3.296
 5054WAT     H215405   7.725   3.938   3.358
 5055WAT      O15406   6.553   9.310   9.007
 5055WAT     H115407   6.615   9.307   8.928
 5055WAT     H215408   6.459   9.313   8.975
 5056WAT      O15409   1.258   6.992   4.056
 5056WAT     H115410   1.330   7.056   4.083
 5056WAT     H215411   1.295   6.926   3.990
 5057WAT      O15412   5.337   9.489   9.781
 5057WAT     H115413   5.288   9.425   9.840
 5057WAT     H215414   5.306   9.582   9.800
 5058WAT      O15415   3.662   7.847   7.545
 5058WAT     H115416   3.581   7.893   7.508
 5058WAT     H215417   3.713   7.805   7.471
 5059WAT      O15418   5.818   0.005   5.151
 5059WAT     H115419   5.758  -0.058   5.200
 5059WAT     H215420   5.882   0.048   5.215
 5060WAT      O15421   8.970   8.960   1.120
 5060WAT     H115422   8.959   9.055   1.147
 5060WAT     H215423   8.887   8.929   1.072
 5061WAT      O15424   2.247   2.004   9.632
 5061WAT     H115425   2.227   1.934   9.563
 5061WAT     H215426   2.165   2.059   9.648
 5062WAT      O15427   4.972   0.279   0.211
 5062WAT     H115428   5.042   0.208   0.209
 5062WAT     H215429   4.968   0.320   0.303
 5063WAT      O15430   8.422   7.270   9.333
 5063WAT     H115431   8.345   7.331   9.311
 5063WAT     H215432   8.393   7.175   9.322
 5064WAT      O15433   4.233   9.192   1.055
 5064WAT     H115434   4.245   9.268   1.119
 5064WAT     H215435   4.175   9.122   1.096
 5065WAT      O15436   4.014   8.547   7.742
 5065WAT     H115437   3.951   8.470   7.730
 5065WAT     H215438   3.971   8.631   7.711
 5066WAT      O15439   1.770   5.022   0.672
 5066WAT     H115440   1.725   4.974   0.596
 5066WAT     H215441   1.843   5.080   0.636
 5067WAT      O15442   4.617   5.500   1.557
 5067WAT     H115443   4.582   5.593   1.548
 5067WAT     H215444   4.576   5.443   1.485
 5068WAT      O15445   6.274   0.020   9.677
 5068WAT     H115446   6.358   0.026   9.730
 5068WAT     H215447   6.241  -0.075   9.677
 5069WAT      O15448   9.568   1.222   7.414
 5069WAT     H115449   9.518   1.306   7.393
 5069WAT     H215450   9.534   1.184   7.500
 5070WAT      O15451   7.787   3.671   0.580
 5070WAT     H115452   7.868   3.689   0.524
 5070WAT     H215453   7.796   3.581   0.623
 5071WAT      O15454   7.469   1.142   0.449
 5071WAT     H115455   7.492   1.236   0.423
 5071WAT     H215456   7.550   1.085   0.443
 5072WAT      O15457   9.351   1.348   6.250
 5072WAT     H115458   9.350   1.441   6.212
 5072WAT     H215459   9.393   1.285   6.184
 5073WAT      O15460   6.638   7.919   0.179
 5073WAT     H115461   6.574   7.976   0.127
 5073WAT     H215462   6.590   7.840   0.217
 5074WAT      O15463   2.677   8.055   3.575
 5074WAT     H115464   2.698   8.119   3.502
 5074WAT     H215465   2.693   7.961   3.543
 5075WAT      O15466   0.216   0.221   9.357
 5075WAT     H115467   0.200   0.146   9.293
 5075WAT     H215468   0.253   0.184   9.443
 5076WAT      O15469   3.894   7.771   9.277
 5076WAT     H115470   3.886   7.869   9.295
 5076WAT     H215471   3.806   7.727   9.292
 5077WAT      O15472   1.828   0.744   8.391
 5077WAT     H115473   1.855   0.794   8.473
 5077WAT     H215474   1.749   0.687   8.411
 5078WAT      O15475   1.750   1.623   4.013
 5078WAT     H115476   1.774   1.660   4.103
 5078WAT     H215477   1.810   1.662   3.944
 5079WAT      O15478   6.454   3.799   4.385
 5079WAT     H115479   6.551   3.788   4.364
 5079WAT     H215480   6.404   3.819   4.300
 5080WAT      O15481   1.271   2.637   7.175
 5080WAT     H115482   1.349   2.620   7.115
 5080WAT     H215483   1.291   2.604   7.267
 5081WAT      O15484   2.207   4.581   1.823
 5081WAT     H115485   2.295   4.589   1.777
 5081WAT     H215486   2.170   4.489   1.808
 5082WAT      O15487   2.947   2.448   4.511
 5082WAT     H115488   3.024   2.511   4.511
 5082WAT     H215489   2.953   2.387   4.590
 5083WAT      O15490   6.857   8.285   7.596
 5083WAT     H115491   6.855   8.191   7.560
 5083WAT     H215492   6.948   8.304   7.633
 5084WAT      O15493   4.302   1.436   9.334
 5084WAT     H115494   4.333   1.413   9.426
 5084WAT     H215495   4.375   1.482   9.284
 5085WAT      O15496   5.994   8.117   1.550
 5085WAT     H115497   5.974   8.157   1.461
 5085WAT     H215498   6.013   8.190   1.616
 5086WAT      O15499   0.745   5.428   1.121
 5086WAT     H115500   0.826   5.370   1.125
 5086WAT     H215501   0.772   5.522   1.098
 5087WAT      O15502   7.871   0.150   0.924
 5087WAT     H115503   7.869   0.085   1.000
 5087WAT     H215504   7.799   0.218   0.937
 5088WAT      O15505   1.921   1.849   5.418
 5088WAT     H115506   1.994   1.888   5.361
 5088WAT     H215507   1.949   1.852   5.514
 5089WAT      O15508   3.065   1.450   9.645
 5089WAT     H115509   2.984   1.407   9.685
 5089WAT     H215510   3.077   1.542   9.684
 5090WAT      O15511   7.113   6.961   0.320
 5090WAT     H115512   7.074   7.034   0.264
 5090WAT     H215513   7.197   6.928   0.279
 5091WAT      O15514   3.837   1.999   5.291
 5091WAT     H115515   3.841   2.085   5.342
 5091WAT     H215516   3.757   1.947   5.320
 5092WAT      O15517   4.913   5.085   8.602
 5092WAT     H115518   4.817   5.107   8.585
 5092WAT     H215519   4.921   5.040   8.691
 5093WAT      O15520   6.088   2.098   4.145
 5093WAT     H115521   6.026   2.024   4.119
 5093WAT     H215522   6.164   2.102   4.080
 5094WAT      O15523   3.508   8.861   6.162
 5094WAT     H115524   3.508   8.835   6.258
 5094WAT     H215525   3.553   8.950   6.151
 5095WAT      O15526   7.261   8.379   6.697
 5095WAT     H115527   7.326   8.323   6.748
 5095WAT     H215528   7.302   8.408   6.610
 5096WAT      O15529   4.878   8.313   2.716
 5096WAT     H115530   4.854   8.238   2.655
 5096WAT     H215531   4.800   8.335   2.775
 5097WAT      O15532   5.354   8.609   4.994
 5097WAT     H115533   5.404   8.523   5.000
 5097WAT     H215534   5.290   8.616   5.070
 5098WAT      O15535   3.737   8.328   7.545
 5098WAT     H115536   3.699   8.275   7.469
 5098WAT     H215537   3.821   8.284   7.578
 5099WAT      O15538   1.738   1.168   5.751
 5099WAT     H115539   1.740   1.193   5.654
 5099WAT     H215540   1.647   1.189   5.788
 5100WAT      O15541   9.441   7.011   7.664
 5100WAT     H115542   9.526   6.993   7.615
 5100WAT     H215543   9.366   7.022   7.599
 5101WAT      O15544   3.626   0.577   4.342
 5101WAT     H115545   3.621   0.622   4.431
 5101WAT     H215546   3.539   0.533   4.321
 5102WAT      O15547   0.496   9.345   2.699
 5102WAT     H115548   0.398   9.326   2.687
 5102WAT     H215549   0.509   9.398   2.783
 5103WAT      O15550   4.246   0.278   4.105
 5103WAT     H115551   4.162   0.323   4.075
 5103WAT     H215552   4.326   0.331   4.075
 5104WAT      O15553   4.104   7.390   3.373
 5104WAT     H115554   4.175   7.418   3.308
 5104WAT     H215555   4.019   7.440   3.353
 5105WAT      O15556   3.103   0.455   1.788
 5105WAT     H115557   3.080   0.358   1.781
 5105WAT     H215558   3.037   0.500   1.848
 5106WAT      O15559   6.426   6.485   9.729
 5106WAT     H115560   6.510   6.534   9.756
 5106WAT     H215561   6.450   6.408   9.670
 5107WAT      O15562   2.646   7.377   2.807
 5107WAT     H115563   2.642   7.317   2.727
 5107WAT     H215564   2.615   7.326   2.888
 5108WAT      O15565   4.923   3.420   0.321
 5108WAT     H115566   4.887   3.493   0.262
 5108WAT     H215567   4.911   3.332   0.274
 5109WAT      O15568   4.617   9.420   3.286
 5109WAT     H115569   4.524   9.436   3.252
 5109WAT     H215570   4.682   9.432   3.211
 5110WAT      O15571   6.780   7.220   6.072
 5110WAT     H115572   6.857   7.223   6.136
 5110WAT     H215573   6.694   7.227   6.123
 5111WAT      O15574   0.579   3.643   5.655
 5111WAT     H115575   0.641   3.640   5.733
 5111WAT     H215576   0.591   3.729   5.606
 5112WAT      O15577   6.623   0.935   7.579
 5112WAT     H115578   6.554   1.002   7.555
 5112WAT     H215579   6.656   0.951   7.672
 5113WAT      O15580   5.045   5.739   0.121
 5113WAT     H115581   5.112   5.688   0.067
 5113WAT     H215582   4.972   5.677   0.150
 5114WAT      O15583   4.819   0.991   4.776
 5114WAT     H115584   4.787   1.063   4.838
 5114WAT     H215585   4.741   0.950   4.729
 5115WAT      O15586   7.190   5.155   5.905
 5115WAT     H115587   7.146   5.067   5.890
 5115WAT     H215588   7.137   5.227   5.860
 5116WAT      O15589   8.388   8.262   2.984
 5116WAT     H115590   8.483   8.282   3.011
 5116WAT     H215591   8.352   8.339   2.931
 5117WAT      O15592   8.139   9.182   9.805
 5117WAT     H115593   8.219   9.123   9.810
 5117WAT     H215594   8.074   9.146   9.737
 5118WAT      O15595   6.233   8.530   1.639
 5118WAT     H115596   6.154   8.469   1.647
 5118WAT     H215597   6.225   8.585   1.556
 5119WAT      O15598   7.418   8.490   3.894
 5119WAT     H115599   7.516   8.477   3.879
 5119WAT     H215600   7.404   8.568   3.955
 5120WAT      O15601   5.530   8.429   8.663
 5120WAT     H115602   5.471   8.358   8.701
 5120WAT     H215603   5.476   8.490   8.604
 5121WAT      O15604   0.963   2.160   9.001
 5121WAT     H115605   1.012   2.183   9.085
 5121WAT     H215606   0.950   2.242   8.945
 5122WAT      O15607   8.954   4.889   8.537
 5122WAT     H115608   8.942   4.818   8.466
 5122WAT     H215609   9.006   4.851   8.613
 5123WAT      O15610   1.073   9.333   8.344
 5123WAT     H115611   1.023   9.247   8.349
 5123WAT     H215612   1.128   9.344   8.427
 5124WAT      O15613   3.664   8.787   3.097
 5124WAT     H115614   3.622   8.810   3.185
 5124WAT     H215615   3.599   8.807   3.023
 5125WAT      O15616   2.750   5.804   7.678
 5125WAT     H115617   2.732   5.751   7.760
 5125WAT     H215618   2.668   5.806   7.620
 5126WAT      O15619   8.057   2.451   1.837
 5126WAT     H115620   8.058   2.519   1.763
 5126WAT     H215621   8.065   2.497   1.925
 5127WAT      O15622   7.711   4.167   5.732
 5127WAT     H115623   7.664   4.131   5.652
 5127WAT     H215624   7.796   4.117   5.746
 5128WAT      O15625   6.223   4.470   5.166
 5128WAT     H115626   6.254   4.408   5.239
 5128WAT     H215627   6.153   4.424   5.111
 5129WAT      O15628   5.791   1.483   5.725
 5129WAT     H115629   5.694   1.484   5.701
 5129WAT     H215630   5.803   1.438   5.813
 5130WAT      O15631   2.416   7.945   4.827
 5130WAT     H115632   2.353   7.891   4.772
 5130WAT     H215633   2.371   8.029   4.857
 5131WAT      O15634   5.903   6.457   0.301
 5131WAT     H115635   5.896   6.479   0.204
 5131WAT     H215636   5.968   6.382   0.314
 5132WAT      O15637   1.648   5.995   6.171
 5132WAT     H115638   1.591   6.077   6.164
 5132WAT     H215639   1.595   5.922   6.214
 5133WAT      O15640   3.460   5.606   8.884
 5133WAT     H115641   3.402   5.687   8.883
 5133WAT     H215642   3.546   5.627   8.930
 5134WAT      O15643   2.374   7.699   8.315
 5134WAT     H115644   2.447   7.691   8.247
 5134WAT     H215645   2.299   7.753   8.277
 5135WAT      O15646   8.112   3.370   7.665
 5135WAT     H115647   8.136   3.432   7.740
 5135WAT     H215648   8.187   3.306   7.650
 5136WAT      O15649   6.500   4.056   3.000
 5136WAT     H115650   6.583   4.095   3.039
 5136WAT     H215651   6.434   4.038   3.072
 5137WAT      O15652   7.616   6.784   9.805
 5137WAT     H115653   7.533   6.741   9.840
 5137WAT     H215654   7.674   6.813   9.882
 5138WAT      O15655   9.748   9.105   9.632
 5138WAT     H115656   9.832   9.089   9.581
 5138WAT     H215657   9.749   9.051   9.716
 5139WAT      O15658   3.283   7.599   4.294
 5139WAT     H115659   3.381   7.606   4.310
 5139WAT     H215660   3.256   7.503   4.291
 5140WAT      O15661   5.737   8.935   9.123
 5140WAT     H115662   5.694   8.986   9.198
 5140WAT     H215663   5.832   8.915   9.146
 5141WAT      O15664   7.900   0.251   4.048
 5141WAT     H115665   7.901   0.343   4.010
 5141WAT     H215666   7.843   0.250   4.131
 5142WAT      O15667   1.045   9.376   6.979
 5142WAT     H115668   1.015   9.281   6.985
 5142WAT     H215669   1.038   9.407   6.885
 5143WAT      O15670   7.733   2.533   6.787
 5143WAT     H115671   7.654   2.471   6.781
 5143WAT     H215672   7.702   2.623   6.818
 5144WAT      O15673   2.429   1.186   9.383
 5144WAT     H115674   2.490   1.109   9.364
 5144WAT     H215675   2.468   1.269   9.344
 5145WAT      O15676   8.008   5.805   3.733
 5145WAT     H115677   8.060   5.876   3.779
 5145WAT     H215678   7.957   5.752   3.800
 5146WAT      O15679   8.056   6.627   9.663
 5146WAT     H115680   7.995   6.704   9.643
 5146WAT     H215681   8.004   6.553   9.706
 5147WAT      O15682   6.042   3.853   8.708
 5147WAT     H115683   6.070   3.757   8.702
 5147WAT     H215684   6.100   3.909   8.649
 5148WAT      O15685   8.985   4.905   1.845
 5148WAT     H115686   8.977   4.880   1.942
 5148WAT     H215687   8.957   4.828   1.788
 5149WAT      O15688   4.473   2.110   3.685
 5149WAT     H115689   4.397   2.133   3.624
 5149WAT     H215690   4.445   2.126   3.780
 5150WAT      O15691   5.595   8.921   7.622
 5150WAT     H115692   5.658   8.985   7.579
 5150WAT     H215693   5.563   8.958   7.709
 5151WAT      O15694   3.017   6.738   1.121
 5151WAT     H115695   2.985   6.701   1.034
 5151WAT     H215696   2.939   6.769   1.175
 5152WAT      O15697   4.590   8.622   3.501
 5152WAT     H115698   4.605   8.524   3.516
 5152WAT     H215699   4.584   8.640   3.403
 5153WAT      O15700   8.863   0.795   7.003
 5153WAT     H115701   8.775   0.836   6.980
 5153WAT     H215702   8.913   0.774   6.920
 5154WAT      O15703   4.060   2.981   1.798
 5154WAT     H115704   4.088   2.894   1.839
 5154WAT     H215705   3.970   3.007   1.832
 5155WAT      O15706   8.240   5.448   1.319
 5155WAT     H115707   8.185   5.488   1.393
 5155WAT     H215708   8.336   5.446   1.346
 5156WAT      O15709   2.083   3.662   4.202
 5156WAT     H115710   2.029   3.586   4.165
 5156WAT     H215711   2.025   3.717   4.262
 5157WAT      O15712   5.206   1.182   2.089
 5157WAT     H115713   5.157   1.173   2.002
 5157WAT     H215714   5.213   1.093   2.134
 5158WAT      O15715   9.462   3.852   8.114
 5158WAT     H115716   9.392   3.857   8.186
 5158WAT     H215717   9.466   3.940   8.066
 5159WAT      O15718   1.468   1.768   3.101
 5159WAT     H115719   1.490   1.772   3.198
 5159WAT     H215720   1.552   1.762   3.048
 5160WAT      O15721   0.411   0.272   4.206
 5160WAT     H115722   0.485   0.249   4.142
 5160WAT     H215723   0.401   0.371   4.211
 5161WAT      O15724   1.200   4.129   9.258
 5161WAT     H115725   1.142   4.048   9.266
 5161WAT     H215726   1.265   4.116   9.184
 5162WAT      O15727   4.621   4.730   9.462
 5162WAT     H115728   4.678   4.767   9.535
 5162WAT     H215729   4.564   4.803   9.423
 5163WAT      O15730   4.797   8.100   9.584
 5163WAT     H115731   4.820   8.183   9.532
 5163WAT     H215732   4.703   8.074   9.563
 5164WAT      O15733   7.027   5.469   7.275
 5164WAT     H115734   6.985   5.381   7.293
 5164WAT     H215735   6.993   5.536   7.342
 5165WAT      O15736   1.269   3.789   2.446
 5165WAT     H115737   1.288   3.741   2.531
 5165WAT     H215738   1.174   3.819   2.445
 5166WAT      O15739   7.624   3.762   5.490
 5166WAT     H115740   7.707   3.777   5.436
 5166WAT     H215741   7.545   3.760   5.429
 5167WAT      O15742   8.572   3.404   4.486
 5167WAT     H115743   8.560   3.356   4.399
 5167WAT     H215744   8.663   3.385   4.523
 5168WAT      O15745   7.601   9.227   0.715
 5168WAT     H115746   7.596   9.233   0.814
 5168WAT     H215747   7.509   9.217   0.677
 5169WAT      O15748   1.204   1.628   9.064
 5169WAT     H115749   1.153   1.560   9.116
 5169WAT     H215750   1.149   1.711   9.054
 5170WAT      O15751   0.622   7.721   4.199
 5170WAT     H115752   0.623   7.646   4.266
 5170WAT     H215753   0.572   7.693   4.117
 5171WAT      O15754   1.258   5.206   7.328
 5171WAT     H115755   1.206   5.290   7.312
 5171WAT     H215756   1.200   5.127   7.309
 5172WAT      O15757   2.999   4.762   7.017
 5172WAT     H115758   2.982   4.819   6.937
 5172WAT     H215759   3.081   4.706   7.002
 5173WAT      O15760   3.972   1.046   8.858
 5173WAT     H115761   3.887   0.993   8.857
 5173WAT     H215762   4.049   0.987   8.837
 5174WAT      O15763   4.164   4.843   2.035
 5174WAT     H115764   4.229   4.917   2.054
 5174WAT     H215765   4.142   4.842   1.938
 5175WAT      O15766   2.591   4.720   5.411
 5175WAT     H115767   2.579   4.816   5.387
 5175WAT     H215768   2.541   4.700   5.495
 5176WAT      O15769   6.934   6.170   9.500
 5176WAT     H115770   6.964   6.077   9.478
 5176WAT     H215771   6.881   6.169   9.585
 5177WAT      O15772   2.136   1.104   3.313
 5177WAT     H115773   2.138   1.078   3.409
 5177WAT     H215774   2.047   1.146   3.292
 5178WAT      O15775   0.094   1.337   4.887
 5178WAT     H115776   0.161   1.402   4.922
 5178WAT     H215777   0.125   1.301   4.799
 5179WAT      O15778   0.416   3.747   5.283
 5179WAT     H115779   0.455   3.671   5.232
 5179WAT     H215780   0.481   3.779   5.351
 5180WAT      O15781   1.026   4.610   1.572
 5180WAT     H115782   0.991   4.662   1.649
 5180WAT     H215783   1.018   4.512   1.591
 5181WAT      O15784   7.372   3.625   2.040
 5181WAT     H115785   7.412   3.707   1.998
 5181WAT     H215786   7.420   3.544   2.007
 5182WAT      O15787   4.673   3.507   7.463
 5182WAT     H115788   4.698   3.549   7.376
 5182WAT     H215789   4.574   3.512   7.476
 5183WAT      O15790   6.495   6.923   4.534
 5183WAT     H115791   6.560   6.981   4.486
 5183WAT     H215792   6.410   6.974   4.550
 5184WAT      O15793   7.786   2.378   4.445
 5184WAT     H115794   7.837   2.308   4.394
 5184WAT     H215795   7.788   2.464   4.394
 5185WAT      O15796   7.808   8.501   8.439
 5185WAT     H115797   7.727   8.446   8.417
 5185WAT     H215798   7.858   8.521   8.355
 5186WAT      O15799   0.763   8.955   6.084
 5186WAT     H115800   0.755   8.991   6.178
 5186WAT     H215801   0.852   8.911   6.073
 5187WAT      O15802   5.274   5.114   0.838
 5187WAT     H115803   5.260   5.017   0.858
 5187WAT     H215804   5.264   5.167   0.922
 5188WAT      O15805   8.525   9.122   3.196
 5188WAT     H115806   8.499   9.121   3.293
 5188WAT     H215807   8.525   9.216   3.163
 5189WAT      O15808   0.048   8.417   5.797
 5189WAT     H115809   0.142   8.449   5.788
 5189WAT     H215810  -0.014   8.496   5.798
 5190WAT      O15811   4.612   8.827   8.141
 5190WAT     H115812   4.537   8.796   8.199
 5190WAT     H215813   4.585   8.821   8.045
 5191WAT      O15814   1.034   0.182   1.778
 5191WAT     H115815   1.129   0.194   1.806
 5191WAT     H215816   0.977   0.168   1.860
 5192WAT      O15817   2.479   3.108   6.230
 5192WAT     H115818   2.515   3.023   6.270
 5192WAT     H215819   2.501   3.111   6.133
 5193WAT      O15820   4.327   9.136   5.050
 5193WAT     H115821   4.304   9.231   5.069
 5193WAT     H215822   4.249   9.091   5.006
 5194WAT      O15823   8.235   4.952   4.535
 5194WAT     H115824   8.253   5.012   4.613
 5194WAT     H215825   8.205   5.007   4.457
 5195WAT      O15826   0.608   6.307   5.643
 5195WAT     H115827   0.514   6.339   5.655
 5195WAT     H215828   0.656   6.367   5.579
 5196WAT      O15829   5.705   3.802   5.288
 5196WAT     H115830   5.770   3.789   5.213
 5196WAT     H215831   5.635   3.868   5.261
 5197WAT      O15832   4.087   0.061   7.789
 5197WAT     H115833   4.112  -0.035   7.799
 5197WAT     H215834   3.992   0.074   7.816
 5198WAT      O15835   4.550   8.218   4.086
 5198WAT     H115836   4.518   8.129   4.120
 5198WAT     H215837   4.634   8.205   4.034
 5199WAT      O15838   9.880   7.804   4.180
 5199WAT     H115839   9.978   7.819   4.195
 5199WAT     H215840   9.830   7.823   4.265
 5200WAT      O15841   1.838   9.794   1.364
 5200WAT     H115842   1.738   9.791   1.355
 5200WAT     H215843   1.865   9.755   1.452
 5201WAT      O15844   7.810   6.440   2.624
 5201WAT     H115845   7.883   6.387   2.667
 5201WAT     H215846   7.760   6.491   2.693
 5202WAT      O15847   7.935   6.349   9.592
 5202WAT     H115848   7.950   6.367   9.690
 5202WAT     H215849   7.869   6.415   9.556
 5203WAT      O15850   3.774   7.579   5.056
 5203WAT     H115851   3.826   7.503   5.017
 5203WAT     H215852   3.700   7.605   4.994
 5204WAT      O15853   3.492   0.532   2.111
 5204WAT     H115854   3.474   0.536   2.209
 5204WAT     H215855   3.419   0.482   2.065
 5205WAT      O15856   9.452   9.111   8.419
 5205WAT     H115857   9.391   9.144   8.347
 5205WAT     H215858   9.544   9.099   8.382
 5206WAT      O15859   1.594   4.312   8.105
 5206WAT     H115860   1.685   4.311   8.147
 5206WAT     H215861   1.557   4.405   8.109
 5207WAT      O15862   1.818   0.910   7.571
 5207WAT     H115863   1.842   0.895   7.475
 5207WAT     H215864   1.901   0.932   7.622
 5208WAT      O15865   8.268   8.714   6.395
 5208WAT     H115866   8.271   8.808   6.361
 5208WAT     H215867   8.344   8.662   6.356
 5209WAT      O15868   4.835   3.947   2.255
 5209WAT     H115869   4.833   3.918   2.351
 5209WAT     H215870   4.772   3.891   2.202
 5210WAT      O15871   4.879   6.624   2.874
 5210WAT     H115872   4.879   6.526   2.851
 5210WAT     H215873   4.912   6.635   2.968
 5211WAT      O15874   9.183   9.722   4.743
 5211WAT     H115875   9.211   9.743   4.837
 5211WAT     H215876   9.092   9.761   4.726
 5212WAT      O15877   5.090   3.553   8.935
 5212WAT     H115878   5.088   3.473   8.995
 5212WAT     H215879   5.138   3.628   8.981
 5213WAT      O15880   2.316   8.943   5.607
 5213WAT     H115881   2.362   8.902   5.685
 5213WAT     H215882   2.367   8.923   5.523
 5214WAT      O15883   2.821   9.668   8.993
 5214WAT     H115884   2.834   9.711   9.083
 5214WAT     H215885   2.900   9.689   8.935
 5215WAT      O15886   1.039   8.437   6.387
 5215WAT     H115887   1.097   8.376   6.332
 5215WAT     H215888   1.089   8.467   6.468
 5216WAT      O15889   8.039   8.705   7.717
 5216WAT     H115890   7.992   8.786   7.751
 5216WAT     H215891   7.973   8.644   7.672
 5217WAT      O15892   1.301   3.349   8.432
 5217WAT     H115893   1.254   3.424   8.385
 5217WAT     H215894   1.328   3.380   8.524
 5218WAT      O15895   7.385   6.924   5.096
 5218WAT     H115896   7.474   6.961   5.068
 5218WAT     H215897   7.323   6.925   5.018
 5219WAT      O15898   1.218   6.443   0.280
 5219WAT     H115899   1.235   6.481   0.189
 5219WAT     H215900   1.242   6.510   0.349
 5220WAT      O15901   8.131   0.568   0.786
 5220WAT     H115902   8.073   0.536   0.861
 5220WAT     H215903   8.098   0.532   0.699
 5221WAT      O15904   2.619   6.561   6.698
 5221WAT     H115905   2.589   6.601   6.612
 5221WAT     H215906   2.716   6.538   6.692
 5222WAT      O15907   8.749   7.921   6.848
 5222WAT     H115908   8.756   7.840   6.790
 5222WAT     H215909   8.671   7.911   6.911
 5223WAT      O15910   0.356   7.766   9.480
 5223WAT     H115911   0.365   7.831   9.556
 5223WAT     H215912   0.263   7.769   9.444
 5224WAT      O15913   3.312   6.490   5.837
 5224WAT     H115914   3.232   6.430   5.829
 5224WAT     H215915   3.341   6.493   5.933
 5225WAT      O15916   8.379   2.262   1.268
 5225WAT     H115917   8.398   2.356   1.243
 5225WAT     H215918   8.463   2.217   1.298
 5226WAT      O15919   2.436   6.457   8.269
 5226WAT     H115920   2.355   6.514   8.257
 5226WAT     H215921   2.488   6.488   8.348
 5227WAT      O15922   3.735   3.294   9.034
 5227WAT     H115923   3.749   3.373   8.974
 5227WAT     H215924   3.647   3.250   9.011
 5228WAT      O15925   8.753   6.708   0.716
 5228WAT     H115926   8.726   6.794   0.760
 5228WAT     H215927   8.708   6.700   0.627
 5229WAT      O15928   9.338   7.527   4.711
 5229WAT     H115929   9.249   7.503   4.673
 5229WAT     H215930   9.331   7.534   4.811
 5230WAT      O15931   1.125   1.128   1.216
 5230WAT     H115932   1.083   1.079   1.292
 5230WAT     H215933   1.186   1.199   1.252
 5231WAT      O15934   2.757   8.399   4.073
 5231WAT     H115935   2.790   8.486   4.036
 5231WAT     H215936   2.758   8.330   4.001
 5232WAT      O15937   2.237   3.069   5.197
 5232WAT     H115938   2.316   3.113   5.239
 5232WAT     H215939   2.198   3.129   5.127
 5233WAT      O15940   3.429   8.882   1.652
 5233WAT     H115941   3.335   8.913   1.641
 5233WAT     H215942   3.490   8.941   1.600
 5234WAT      O15943   3.293   7.901   5.102
 5234WAT     H115944   3.221   7.933   5.163
 5234WAT     H215945   3.269   7.810   5.068
 5235WAT      O15946   4.851   9.633   6.418
 5235WAT     H115947   4.842   9.537   6.445
 5235WAT     H215948   4.931   9.672   6.463
 5236WAT      O15949   6.696   5.338   9.339
 5236WAT     H115950   6.697   5.348   9.438
 5236WAT     H215951   6.779   5.378   9.300
 5237WAT      O15952   7.226   7.321   9.534
 5237WAT     H115953   7.263   7.238   9.494
 5237WAT     H215954   7.268   7.337   9.624
 5238WAT      O15955   3.734   8.429   1.876
 5238WAT     H115956   3.751   8.405   1.781
 5238WAT     H215957   3.748   8.348   1.933
 5239WAT      O15958   2.826   6.720   0.250
 5239WAT     H115959   2.874   6.701   0.336
 5239WAT     H215960   2.893   6.737   0.178
 5240WAT      O15961   3.507   5.272   4.791
 5240WAT     H115962   3.506   5.343   4.720
 5240WAT     H215963   3.589   5.283   4.847
 5241WAT      O15964   7.169   8.909   4.246
 5241WAT     H115965   7.256   8.869   4.275
 5241WAT     H215966   7.132   8.858   4.168
 5242WAT      O15967   5.354   9.799   7.350
 5242WAT     H115968   5.259   9.801   7.383
 5242WAT     H215969   5.416   9.790   7.428
 5243WAT      O15970   2.483   9.562   0.521
 5243WAT     H115971   2.574   9.561   0.564
 5243WAT     H215972   2.467   9.652   0.480
 5244WAT      O15973   2.277   9.342   5.474
 5244WAT     H115974   2.328   9.380   5.397
 5244WAT     H215975   2.338   9.328   5.552
 5245WAT      O15976   6.544   2.030   6.976
 5245WAT     H115977   6.494   1.965   7.032
 5245WAT     H215978   6.479   2.094   6.934
 5246WAT      O15979   7.352   8.116   5.796
 5246WAT     H115980   7.446   8.122   5.828
 5246WAT     H215981   7.350   8.085   5.701
 5247WAT      O15982   2.046   9.222   8.819
 5247WAT     H115983   1.996   9.304   8.846
 5247WAT     H215984   2.059   9.162   8.898
 5248WAT      O15985   4.048   4.688   9.070
 5248WAT     H115986   4.076   4.606   9.020
 5248WAT     H215987   3.994   4.661   9.150
 5249WAT      O15988   6.419   7.901   7.457
 5249WAT     H115989   6.509   7.939   7.435
 5249WAT     H215990   6.409   7.811   7.415
 5250WAT      O15991   6.586   3.997   6.999
 5250WAT     H115992   6.670   3.986   6.946
 5250WAT     H215993   6.598   4.068   7.067
 5251WAT      O15994   8.839   6.105   2.638
 5251WAT     H115995   8.745   6.139   2.645
 5251WAT     H215996   8.865   6.101   2.541
 5252WAT      O15997   0.263   5.748   0.453
 5252WAT     H115998   0.180   5.792   0.418
 5252WAT     H215999   0.267   5.654   0.420
 5253WAT      O16000   5.002   5.023   5.209
 5253WAT     H116001   4.953   4.936   5.210
 5253WAT     H216002   5.014   5.053   5.114
 5254WAT      O16003   7.095   4.162   4.257
 5254WAT     H116004   7.168   4.191   4.319
 5254WAT     H216005   7.037   4.241   4.236
 5255WAT      O16006   8.250   3.686   6.245
 5255WAT     H116007   8.210   3.766   6.200
 5255WAT     H216008   8.258   3.611   6.180
 5256WAT      O16009   7.935   1.887   4.879
 5256WAT     H116010   7.939   1.951   4.956
 5256WAT     H216011   7.992   1.807   4.899
 5257WAT      O16012   8.100   0.437   8.246
 5257WAT     H116013   8.035   0.510   8.225
 5257WAT     H216014   8.150   0.459   8.330
 5258WAT      O16015   6.550   9.589   5.624
 5258WAT     H116016   6.545   9.518   5.553
 5258WAT     H216017   6.542   9.679   5.581
 5259WAT      O16018   6.745   6.790   4.287
 5259WAT     H116019   6.809   6.748   4.223
 5259WAT     H216020   6.792   6.860   4.340
 5260WAT      O16021   1.680   9.557   4.442
 5260WAT     H116022   1.711   9.603   4.358
 5260WAT     H216023   1.710   9.462   4.440
 5261WAT      O16024   7.267   8.369   0.702
 5261WAT     H116025   7.354   8.333   0.668
 5261WAT     H216026   7.203   8.293   0.714
 5262WAT      O16027   7.297   4.099   2.584
 5262WAT     H116028   7.264   4.083   2.677
 5262WAT     H216029   7.376   4.041   2.566
 5263WAT      O16030   0.078   9.270   6.397
 5263WAT     H116031   0.173   9.238   6.397
 5263WAT     H216032   0.076   9.367   6.374
 5264WAT      O16033   4.180   9.003   4.796
 5264WAT     H116034   4.271   8.961   4.802
 5264WAT     H216035   4.116   8.954   4.855
 5265WAT      O16036   5.867   1.610   8.849
 5265WAT     H116037   5.911   1.692   8.814
 5265WAT     H216038   5.870   1.538   8.778
 5266WAT      O16039   6.509   8.569   7.385
 5266WAT     H116040   6.591   8.577   7.329
 5266WAT     H216041   6.513   8.484   7.438
 5267WAT      O16042   5.403   4.864   4.259
 5267WAT     H116043   5.465   4.847   4.336
 5267WAT     H216044   5.426   4.802   4.184
 5268WAT      O16045   6.855   2.849   2.782
 5268WAT     H116046   6.930   2.817   2.840
 5268WAT     H216047   6.771   2.854   2.837
 5269WAT      O16048   3.338   6.464   7.288
 5269WAT     H116049   3.307   6.415   7.207
 5269WAT     H216050   3.416   6.522   7.264
 5270WAT      O16051   5.542   8.092   6.374
 5270WAT     H116052   5.561   8.170   6.314
 5270WAT     H216053   5.464   8.114   6.433
 5271WAT      O16054   4.879   8.192   8.983
 5271WAT     H116055   4.900   8.282   8.945
 5271WAT     H216056   4.854   8.129   8.909
 5272WAT      O16057   0.173   6.192   8.917
 5272WAT     H116058   0.102   6.222   8.854
 5272WAT     H216059   0.132   6.152   8.999
 5273WAT      O16060   8.341   4.603   5.705
 5273WAT     H116061   8.424   4.653   5.727
 5273WAT     H216062   8.363   4.506   5.691
 5274WAT      O16063   0.293   4.791   7.055
 5274WAT     H116064   0.355   4.713   7.066
 5274WAT     H216065   0.239   4.778   6.972
 5275WAT      O16066   8.240   0.798   5.441
 5275WAT     H116067   8.194   0.725   5.390
 5275WAT     H216068   8.307   0.843   5.382
 5276WAT      O16069   5.948   1.855   6.473
 5276WAT     H116070   5.977   1.922   6.541
 5276WAT     H216071   5.920   1.771   6.519
 5277WAT      O16072   2.499   9.139   2.873
 5277WAT     H116073   2.477   9.064   2.811
 5277WAT     H216074   2.490   9.108   2.968
 5278WAT      O16075   3.266   5.795   3.961
 5278WAT     H116076   3.237   5.737   3.885
 5278WAT     H216077   3.189   5.808   4.024
 5279WAT      O16078   4.147   3.991   9.754
 5279WAT     H116079   4.066   3.979   9.811
 5279WAT     H216080   4.195   4.075   9.779
 5280WAT      O16081   7.325   0.944   8.963
 5280WAT     H116082   7.405   0.978   9.013
 5280WAT     H216083   7.336   0.962   8.866
 5281WAT      O16084   8.016   7.152   8.098
 5281WAT     H116085   7.937   7.160   8.159
 5281WAT     H216086   8.039   7.056   8.086
 5282WAT      O16087   1.051   7.975   7.010
 5282WAT     H116088   1.090   8.039   7.076
 5282WAT     H216089   0.952   7.969   7.025
 5283WAT      O16090   1.225   9.335   2.066
 5283WAT     H116091   1.274   9.291   2.142
 5283WAT     H216092   1.144   9.281   2.044
 5284WAT      O16093   8.945   5.638   0.311
 5284WAT     H116094   8.980   5.686   0.390
 5284WAT     H216095   8.957   5.694   0.229
 5285WAT      O16096   0.170   3.069   0.481
 5285WAT     H116097   0.156   3.138   0.410
 5285WAT     H216098   0.145   3.107   0.570
 5286WAT      O16099   7.792   2.982   6.184
 5286WAT     H116100   7.852   2.927   6.125
 5286WAT     H216101   7.745   3.051   6.128
 5287WAT      O16102   0.047   5.029   7.408
 5287WAT     H116103   0.030   5.114   7.457
 5287WAT     H216104   0.124   5.042   7.345
 5288WAT      O16105   0.501   3.573   7.859
 5288WAT     H116106   0.408   3.584   7.823
 5288WAT     H216107   0.541   3.488   7.824
 5289WAT      O16108   5.985   7.923   6.783
 5289WAT     H116109   6.054   7.991   6.810
 5289WAT     H216110   6.011   7.833   6.817
 5290WAT      O16111   8.074   5.948   5.432
 5290WAT     H116112   8.039   6.041   5.418
 5290WAT     H216113   8.028   5.885   5.370
 5291WAT      O16114   7.104   5.269   8.012
 5291WAT     H116115   7.005   5.274   7.996
 5291WAT     H216116   7.146   5.357   7.991
 5292WAT      O16117   8.398   9.756   8.931
 5292WAT     H116118   8.306   9.725   8.957
 5292WAT     H216119   8.466   9.697   8.974
 5293WAT      O16120   0.311   8.831   8.421
 5293WAT     H116121   0.332   8.812   8.517
 5293WAT     H216122   0.280   8.926   8.412
 5294WAT      O16123   2.893   6.518   6.693
 5294WAT     H116124   2.921   6.523   6.597
 5294WAT     H216125   2.970   6.542   6.752
 5295WAT      O16126   3.153   3.395   5.542
 5295WAT     H116127   3.122   3.354   5.628
 5295WAT     H216128   3.078   3.445   5.499
 5296WAT      O16129   8.761   8.562   6.408
 5296WAT     H116130   8.800   8.522   6.491
 5296WAT     H216131   8.814   8.643   6.382
 5297WAT      O16132   4.401   7.708   3.302
 5297WAT     H116133   4.337   7.657   3.243
 5297WAT     H216134   4.370   7.802   3.310
 5298WAT      O16135   5.038   6.235   0.606
 5298WAT     H116136   5.063   6.184   0.524
 5298WAT     H216137   5.030   6.172   0.684
 5299WAT      O16138   2.770   1.871   5.402
 5299WAT     H116139   2.762   1.968   5.427
 5299WAT     H216140   2.817   1.863   5.314
 5300WAT      O16141   2.495   3.964   7.024
 5300WAT     H116142   2.434   3.977   6.946
 5300WAT     H216143   2.472   3.879   7.071
 5301WAT      O16144   4.086   8.119   5.697
 5301WAT     H116145   4.175   8.096   5.657
 5301WAT     H216146   4.015   8.066   5.650
 5302WAT      O16147   4.647   3.615   8.824
 5302WAT     H116148   4.590   3.637   8.744
 5302WAT     H216149   4.738   3.589   8.794
 5303WAT      O16150   5.584   5.731   3.836
 5303WAT     H116151   5.656   5.800   3.840
 5303WAT     H216152   5.520   5.745   3.912
 5304WAT      O16153   3.291   3.554   2.568
 5304WAT     H116154   3.243   3.477   2.611
 5304WAT     H216155   3.261   3.563   2.473
 5305WAT      O16156   9.809   3.461   2.295
 5305WAT     H116157   9.729   3.487   2.350
 5305WAT     H216158   9.891   3.505   2.332
 5306WAT      O16159   1.686   0.061   9.130
 5306WAT     H116160   1.646   0.070   9.038
 5306WAT     H216161   1.614   0.042   9.196
 5307WAT      O16162   6.740   0.301   7.499
 5307WAT     H116163   6.759   0.396   7.525
 5307WAT     H216164   6.685   0.258   7.571
 5308WAT      O16165   2.115   4.083   4.790
 5308WAT     H116166   2.016   4.070   4.789
 5308WAT     H216167   2.152   4.074   4.698
 5309WAT      O16168   0.696   5.860   2.511
 5309WAT     H116169   0.709   5.818   2.600
 5309WAT     H216170   0.679   5.789   2.442
 5310WAT      O16171   3.066   5.043   5.174
 5310WAT     H116172   3.077   4.959   5.120
 5310WAT     H216173   3.001   5.026   5.248
 5311WAT      O16174   9.694   9.809   4.324
 5311WAT     H116175   9.605   9.769   4.306
 5311WAT     H216176   9.766   9.746   4.292
 5312WAT      O16177   8.198   1.590   5.223
 5312WAT     H116178   8.182   1.680   5.264
 5312WAT     H216179   8.110   1.549   5.198
 5313WAT      O16180   6.522   1.315   0.019
 5313WAT     H116181   6.589   1.340  -0.050
 5313WAT     H216182   6.562   1.327   0.110
 5314WAT      O16183   7.277   4.690   6.317
 5314WAT     H116184   7.286   4.641   6.231
 5314WAT     H216185   7.197   4.750   6.313
 5315WAT      O16186   5.645   5.069   9.030
 5315WAT     H116187   5.691   5.053   9.118
 5315WAT     H216188   5.708   5.045   8.956
 5316WAT      O16189   7.543   3.297   5.538
 5316WAT     H116190   7.499   3.255   5.459
 5316WAT     H216191   7.475   3.349   5.590
 5317WAT      O16192   5.498   1.143   9.792
 5317WAT     H116193   5.438   1.068   9.764
 5317WAT     H216194   5.579   1.145   9.734
 5318WAT      O16195   8.450   6.614   6.344
 5318WAT     H116196   8.393   6.691   6.315
 5318WAT     H216197   8.422   6.583   6.435
 5319WAT      O16198   8.886   4.622   3.669
 5319WAT     H116199   8.790   4.646   3.650
 5319WAT     H216200   8.905   4.531   3.633
 5320WAT      O16201   7.828   2.406   5.251
 5320WAT     H116202   7.824   2.506   5.248
 5320WAT     H216203   7.744   2.368   5.212
 5321WAT      O16204   4.904   7.049   3.562
 5321WAT     H116205   4.882   7.079   3.655
 5321WAT     H216206   4.969   6.973   3.565
 5322WAT      O16207   7.347   2.518   3.440
 5322WAT     H116208   7.398   2.447   3.489
 5322WAT     H216209   7.411   2.579   3.394
 5323WAT      O16210   9.878   5.701   7.516
 5323WAT     H116211   9.841   5.623   7.465
 5323WAT     H216212   9.932   5.758   7.454
 5324WAT      O16213   9.513   0.149   9.345
 5324WAT     H116214   9.449   0.077   9.371
 5324WAT     H216215   9.570   0.173   9.423
 5325WAT      O16216   5.217   3.821   4.312
 5325WAT     H116217   5.119   3.807   4.327
 5325WAT     H216218   5.231   3.895   4.247
 5326WAT      O16219   7.960   7.295   7.867
 5326WAT     H116220   7.861   7.285   7.857
 5326WAT     H216221   7.992   7.237   7.941
 5327WAT      O16222   4.186   0.672   6.732
 5327WAT     H116223   4.235   0.602   6.783
 5327WAT     H216224   4.128   0.629   6.663
 5328WAT      O16225   1.622   6.345   6.877
 5328WAT     H116226   1.598   6.335   6.973
 5328WAT     H216227   1.719   6.323   6.865
 5329WAT      O16228   3.809   3.499   8.877
 5329WAT     H116229   3.744   3.572   8.856
 5329WAT     H216230   3.900   3.523   8.843
 5330WAT      O16231   0.173   8.579   9.709
 5330WAT     H116232   0.234   8.605   9.634
 5330WAT     H216233   0.227   8.541   9.784
 5331WAT      O16234   1.024   4.764   3.543
 5331WAT     H116235   0.951   4.824   3.510
 5331WAT     H216236   0.991   4.711   3.621
 5332WAT      O16237   3.258   6.021   9.200
 5332WAT     H116238   3.310   6.105   9.217
 5332WAT     H216239   3.283   5.952   9.268
 5333WAT      O16240   2.150   1.193   5.889
 5333WAT     H116241   2.163   1.124   5.818
 5333WAT     H216242   2.077   1.256   5.861
 5334WAT      O16243   8.833   9.596   5.950
 5334WAT     H116244   8.771   9.674   5.947
 5334WAT     H216245   8.926   9.626   5.927
 5335WAT      O16246   8.879   4.013   5.078
 5335WAT     H116247   8.810   4.035   5.147
 5335WAT     H216248   8.885   3.914   5.068
 5336WAT      O16249   8.535   6.266   4.092
 5336WAT     H116250   8.535   6.220   4.004
 5336WAT     H216251   8.629   6.289   4.118
 5337WAT      O16252   3.089   8.199   2.003
 5337WAT     H116253   3.108   8.231   1.910
 5337WAT     H216254   3.175   8.190   2.054
 5338WAT      O16255   3.072   2.332   6.986
 5338WAT     H116256   3.034   2.253   7.035
 5338WAT     H216257   3.166   2.348   7.016
 5339WAT      O16258   0.209   0.569   2.109
 5339WAT     H116259   0.195   0.644   2.173
 5339WAT     H216260   0.281   0.594   2.044
 5340WAT      O16261   2.683   1.549   0.479
 5340WAT     H116262   2.608   1.486   0.501
 5340WAT     H216263   2.770   1.510   0.509
 5341WAT      O16264   8.471   8.222   1.657
 5341WAT     H116265   8.416   8.198   1.577
 5341WAT     H216266   8.500   8.139   1.704
 5342WAT      O16267   6.260   6.968   5.857
 5342WAT     H116268   6.180   6.908   5.861
 5342WAT     H216269   6.342   6.917   5.881
 5343WAT      O16270   5.209   2.897   0.362
 5343WAT     H116271   5.262   2.845   0.295
 5343WAT     H216272   5.116   2.862   0.366
 5344WAT      O16273   8.909   7.135   7.776
 5344WAT     H116274   8.909   7.070   7.852
 5344WAT     H216275   8.993   7.125   7.723
 5345WAT      O16276   7.551   0.272   5.675
 5345WAT     H116277   7.557   0.313   5.766
 5345WAT     H216278   7.456   0.274   5.644
 5346WAT      O16279   7.395   5.108   0.419
 5346WAT     H116280   7.339   5.126   0.499
 5346WAT     H216281   7.337   5.100   0.338
 5347WAT      O16282   6.840   7.559   2.587
 5347WAT     H116283   6.816   7.479   2.642
 5347WAT     H216284   6.757   7.611   2.566
 5348WAT      O16285   2.104   3.327   6.078
 5348WAT     H116286   2.077   3.391   6.149
 5348WAT     H216287   2.067   3.357   5.990
 5349WAT      O16288   8.788   8.425   9.694
 5349WAT     H116289   8.734   8.444   9.612
 5349WAT     H216290   8.858   8.357   9.673
 5350WAT      O16291   3.649   4.666   7.289
 5350WAT     H116292   3.658   4.688   7.386
 5350WAT     H216293   3.693   4.737   7.234
 5351WAT      O16294   1.613   0.514   3.301
 5351WAT     H116295   1.541   0.507   3.232
 5351WAT     H216296   1.574   0.553   3.385
 5352WAT      O16297   2.107   8.827   0.175
 5352WAT     H116298   2.168   8.750   0.194
 5352WAT     H216299   2.160   8.906   0.145
 5353WAT      O16300   8.034   3.236   3.487
 5353WAT     H116301   8.009   3.319   3.537
 5353WAT     H216302   8.000   3.242   3.393
 5354WAT      O16303   9.658   2.202   6.472
 5354WAT     H116304   9.741   2.163   6.512
 5354WAT     H216305   9.606   2.251   6.542
 5355WAT      O16306   1.893   4.897   6.793
 5355WAT     H116307   1.896   4.805   6.831
 5355WAT     H216308   1.861   4.961   6.863
 5356WAT      O16309   9.334   9.242   3.044
 5356WAT     H116310   9.345   9.143   3.055
 5356WAT     H216311   9.301   9.282   3.129
 5357WAT      O16312   5.616   6.131   1.426
 5357WAT     H116313   5.640   6.034   1.425
 5357WAT     H216314   5.534   6.146   1.371
 5358WAT      O16315   6.057   5.330   3.884
 5358WAT     H116316   6.059   5.428   3.901
 5358WAT     H216317   6.144   5.301   3.843
 5359WAT      O16318   1.079   5.095   4.767
 5359WAT     H116319   1.001   5.064   4.714
 5359WAT     H216320   1.114   5.020   4.823
 5360WAT      O16321   0.402   1.669   3.711
 5360WAT     H116322   0.321   1.678   3.769
 5360WAT     H216323   0.446   1.758   3.700
 5361WAT      O16324   2.718   4.438   7.095
 5361WAT     H116325   2.677   4.408   7.181
 5361WAT     H216326   2.814   4.409   7.092
 5362WAT      O16327   9.321   4.323   0.736
 5362WAT     H116328   9.354   4.229   0.726
 5362WAT     H216329   9.366   4.365   0.815
 5363WAT      O16330   7.197   4.341   5.812
 5363WAT     H116331   7.114   4.362   5.864
 5363WAT     H216332   7.239   4.258   5.849
 5364WAT      O16333   3.371   2.411   2.724
 5364WAT     H116334   3.293   2.379   2.779
 5364WAT     H216335   3.430   2.333   2.701
 5365WAT      O16336   8.301   6.482   5.768
 5365WAT     H116337   8.386   6.433   5.753
 5365WAT     H216338   8.317   6.560   5.828
 5366WAT      O16339   3.193   5.448   7.839
 5366WAT     H116340   3.149   5.434   7.928
 5366WAT     H216341   3.162   5.535   7.800
 5367WAT      O16342   1.402   0.413   3.913
 5367WAT     H116343   1.355   0.324   3.917
 5367WAT     H216344   1.499   0.400   3.930
 5368WAT      O16345   8.507   1.151   8.636
 5368WAT     H116346   8.419   1.139   8.682
 5368WAT     H216347   8.540   1.063   8.604
 5369WAT      O16348   3.425   7.594   5.317
 5369WAT     H116349   3.465   7.683   5.339
 5369WAT     H216350   3.492   7.539   5.267
 5370WAT      O16351   6.834   4.108   5.816
 5370WAT     H116352   6.858   4.140   5.724
 5370WAT     H216353   6.776   4.027   5.808
 5371WAT      O16354   3.683   1.749   4.093
 5371WAT     H116355   3.679   1.659   4.048
 5371WAT     H216356   3.607   1.758   4.157
 5372WAT      O16357   2.767   1.334   9.134
 5372WAT     H116358   2.812   1.278   9.204
 5372WAT     H216359   2.828   1.347   9.057
 5373WAT      O16360   8.326   7.512   0.002
 5373WAT     H116361   8.312   7.582   0.072
 5373WAT     H216362   8.419   7.476   0.009
 5374WAT      O16363   5.854   4.240   2.768
 5374WAT     H116364   5.841   4.339   2.778
 5374WAT     H216365   5.777   4.201   2.716
 5375WAT      O16366   6.333   9.235   5.969
 5375WAT     H116367   6.283   9.155   6.000
 5375WAT     H216368   6.325   9.308   6.037
 5376WAT      O16369   7.365   7.627   4.449
 5376WAT     H116370   7.278   7.578   4.441
 5376WAT     H216371   7.359   7.695   4.522
 5377WAT      O16372   5.569   0.095   3.600
 5377WAT     H116373   5.495   0.155   3.632
 5377WAT     H216374   5.606   0.130   3.514
 5378WAT      O16375   0.204   8.092   4.622
 5378WAT     H116376   0.265   8.159   4.578
 5378WAT     H216377   0.137   8.141   4.677
 5379WAT      O16378   9.749   1.512   6.419
 5379WAT     H116379   9.724   1.605   6.391
 5379WAT     H216380   9.804   1.517   6.503
 5380WAT      O16381   1.314   2.609   2.220
 5380WAT     H116382   1.323   2.510   2.207
 5380WAT     H216383   1.283   2.651   2.134
 5381WAT      O16384   1.580   0.205   2.497
 5381WAT     H116385   1.552   0.278   2.560
 5381WAT     H216386   1.643   0.143   2.544
 5382WAT      O16387   8.112   9.174   2.614
 5382WAT     H116388   8.068   9.108   2.676
 5382WAT     H216389   8.212   9.165   2.622
 5383WAT      O16390   3.306   0.803   3.119
 5383WAT     H116391   3.399   0.782   3.088
 5383WAT     H216392   3.244   0.801   3.041
 5384WAT      O16393   1.363   2.230   7.848
 5384WAT     H116394   1.270   2.264   7.863
 5384WAT     H216395   1.406   2.211   7.936
 5385WAT      O16396   5.815   5.577   7.866
 5385WAT     H116397   5.779   5.523   7.942
 5385WAT     H216398   5.764   5.555   7.783
 5386WAT      O16399   2.635   2.721   9.491
 5386WAT     H116400   2.568   2.697   9.422
 5386WAT     H216401   2.589   2.763   9.569
 5387WAT      O16402   7.255   4.097   6.743
 5387WAT     H116403   7.174   4.152   6.723
 5387WAT     H216404   7.329   4.158   6.773
 5388WAT      O16405   4.540   1.837   7.111
 5388WAT     H116406   4.589   1.907   7.163
 5388WAT     H216407   4.492   1.775   7.174
 5389WAT      O16408   9.173   6.168   6.148
 5389WAT     H116409   9.235   6.237   6.111
 5389WAT     H216410   9.149   6.102   6.077
 5390WAT      O16411   2.716   4.078   7.259
 5390WAT     H116412   2.789   4.128   7.213
 5390WAT     H216413   2.643   4.141   7.284
 5391WAT      O16414   2.511   0.088   8.294
 5391WAT     H116415   2.566   0.012   8.328
 5391WAT     H216416   2.571   0.162   8.263
 5392WAT      O16417   1.329   4.903   2.032
 5392WAT     H116418   1.356   4.986   2.080
 5392WAT     H216419   1.395   4.883   1.960
 5393WAT      O16420   1.968   4.582   4.345
 5393WAT     H116421   1.978   4.627   4.433
 5393WAT     H216422   1.946   4.650   4.275
 5394WAT      O16423   2.229   3.527   3.816
 5394WAT     H116424   2.210   3.430   3.832
 5394WAT     H216425   2.142   3.576   3.809
 5395WAT      O16426   9.016   9.786   6.506
 5395WAT     H116427   8.948   9.740   6.563
 5395WAT     H216428   9.024   9.882   6.533
 5396WAT      O16429   7.544   4.615   2.114
 5396WAT     H116430   7.511   4.637   2.023
 5396WAT     H216431   7.643   4.599   2.111
 5397WAT      O16432   7.300   8.078   0.340
 5397WAT     H116433   7.337   8.158   0.387
 5397WAT     H216434   7.304   7.999   0.401
 5398WAT      O16435   8.003   6.466   8.083
 5398WAT     H116436   8.024   6.564   8.088
 5398WAT     H216437   7.983   6.440   7.989
 5399WAT      O16438   4.359   5.987   9.205
 5399WAT     H116439   4.433   6.050   9.226
 5399WAT     H216440   4.272   6.027   9.233
 5400WAT      O16441   6.724   3.680   1.288
 5400WAT     H116442   6.764   3.681   1.379
 5400WAT     H216443   6.625   3.692   1.294
 5401WAT      O16444   2.557   8.641   2.818
 5401WAT     H116445   2.476   8.643   2.877
 5401WAT     H216446   2.603   8.553   2.828
 5402WAT      O16447   2.107   0.698   4.245
 5402WAT     H116448   2.185   0.705   4.307
 5402WAT     H216449   2.043   0.630   4.278
 5403WAT      O16450   9.087   0.511   5.073
 5403WAT     H116451   9.122   0.450   5.003
 5403WAT     H216452   9.105   0.606   5.046
 5404WAT      O16453   1.104   5.867   9.329
 5404WAT     H116454   1.126   5.784   9.277
 5404WAT     H216455   1.037   5.921   9.278
 5405WAT      O16456   3.983   0.916   8.235
 5405WAT     H116457   4.026   0.835   8.195
 5405WAT     H216458   4.003   0.920   8.333
 5406WAT      O16459   7.243   1.093   4.149
 5406WAT     H116460   7.218   1.137   4.235
 5406WAT     H216461   7.179   1.119   4.078
 5407WAT      O16462   7.684   6.825   3.893
 5407WAT     H116463   7.622   6.768   3.841
 5407WAT     H216464   7.637   6.909   3.922
 5408WAT      O16465   2.835   8.603   4.816
 5408WAT     H116466   2.775   8.526   4.834
 5408WAT     H216467   2.806   8.683   4.869
 5409WAT      O16468   2.641   1.808   8.631
 5409WAT     H116469   2.597   1.810   8.720
 5409WAT     H216470   2.589   1.864   8.566
 5410WAT      O16471   6.728   6.948   3.367
 5410WAT     H116472   6.758   6.994   3.283
 5410WAT     H216473   6.678   7.013   3.424
 5411WAT      O16474   2.966   7.239   3.632
 5411WAT     H116475   2.957   7.332   3.668
 5411WAT     H216476   3.049   7.197   3.670
 5412WAT      O16477   8.456   3.457   2.924
 5412WAT     H116478   8.368   3.426   2.961
 5412WAT     H216479   8.465   3.427   2.829
 5413WAT      O16480   6.055   6.258   0.353
 5413WAT     H116481   6.063   6.237   0.451
 5413WAT     H216482   6.026   6.176   0.304
 5414WAT      O16483   9.657   8.132   3.074
 5414WAT     H116484   9.706   8.069   3.014
 5414WAT     H216485   9.572   8.090   3.104
 5415WAT      O16486   7.236   3.368   0.794
 5415WAT     H116487   7.305   3.325   0.853
 5415WAT     H216488   7.153   3.313   0.795
 5416WAT      O16489   8.516   1.959   3.119
 5416WAT     H116490   8.473   1.997   3.201
 5416WAT     H216491   8.460   1.885   3.083
 5417WAT      O16492   0.584   2.750   3.138
 5417WAT     H116493   0.588   2.655   3.109
 5417WAT     H216494   0.495   2.789   3.115
 5418WAT      O16495   2.381   4.696   9.502
 5418WAT     H116496   2.416   4.767   9.441
 5418WAT     H216497   2.399   4.721   9.597
 5419WAT      O16498   9.845   9.140   6.946
 5419WAT     H116499   9.776   9.193   6.897
 5419WAT     H216500   9.821   9.134   7.043
 5420WAT      O16501   7.929   9.084   7.772
 5420WAT     H116502   7.990   9.013   7.806
 5420WAT     H216503   7.947   9.170   7.819
 5421WAT      O16504   4.888   4.178   3.039
 5421WAT     H116505   4.951   4.209   3.110
 5421WAT     H216506   4.795   4.182   3.073
 5422WAT      O16507   2.451   8.803   5.417
 5422WAT     H116508   2.373   8.807   5.355
 5422WAT     H216509   2.461   8.710   5.453
 5423WAT      O16510   7.060   6.543   6.851
 5423WAT     H116511   7.079   6.581   6.942
 5423WAT     H216512   7.019   6.614   6.793
 5424WAT      O16513   2.822   2.566   5.305
 5424WAT     H116514   2.862   2.475   5.313
 5424WAT     H216515   2.895   2.634   5.299
 5425WAT      O16516   7.904   0.279   0.083
 5425WAT     H116517   7.865   0.363   0.045
 5425WAT     H216518   7.844   0.202   0.062
 5426WAT      O16519   9.228   0.121   1.106
 5426WAT     H116520   9.143   0.087   1.067
 5426WAT     H216521   9.229   0.221   1.100
 5427WAT      O16522   6.300   0.604   7.186
 5427WAT     H116523   6.349   0.547   7.120
 5427WAT     H216524   6.208   0.568   7.200
 5428WAT      O16525   7.217   4.171   7.524
 5428WAT     H116526   7.211   4.104   7.450
 5428WAT     H216527   7.276   4.247   7.496
 5429WAT      O16528   2.405   0.699   6.811
 5429WAT     H116529   2.499   0.733   6.812
 5429WAT     H216530   2.354   0.746   6.739
 5430WAT      O16531   8.847   7.859   9.010
 5430WAT     H116532   8.922   7.814   8.961
 5430WAT     H216533   8.777   7.888   8.945
 5431WAT      O16534   5.119   3.228   8.850
 5431WAT     H116535   5.139   3.140   8.893
 5431WAT     H216536   5.200   3.286   8.851
 5432WAT      O16537   3.038   3.969   6.725
 5432WAT     H116538   2.978   3.888   6.728
 5432WAT     H216539   2.995   4.039   6.668
 5433WAT      O16540   7.925   3.805   4.464
 5433WAT     H116541   7.978   3.873   4.414
 5433WAT     H216542   7.987   3.750   4.521
 5434WAT      O16543   1.702   6.852   3.122
 5434WAT     H116544   1.727   6.782   3.189
 5434WAT     H216545   1.633   6.913   3.161
 5435WAT      O16546   4.904   8.580   2.999
 5435WAT     H116547   4.815   8.552   2.962
 5435WAT     H216548   4.977   8.532   2.950
 5436WAT      O16549   0.123   8.655   0.245
 5436WAT     H116550   0.070   8.587   0.195
 5436WAT     H216551   0.215   8.662   0.207
 5437WAT      O16552   1.441   8.238   2.495
 5437WAT     H116553   1.380   8.313   2.469
 5437WAT     H216554   1.520   8.275   2.544
 5438WAT      O16555   2.533   3.635   6.551
 5438WAT     H116556   2.592   3.601   6.478
 5438WAT     H216557   2.589   3.667   6.627
 5439WAT      O16558   0.506   8.188   8.706
 5439WAT     H116559   0.569   8.257   8.740
 5439WAT     H216560   0.434   8.232   8.653
 5440WAT      O16561   5.913   8.215   9.425
 5440WAT     H116562   5.832   8.169   9.462
 5440WAT     H216563   5.978   8.146   9.393
 5441WAT      O16564   4.320   3.260   9.117
 5441WAT     H116565   4.318   3.272   9.017
 5441WAT     H216566   4.411   3.227   9.144
 5442WAT      O16567   9.227   2.138   1.706
 5442WAT     H116568   9.290   2.133   1.628
 5442WAT     H216569   9.247   2.064   1.770
 5443WAT      O16570   0.616   7.038   5.215
 5443WAT     H116571   0.666   7.015   5.131
 5443WAT     H216572   0.583   6.953   5.258
 5444WAT      O16573   2.386   4.538   9.117
 5444WAT     H116574   2.406   4.484   9.035
 5444WAT     H216575   2.455   4.609   9.127
 5445WAT      O16576   3.934   3.309   4.156
 5445WAT     H116577   3.964   3.389   4.105
 5445WAT     H216578   3.888   3.246   4.094
 5446WAT      O16579   2.832   0.212   4.521
 5446WAT     H116580   2.842   0.225   4.422
 5446WAT     H216581   2.900   0.268   4.568
 5447WAT      O16582   9.610   0.015   0.253
 5447WAT     H116583   9.669   0.091   0.280
 5447WAT     H216584   9.656  -0.072   0.273
 5448WAT      O16585   5.194   7.371   8.996
 5448WAT     H116586   5.161   7.465   8.996
 5448WAT     H216587   5.147   7.319   9.067
 5449WAT      O16588   1.218   8.167   7.866
 5449WAT     H116589   1.294   8.206   7.814
 5449WAT     H216590   1.233   8.183   7.964
 5450WAT      O16591   3.977   7.692   2.548
 5450WAT     H116592   3.999   7.712   2.453
 5450WAT     H216593   4.038   7.744   2.608
 5451WAT      O16594   6.511   7.684   0.276
 5451WAT     H116595   6.413   7.667   0.283
 5451WAT     H216596   6.558   7.637   0.351
 5452WAT      O16597   8.917   9.285   7.608
 5452WAT     H116598   8.837   9.335   7.575
 5452WAT     H216599   8.900   9.187   7.603
 5453WAT      O16600   1.776   7.160   8.050
 5453WAT     H116601   1.691   7.180   8.002
 5453WAT     H216602   1.758   7.150   8.148
 5454WAT      O16603   4.586   6.888   2.087
 5454WAT     H116604   4.572   6.973   2.139
 5454WAT     H216605   4.619   6.817   2.149
 5455WAT      O16606   5.329   7.085   4.999
 5455WAT     H116607   5.280   7.019   4.942
 5455WAT     H216608   5.335   7.173   4.951
 5456WAT      O16609   1.882   7.490   2.205
 5456WAT     H116610   1.785   7.512   2.214
 5456WAT     H216611   1.929   7.565   2.158
 5457WAT      O16612   9.645   1.911   5.953
 5457WAT     H116613   9.649   2.006   5.982
 5457WAT     H216614   9.672   1.903   5.857
 5458WAT      O16615   2.905   5.631   8.800
 5458WAT     H116616   2.833   5.611   8.733
 5458WAT     H216617   2.966   5.701   8.765
 5459WAT      O16618   4.281   8.528   7.765
 5459WAT     H116619   4.182   8.534   7.759
 5459WAT     H216620   4.307   8.490   7.854
 5460WAT      O16621   6.442   3.452   7.972
 5460WAT     H116622   6.468   3.505   8.053
 5460WAT     H216623   6.415   3.360   8.000
 5461WAT      O16624   5.937   0.213   5.619
 5461WAT     H116625   5.930   0.313   5.618
 5461WAT     H216626   5.958   0.182   5.712
 5462WAT      O16627   3.879   6.788   8.520
 5462WAT     H116628   3.841   6.755   8.433
 5462WAT     H216629   3.979   6.791   8.513
 5463WAT      O16630   1.560   6.345   8.487
 5463WAT     H116631   1.546   6.409   8.563
 5463WAT     H216632   1.491   6.273   8.492
 5464WAT      O16633   7.496   9.217   4.953
 5464WAT     H116634   7.430   9.152   4.991
 5464WAT     H216635   7.499   9.299   5.011
 5465WAT      O16636   9.153   5.304   7.606
 5465WAT     H116637   9.109   5.318   7.517
 5465WAT     H216638   9.098   5.347   7.677
 5466WAT      O16639   4.267   2.385   2.914
 5466WAT     H116640   4.252   2.313   2.983
 5466WAT     H216641   4.191   2.384   2.849
 5467WAT      O16642   7.579   2.668   7.459
 5467WAT     H116643   7.506   2.707   7.516
 5467WAT     H216644   7.542   2.639   7.371
 5468WAT      O16645   0.811   2.370   1.504
 5468WAT     H116646   0.747   2.426   1.452
 5468WAT     H216647   0.805   2.275   1.473
 5469WAT      O16648   0.792   6.877   2.818
 5469WAT     H116649   0.831   6.912   2.903
 5469WAT     H216650   0.759   6.954   2.763
 5470WAT      O16651   1.158   5.578   4.043
 5470WAT     H116652   1.236   5.562   4.104
 5470WAT     H216653   1.156   5.507   3.972
 5471WAT      O16654   7.558   3.444   0.640
 5471WAT     H116655   7.568   3.406   0.732
 5471WAT     H216656   7.590   3.376   0.573
 5472WAT      O16657   6.313   0.413   0.089
 5472WAT     H116658   6.321   0.413  -0.011
 5472WAT     H216659   6.404   0.406   0.129
 5473WAT      O16660   5.566   0.034   9.127
 5473WAT     H116661   5.561   0.117   9.072
 5473WAT     H216662   5.532  -0.043   9.073
 5474WAT      O16663   3.076   8.116   1.032
 5474WAT     H116664   3.173   8.139   1.033
 5474WAT     H216665   3.050   8.085   0.941
 5475WAT      O16666   0.613   3.236   7.328
 5475WAT     H116667   0.526   3.227   7.378
 5475WAT     H216668   0.620   3.162   7.261
 5476WAT      O16669   3.691   0.221   0.087
 5476WAT     H116670   3.668   0.317   0.101
 5476WAT     H216671   3.611   0.171   0.055
 5477WAT      O16672   9.617   0.411   2.130
 5477WAT     H116673   9.681   0.400   2.054
 5477WAT     H216674   9.661   0.463   2.204
 5478WAT      O16675   5.143   5.456   8.625
 5478WAT     H116676   5.131   5.359   8.606
 5478WAT     H216677   5.224   5.469   8.683
 5479WAT      O16678   1.854   9.251   1.433
 5479WAT     H116679   1.793   9.173   1.447
 5479WAT     H216680   1.830   9.298   1.348
 5480WAT      O16681   3.810   5.745   2.290
 5480WAT     H116682   3.902   5.777   2.266
 5480WAT     H216683   3.755   5.737   2.207
 5481WAT      O16684   3.719   5.458   5.639
 5481WAT     H116685   3.810   5.498   5.650
 5481WAT     H216686   3.653   5.510   5.692
 5482WAT      O16687   2.548   0.508   2.828
 5482WAT     H116688   2.553   0.599   2.788
 5482WAT     H216689   2.452   0.484   2.843
 5483WAT      O16690   6.231   3.479   1.287
 5483WAT     H116691   6.319   3.462   1.243
 5483WAT     H216692   6.242   3.550   1.357
 5484WAT      O16693   2.199   1.456   9.230
 5484WAT     H116694   2.148   1.482   9.148
 5484WAT     H216695   2.295   1.481   9.219
 5485WAT      O16696   3.412   5.184   1.764
 5485WAT     H116697   3.337   5.199   1.828
 5485WAT     H216698   3.487   5.138   1.811
 5486WAT      O16699   8.260   0.557   7.141
 5486WAT     H116700   8.186   0.620   7.164
 5486WAT     H216701   8.279   0.498   7.219
 5487WAT      O16702   2.315   8.152   0.353
 5487WAT     H116703   2.239   8.217   0.355
 5487WAT     H216704   2.280   8.060   0.331
 5488WAT      O16705   7.055   5.705   3.030
 5488WAT     H116706   6.971   5.695   2.977
 5488WAT     H216707   7.080   5.617   3.069
 5489WAT      O16708   4.253   3.638   3.373
 5489WAT     H116709   4.209   3.559   3.330
 5489WAT     H216710   4.315   3.607   3.445
 5490WAT      O16711   0.386   8.080   1.838
 5490WAT     H116712   0.324   8.002   1.832
 5490WAT     H216713   0.446   8.082   1.758
 5491WAT      O16714   0.064   3.592   4.557
 5491WAT     H116715   0.098   3.611   4.465
 5491WAT     H216716   0.102   3.659   4.621
 5492WAT      O16717   0.477   6.815   2.425
 5492WAT     H116718   0.409   6.853   2.362
 5492WAT     H216719   0.437   6.737   2.473
 5493WAT      O16720   0.609   8.478   2.847
 5493WAT     H116721   0.681   8.409   2.860
 5493WAT     H216722   0.524   8.447   2.889
 5494WAT      O16723   6.882   1.493   3.342
 5494WAT     H116724   6.791   1.491   3.383
 5494WAT     H216725   6.888   1.424   3.270
 5495WAT      O16726   1.269   3.288   4.485
 5495WAT     H116727   1.217   3.236   4.417
 5495WAT     H216728   1.346   3.333   4.440
 5496WAT      O16729   5.349   5.582   4.332
 5496WAT     H116730   5.421   5.544   4.275
 5496WAT     H216731   5.382   5.665   4.377
 5497WAT      O16732   2.652   9.169   4.304
 5497WAT     H116733   2.661   9.264   4.273
 5497WAT     H216734   2.716   9.152   4.379
 5498WAT      O16735   4.667   0.362   8.671
 5498WAT     H116736   4.585   0.335   8.720
 5498WAT     H216737   4.741   0.378   8.736
 5499WAT      O16738   8.703   2.267   1.841
 5499WAT     H116739   8.722   2.190   1.902
 5499WAT     H216740   8.617   2.311   1.868
 5500WAT      O16741   4.933   8.491   5.644
 5500WAT     H116742   4.968   8.401   5.671
 5500WAT     H216743   4.872   8.525   5.715
 5501WAT      O16744   4.438   8.493   3.767
 5501WAT     H116745   4.446   8.555   3.689
 5501WAT     H216746   4.527   8.450   3.784
 5502WAT      O16747   8.099   3.958   4.285
 5502WAT     H116748   8.187   3.913   4.302
 5502WAT     H216749   8.109   4.057   4.296
 5503WAT      O16750   7.131   0.715   8.271
 5503WAT     H116751   7.072   0.755   8.341
 5503WAT     H216752   7.227   0.736   8.291
 5504WAT      O16753   7.764   6.797   9.223
 5504WAT     H116754   7.837   6.748   9.175
 5504WAT     H216755   7.804   6.853   9.296
 5505WAT      O16756   6.757   6.404   2.684
 5505WAT     H116757   6.851   6.436   2.670
 5505WAT     H216758   6.708   6.470   2.742
 5506WAT      O16759   9.813   7.709   0.233
 5506WAT     H116760   9.814   7.636   0.301
 5506WAT     H216761   9.725   7.756   0.235
 5507WAT      O16762   3.265   1.538   1.795
 5507WAT     H116763   3.326   1.459   1.798
 5507WAT     H216764   3.309   1.616   1.838
 5508WAT      O16765   9.195   6.754   5.488
 5508WAT     H116766   9.233   6.746   5.580
 5508WAT     H216767   9.186   6.851   5.464
 5509WAT      O16768   6.463   3.836   9.746
 5509WAT     H116769   6.546   3.867   9.700
 5509WAT     H216770   6.404   3.789   9.680
 5510WAT      O16771   9.734   3.020   3.470
 5510WAT     H116772   9.680   3.011   3.386
 5510WAT     H216773   9.685   2.978   3.546
 5511WAT      O16774   7.384   0.257   3.618
 5511WAT     H116775   7.342   0.286   3.532
 5511WAT     H216776   7.318   0.266   3.693
 5512WAT      O16777   3.355   0.897   8.001
 5512WAT     H116778   3.437   0.845   8.025
 5512WAT     H216779   3.293   0.899   8.080
 5513WAT      O16780   5.801   8.729   2.506
 5513WAT     H116781   5.853   8.647   2.531
 5513WAT     H216782   5.718   8.702   2.457
 5514WAT      O16783   3.605   9.518   5.286
 5514WAT     H116784   3.543   9.440   5.274
 5514WAT     H216785   3.699   9.486   5.290
 5515WAT      O16786   1.496   5.398   0.862
 5515WAT     H116787   1.444   5.365   0.941
 5515WAT     H216788   1.577   5.340   0.849
 5516WAT      O16789   9.279   9.807   4.979
 5516WAT     H116790   9.295   9.717   5.020
 5516WAT     H216791   9.265   9.874   5.052
 5517WAT      O16792   3.812   1.411   1.451
 5517WAT     H116793   3.731   1.468   1.467
 5517WAT     H216794   3.865   1.451   1.376
 5518WAT      O16795   9.401   8.543   9.517
 5518WAT     H116796   9.472   8.520   9.583
 5518WAT     H216797   9.376   8.461   9.464
 5519WAT      O16798   3.443   0.258   0.674
 5519WAT     H116799   3.381   0.179   0.670
 5519WAT     H216800   3.456   0.285   0.769
 5520WAT      O16801   3.939   2.975   1.191
 5520WAT     H116802   3.980   2.967   1.282
 5520WAT     H216803   4.007   3.006   1.126
 5521WAT      O16804   5.523   4.242   0.030
 5521WAT     H116805   5.528   4.167   0.097
 5521WAT     H216806   5.500   4.205  -0.060
 5522WAT      O16807   8.077   9.046   4.350
 5522WAT     H116808   7.983   9.071   4.325
 5522WAT     H216809   8.076   8.995   4.436
 5523WAT      O16810   2.251   1.533   3.175
 5523WAT     H116811   2.197   1.475   3.114
 5523WAT     H216812   2.322   1.478   3.219
 5524WAT      O16813   1.501   5.199   7.176
 5524WAT     H116814   1.571   5.231   7.240
 5524WAT     H216815   1.418   5.173   7.226
 5525WAT      O16816   2.563   8.798   2.595
 5525WAT     H116817   2.524   8.756   2.514
 5525WAT     H216818   2.549   8.739   2.674
 5526WAT      O16819   9.848   5.777   5.056
 5526WAT     H116820   9.910   5.730   5.119
 5526WAT     H216821   9.876   5.761   4.962
 5527WAT      O16822   4.531   6.165   2.450
 5527WAT     H116823   4.497   6.183   2.358
 5527WAT     H216824   4.491   6.080   2.485
 5528WAT      O16825   3.425   4.932   6.671
 5528WAT     H116826   3.450   5.027   6.654
 5528WAT     H216827   3.438   4.911   6.768
 5529WAT      O16828   1.119   8.160   1.149
 5529WAT     H116829   1.059   8.118   1.217
 5529WAT     H216830   1.170   8.089   1.100
 5530WAT      O16831   4.214   6.611   5.308
 5530WAT     H116832   4.245   6.626   5.214
 5530WAT     H216833   4.137   6.672   5.328
 5531WAT      O16834   1.624   5.919   4.729
 5531WAT     H116835   1.646   6.013   4.755
 5531WAT     H216836   1.530   5.898   4.756
 5532WAT      O16837   0.796   2.354   0.156
 5532WAT     H116838   0.850   2.269   0.151
 5532WAT     H216839   0.716   2.347   0.097
 5533WAT      O16840   1.454   8.222   8.903
 5533WAT     H116841   1.550   8.249   8.889
 5533WAT     H216842   1.397   8.304   8.909
 5534WAT      O16843   7.812   5.291   5.935
 5534WAT     H116844   7.845   5.369   5.881
 5534WAT     H216845   7.859   5.288   6.023
 5535WAT      O16846   0.042   7.150   3.875
 5535WAT     H116847   0.116   7.139   3.942
 5535WAT     H216848   0.016   7.246   3.870
 5536WAT      O16849   3.495   9.058   0.354
 5536WAT     H116850   3.548   8.992   0.405
 5536WAT     H216851   3.556   9.118   0.302
 5537WAT      O16852   2.927   1.287   1.619
 5537WAT     H116853   2.837   1.249   1.601
 5537WAT     H216854   2.951   1.352   1.547
 5538WAT      O16855   5.600   3.848   7.667
 5538WAT     H116856   5.584   3.809   7.576
 5538WAT     H216857   5.672   3.916   7.662
 5539WAT      O16858   8.760   7.935   3.168
 5539WAT     H116859   8.774   8.023   3.122
 5539WAT     H216860   8.743   7.951   3.265
 5540WAT      O16861   9.752   2.255   2.099
 5540WAT     H116862   9.701   2.326   2.050
 5540WAT     H216863   9.771   2.285   2.192
 5541WAT      O16864   9.577   4.257   1.055
 5541WAT     H116865   9.531   4.340   1.023
 5541WAT     H216866   9.514   4.203   1.110
 5542WAT      O16867   1.430   3.730   5.744
 5542WAT     H116868   1.488   3.650   5.761
 5542WAT     H216869   1.486   3.813   5.744
 5543WAT      O16870   2.649   5.219   8.066
 5543WAT     H116871   2.604   5.239   8.153
 5543WAT     H216872   2.598   5.262   7.991
 5544WAT      O16873   2.700   9.796   6.506
 5544WAT     H116874   2.631   9.767   6.440
 5544WAT     H216875   2.787   9.811   6.459
 5545WAT      O16876   0.817   4.141   1.923
 5545WAT     H116877   0.900   4.196   1.936
 5545WAT     H216878   0.793   4.097   2.010
 5546WAT      O16879   8.385   8.112   2.728
 5546WAT     H116880   8.476   8.100   2.689
 5546WAT     H216881   8.392   8.152   2.819
 5547WAT      O16882   0.457   5.702   1.355
 5547WAT     H116883   0.434   5.607   1.377
 5547WAT     H216884   0.552   5.719   1.379
 5548WAT      O16885   9.207   2.442   2.615
 5548WAT     H116886   9.179   2.358   2.570
 5548WAT     H216887   9.302   2.463   2.591
 5549WAT      O16888   3.213   8.371   0.294
 5549WAT     H116889   3.286   8.304   0.308
 5549WAT     H216890   3.132   8.345   0.348
 5550WAT      O16891   0.871   7.587   9.673
 5550WAT     H116892   0.890   7.666   9.615
 5550WAT     H216893   0.883   7.613   9.769
 5551WAT      O16894   9.488   0.176   5.653
 5551WAT     H116895   9.488   0.082   5.619
 5551WAT     H216896   9.437   0.234   5.589
 5552WAT      O16897   5.411   5.644   8.316
 5552WAT     H116898   5.469   5.566   8.291
 5552WAT     H216899   5.411   5.654   8.416
 5553WAT      O16900   7.309   1.349   9.560
 5553WAT     H116901   7.244   1.424   9.546
 5553WAT     H216902   7.382   1.380   9.620
 5554WAT      O16903   8.916   0.608   6.100
 5554WAT     H116904   8.843   0.572   6.159
 5554WAT     H216905   8.907   0.570   6.008
 5555WAT      O16906   2.957   6.879   6.356
 5555WAT     H116907   3.000   6.929   6.281
 5555WAT     H216908   3.023   6.816   6.397
 5556WAT      O16909   4.970   5.739   0.833
 5556WAT     H116910   5.047   5.685   0.800
 5556WAT     H216911   4.989   5.774   0.925
 5557WAT      O16912   4.784   0.165   0.673
 5557WAT     H116913   4.841   0.212   0.740
 5557WAT     H216914   4.841   0.107   0.615
 5558WAT      O16915   3.797   0.861   6.005
 5558WAT     H116916   3.890   0.831   6.024
 5558WAT     H216917   3.732   0.795   6.045
 5559WAT      O16918   3.503   8.169   4.728
 5559WAT     H116919   3.450   8.200   4.649
 5559WAT     H216920   3.442   8.152   4.805
 5560WAT      O16921   5.240   6.845   7.905
 5560WAT     H116922   5.238   6.754   7.948
 5560WAT     H216923   5.325   6.855   7.854
 5561WAT      O16924   8.040   9.294   7.907
 5561WAT     H116925   7.980   9.369   7.936
 5561WAT     H216926   8.116   9.285   7.972
 5562WAT      O16927   4.520   5.747   2.160
 5562WAT     H116928   4.567   5.703   2.084
 5562WAT     H216929   4.550   5.708   2.247
 5563WAT      O16930   6.972   3.261   8.284
 5563WAT     H116931   6.969   3.311   8.371
 5563WAT     H216932   7.067   3.243   8.259
 5564WAT      O16933   8.106   7.259   7.632
 5564WAT     H116934   8.075   7.265   7.727
 5564WAT     H216935   8.044   7.201   7.580
 5565WAT      O16936   9.802   8.590   2.625
 5565WAT     H116937   9.721   8.530   2.628
 5565WAT     H216938   9.835   8.605   2.718
 5566WAT      O16939   6.404   9.066   7.509
 5566WAT     H116940   6.352   9.030   7.586
 5566WAT     H216941   6.459   8.993   7.468
 5567WAT      O16942   8.869   8.511   0.360
 5567WAT     H116943   8.810   8.443   0.403
 5567WAT     H216944   8.892   8.481   0.267
 5568WAT      O16945   0.933   5.177   9.056
 5568WAT     H116946   0.881   5.240   8.998
 5568WAT     H216947   0.871   5.109   9.096
 5569WAT      O16948   1.557   3.466   4.835
 5569WAT     H116949   1.473   3.416   4.812
 5569WAT     H216950   1.549   3.504   4.928
 5570WAT      O16951   6.584   5.211   2.831
 5570WAT     H116952   6.624   5.169   2.750
 5570WAT     H216953   6.656   5.254   2.885
 5571WAT      O16954   0.731   4.073   5.507
 5571WAT     H116955   0.677   4.130   5.446
 5571WAT     H216956   0.825   4.106   5.509
 5572WAT      O16957   7.954   4.599   2.808
 5572WAT     H116958   7.952   4.528   2.879
 5572WAT     H216959   7.919   4.561   2.722
 5573WAT      O16960   8.097   9.527   1.055
 5573WAT     H116961   7.999   9.520   1.075
 5573WAT     H216962   8.115   9.486   0.966
 5574WAT      O16963   6.825   5.258   7.739
 5574WAT     H116964   6.838   5.285   7.835
 5574WAT     H216965   6.737   5.210   7.730
 5575WAT      O16966   0.085   9.339   3.758
 5575WAT     H116967   0.142   9.349   3.840
 5575WAT     H216968  -0.011   9.337   3.785
 5576WAT      O16969   7.986   0.311   7.791
 5576WAT     H116970   8.048   0.336   7.864
 5576WAT     H216971   7.891   0.326   7.821
 5577WAT      O16972   5.873   6.277   2.437
 5577WAT     H116973   5.876   6.280   2.537
 5577WAT     H216974   5.893   6.367   2.399
 5578WAT      O16975   1.997   2.890   5.131
 5578WAT     H116976   2.090   2.913   5.160
 5578WAT     H216977   1.993   2.882   5.032
 5579WAT      O16978   6.158   3.980   4.801
 5579WAT     H116979   6.129   3.888   4.773
 5579WAT     H216980   6.146   4.043   4.725
 5580WAT      O16981   5.948   1.436   6.259
 5580WAT     H116982   5.928   1.405   6.166
 5580WAT     H216983   5.939   1.535   6.265
 5581WAT      O16984   7.286   0.298   5.660
 5581WAT     H116985   7.224   0.372   5.687
 5581WAT     H216986   7.236   0.211   5.661
 5582WAT      O16987   0.253   9.329   9.651
 5582WAT     H116988   0.347   9.304   9.675
 5582WAT     H216989   0.190   9.261   9.687
 5583WAT      O16990   2.945   0.517   8.117
 5583WAT     H116991   2.916   0.605   8.156
 5583WAT     H216992   2.919   0.512   8.021
 5584WAT      O16993   2.173   0.679   7.466
 5584WAT     H116994   2.228   0.682   7.549
 5584WAT     H216995   2.132   0.769   7.449
 5585WAT      O16996   3.077   2.036   1.817
 5585WAT     H116997   3.064   1.937   1.805
 5585WAT     H216998   3.002   2.073   1.873
 5586WAT      O16999   2.837   4.451   6.656
 5586WAT     H117000   2.802   4.360   6.636
 5586WAT     H217001   2.762   4.511   6.684
 5587WAT      O17002   9.154   6.554   9.303
 5587WAT     H117003   9.230   6.583   9.245
 5587WAT     H217004   9.140   6.455   9.293
 5588WAT      O17005   9.757   5.171   8.391
 5588WAT     H117006   9.735   5.261   8.355
 5588WAT     H217007   9.674   5.115   8.392
 5589WAT      O17008   7.026   7.792   9.844
 5589WAT     H117009   6.979   7.812   9.930
 5589WAT     H217010   7.019   7.870   9.782
 5590WAT      O17011   9.833   6.770   9.014
 5590WAT     H117012   9.793   6.688   8.973
 5590WAT     H217013   9.806   6.850   8.961
 5591WAT      O17014   1.475   4.681   0.664
 5591WAT     H117015   1.431   4.711   0.748
 5591WAT     H217016   1.415   4.615   0.618
 5592WAT      O17017   7.615   4.373   1.169
 5592WAT     H117018   7.549   4.430   1.219
 5592WAT     H217019   7.595   4.377   1.071
 5593WAT      O17020   5.406   6.169   5.366
 5593WAT     H117021   5.391   6.071   5.378
 5593WAT     H217022   5.435   6.187   5.272
 5594WAT      O17023   8.139   3.316   4.662
 5594WAT     H117024   8.092   3.399   4.632
 5594WAT     H217025   8.133   3.308   4.761
 5595WAT      O17026   4.500   2.553   4.214
 5595WAT     H117027   4.548   2.466   4.221
 5595WAT     H217028   4.483   2.575   4.118
 5596WAT      O17029   9.356   6.739   4.455
 5596WAT     H117030   9.312   6.828   4.446
 5596WAT     H217031   9.395   6.712   4.367
 5597WAT      O17032   2.015   4.573   5.390
 5597WAT     H117033   2.071   4.641   5.438
 5597WAT     H217034   1.988   4.501   5.454
 5598WAT      O17035   5.050   3.763   6.947
 5598WAT     H117036   5.023   3.678   6.903
 5598WAT     H217037   5.150   3.765   6.957
 5599WAT      O17038   8.700   5.143   1.922
 5599WAT     H117039   8.722   5.082   1.846
 5599WAT     H217040   8.667   5.089   1.999
 5600WAT      O17041   0.669   3.845   0.899
 5600WAT     H117042   0.688   3.810   0.807
 5600WAT     H217043   0.756   3.855   0.948
 5601WAT      O17044   6.526   0.698   8.879
 5601WAT     H117045   6.563   0.606   8.892
 5601WAT     H217046   6.438   0.706   8.926
 5602WAT      O17047   9.403   7.856   9.452
 5602WAT     H117048   9.438   7.883   9.542
 5602WAT     H217049   9.433   7.922   9.383
 5603WAT      O17050   6.643   3.995   1.496
 5603WAT     H117051   6.716   3.928   1.510
 5603WAT     H217052   6.556   3.957   1.528
 5604WAT      O17053   8.780   0.146   7.438
 5604WAT     H117054   8.845   0.076   7.407
 5604WAT     H217055   8.830   0.221   7.481
 5605WAT      O17056   6.783   4.221   3.845
 5605WAT     H117057   6.756   4.281   3.771
 5605WAT     H217058   6.845   4.269   3.907
 5606WAT      O17059   9.213   5.081   7.387
 5606WAT     H117060   9.309   5.092   7.413
 5606WAT     H217061   9.156   5.146   7.437
 5607WAT      O17062   6.512   6.821   5.149
 5607WAT     H117063   6.456   6.852   5.072
 5607WAT     H217064   6.532   6.898   5.210
 5608WAT      O17065   4.758   2.648   9.569
 5608WAT     H117066   4.681   2.679   9.625
 5608WAT     H217067   4.738   2.664   9.473
 5609WAT      O17068   8.706   0.040   5.449
 5609WAT     H117069   8.730   0.068   5.542
 5609WAT     H217070   8.662   0.116   5.401
 5610WAT      O17071   6.064   3.927   1.360
 5610WAT     H117072   6.066   3.905   1.457
 5610WAT     H217073   6.051   4.025   1.348
 5611WAT      O17074   6.326   1.231   1.497
 5611WAT     H117075   6.391   1.303   1.471
 5611WAT     H217076   6.321   1.163   1.423
 5612WAT      O17077   5.728   0.312   2.013
 5612WAT     H117078   5.636   0.285   2.039
 5612WAT     H217079   5.774   0.235   1.967
 5613WAT      O17080   2.218   0.607   6.254
 5613WAT     H117081   2.166   0.550   6.190
 5613WAT     H217082   2.275   0.549   6.312
 5614WAT      O17083   4.390   6.190   3.251
 5614WAT     H117084   4.436   6.103   3.264
 5614WAT     H217085   4.304   6.176   3.201
 5615WAT      O17086   6.740   3.357   6.763
 5615WAT     H117087   6.735   3.347   6.664
 5615WAT     H217088   6.793   3.282   6.802
 5616WAT      O17089   0.282   0.422   2.888
 5616WAT     H117090   0.363   0.451   2.939
 5616WAT     H217091   0.202   0.429   2.947
 5617WAT      O17092   8.453   3.048   9.710
 5617WAT     H117093   8.547   3.044   9.678
 5617WAT     H217094   8.427   2.960   9.751
 5618WAT      O17095   1.077   8.006   2.839
 5618WAT     H117096   1.106   8.100   2.856
 5618WAT     H217097   0.979   7.998   2.855
 5619WAT      O17098   4.785   0.750   7.767
 5619WAT     H117099   4.765   0.776   7.673
 5619WAT     H217100   4.748   0.819   7.829
 5620WAT      O17101   8.612   0.184   6.671
 5620WAT     H117102   8.525   0.187   6.719
 5620WAT     H217103   8.681   0.142   6.731
 5621WAT      O17104   7.243   3.062   2.074
 5621WAT     H117105   7.334   3.021   2.063
 5621WAT     H217106   7.248   3.138   2.138
 5622WAT      O17107   8.540   0.171   2.193
 5622WAT     H117108   8.533   0.180   2.292
 5622WAT     H217109   8.501   0.083   2.165
 5623WAT      O17110   2.627   3.887   9.553
 5623WAT     H117111   2.707   3.908   9.611
 5623WAT     H217112   2.615   3.788   9.548
 5624WAT      O17113   2.274   3.712   4.904
 5624WAT     H117114   2.306   3.803   4.930
 5624WAT     H217115   2.181   3.717   4.870
 5625WAT      O17116   5.381   6.216   1.237
 5625WAT     H117117   5.303   6.185   1.182
 5625WAT     H217118   5.457   6.239   1.176
 5626WAT      O17119   7.646   4.043   9.155
 5626WAT     H117120   7.641   4.142   9.168
 5626WAT     H217121   7.632   3.998   9.244
 5627WAT      O17122   2.330   1.697   4.545
 5627WAT     H117123   2.311   1.602   4.519
 5627WAT     H217124   2.248   1.738   4.584
 5628WAT      O17125   9.391   3.525   2.294
 5628WAT     H117126   9.441   3.532   2.381
 5628WAT     H217127   9.416   3.438   2.249
 5629WAT      O17128   3.410   6.047   2.572
 5629WAT     H117129   3.376   6.006   2.656
 5629WAT     H217130   3.443   6.140   2.590
 5630WAT      O17131   0.814   1.353   8.527
 5630WAT     H117132   0.787   1.278   8.587
 5630WAT     H217133   0.736   1.413   8.511
 5631WAT      O17134   5.361   2.338   1.982
 5631WAT     H117135   5.299   2.395   1.928
 5631WAT     H217136   5.361   2.245   1.946
 5632WAT      O17137   2.582   4.695   0.476
 5632WAT     H117138   2.661   4.727   0.529
 5632WAT     H217139   2.528   4.633   0.533
 5633WAT      O17140   2.923   8.690   7.949
 5633WAT     H117141   3.004   8.678   8.007
 5633WAT     H217142   2.904   8.788   7.940
 5634WAT      O17143   2.390   1.608   5.532
 5634WAT     H117144   2.386   1.560   5.620
 5634WAT     H217145   2.485   1.630   5.510
 5635WAT      O17146   1.457   6.478   7.443
 5635WAT     H117147   1.441   6.495   7.346
 5635WAT     H217148   1.401   6.400   7.473
 5636WAT      O17149   0.621   1.623   8.756
 5636WAT     H117150   0.607   1.553   8.826
 5636WAT     H217151   0.712   1.662   8.766
 5637WAT      O17152   4.716   3.589   1.527
 5637WAT     H117153   4.671   3.655   1.588
 5637WAT     H217154   4.807   3.624   1.502
 5638WAT      O17155   7.701   0.824   1.686
 5638WAT     H117156   7.690   0.728   1.663
 5638WAT     H217157   7.670   0.881   1.610
 5639WAT      O17158   9.796   4.822   1.992
 5639WAT     H117159   9.877   4.768   2.015
 5639WAT     H217160   9.771   4.878   2.070
 5640WAT      O17161   0.032   3.696   0.304
 5640WAT     H117162   0.124   3.706   0.266
 5640WAT     H217163   0.037   3.692   0.404
 5641WAT      O17164   6.405   5.715   0.624
 5641WAT     H117165   6.487   5.727   0.569
 5641WAT     H217166   6.410   5.773   0.706
 5642WAT      O17167   4.654   2.395   1.826
 5642WAT     H117168   4.691   2.352   1.908
 5642WAT     H217169   4.730   2.426   1.768
 5643WAT      O17170   9.880   3.113   7.385
 5643WAT     H117171   9.814   3.091   7.457
 5643WAT     H217172   9.835   3.107   7.296
 5644WAT      O17173   6.841   6.917   0.807
 5644WAT     H117174   6.918   6.853   0.811
 5644WAT     H217175   6.873   7.009   0.830
 5645WAT      O17176   2.302   8.694   8.840
 5645WAT     H117177   2.266   8.729   8.753
 5645WAT     H217178   2.305   8.767   8.907
 5646WAT      O17179   3.402   4.032   9.657
 5646WAT     H117180   3.445   4.060   9.571
 5646WAT     H217181   3.456   4.066   9.734
 5647WAT      O17182   7.193   6.468   5.173
 5647WAT     H117183   7.216   6.371   5.183
 5647WAT     H217184   7.106   6.486   5.220
 5648WAT      O17185   8.365   4.747   7.620
 5648WAT     H117186   8.364   4.842   7.652
 5648WAT     H217187   8.309   4.738   7.538
 5649WAT      O17188   5.811   4.935   7.382
 5649WAT     H117189   5.803   5.019   7.329
 5649WAT     H217190   5.854   4.864   7.326
 5650WAT      O17191   6.489   1.116   3.930
 5650WAT     H117192   6.448   1.207   3.921
 5650WAT     H217193   6.554   1.101   3.856
 5651WAT      O17194   8.754   4.566   5.986
 5651WAT     H117195   8.840   4.617   5.983
 5651WAT     H217196   8.763   4.490   6.050
 5652WAT      O17197   3.574   0.455   3.595
 5652WAT     H117198   3.588   0.547   3.559
 5652WAT     H217199   3.662   0.414   3.619
 5653WAT      O17200   3.163   8.491   0.044
 5653WAT     H117201   3.235   8.542  -0.003
 5653WAT     H217202   3.198   8.455   0.131
 5654WAT      O17203   6.693   2.642   7.796
 5654WAT     H117204   6.640   2.705   7.740
 5654WAT     H217205   6.633   2.570   7.831
 5655WAT      O17206   6.045   5.455   7.821
 5655WAT     H117207   5.973   5.493   7.878
 5655WAT     H217208   6.005   5.417   7.737
 5656WAT      O17209   9.561   1.648   0.916
 5656WAT     H117210   9.597   1.555   0.910
 5656WAT     H217211   9.568   1.681   1.011
 5657WAT      O17212   4.692   3.105   7.531
 5657WAT     H117213   4.666   3.046   7.455
 5657WAT     H217214   4.791   3.114   7.534
 5658WAT      O17215   0.215   1.205   0.758
 5658WAT     H117216   0.220   1.110   0.788
 5658WAT     H217217   0.138   1.250   0.803
 5659WAT      O17218   6.601   3.831   9.230
 5659WAT     H117219   6.583   3.810   9.133
 5659WAT     H217220   6.549   3.913   9.256
 5660WAT      O17221   2.806   7.691   2.260
 5660WAT     H117222   2.798   7.597   2.292
 5660WAT     H217223   2.889   7.732   2.298
 5661WAT      O17224   0.655   3.810   8.579
 5661WAT     H117225   0.643   3.744   8.654
 5661WAT     H217226   0.647   3.903   8.615
 5662WAT      O17227   9.877   7.260   5.221
 5662WAT     H117228   9.905   7.269   5.317
 5662WAT     H217229   9.786   7.219   5.216
 5663WAT      O17230   2.590   0.603   7.439
 5663WAT     H117231   2.589   0.686   7.495
 5663WAT     H217232   2.523   0.612   7.366
 5664WAT      O17233   4.445   7.454   7.537
 5664WAT     H117234   4.454   7.368   7.488
 5664WAT     H217235   4.361   7.453   7.591
 5665WAT      O17236   3.718   7.181   2.996
 5665WAT     H117237   3.796   7.210   2.942
 5665WAT     H217238   3.746   7.170   3.092
 5666WAT      O17239   3.237   2.712   2.452
 5666WAT     H117240   3.283   2.625   2.470
 5666WAT     H217241   3.167   2.727   2.522
 5667WAT      O17242   1.412   6.546   6.848
 5667WAT     H117243   1.478   6.472   6.864
 5667WAT     H217244   1.431   6.622   6.910
 5668WAT      O17245   1.724   2.564   0.935
 5668WAT     H117246   1.655   2.496   0.961
 5668WAT     H217247   1.678   2.648   0.904
 5669WAT      O17248   1.576   3.964   1.403
 5669WAT     H117249   1.560   3.867   1.383
 5669WAT     H217250   1.590   4.014   1.318
 5670WAT      O17251   0.413   3.558   9.828
 5670WAT     H117252   0.437   3.484   9.765
 5670WAT     H217253   0.477   3.556   9.905
 5671WAT      O17254   3.270   8.317   9.119
 5671WAT     H117255   3.205   8.251   9.080
 5671WAT     H217256   3.308   8.279   9.204
 5672WAT      O17257   0.845   8.069   2.390
 5672WAT     H117258   0.853   8.135   2.316
 5672WAT     H217259   0.906   8.094   2.465
 5673WAT      O17260   7.383   7.921   6.586
 5673WAT     H117261   7.368   7.840   6.643
 5673WAT     H217262   7.458   7.904   6.522
 5674WAT      O17263   8.524   4.248   2.802
 5674WAT     H117264   8.561   4.284   2.716
 5674WAT     H217265   8.483   4.158   2.786
 5675WAT      O17266   6.036   6.578   4.097
 5675WAT     H117267   6.108   6.562   4.029
 5675WAT     H217268   6.075   6.623   4.177
 5676WAT      O17269   2.558   7.634   7.082
 5676WAT     H117270   2.632   7.701   7.082
 5676WAT     H217271   2.572   7.569   7.157
 5677WAT      O17272   5.130   6.885   0.563
 5677WAT     H117273   5.228   6.900   0.580
 5677WAT     H217274   5.086   6.852   0.646
 5678WAT      O17275   5.898   5.470   2.959
 5678WAT     H117276   5.970   5.445   2.895
 5678WAT     H217277   5.938   5.518   3.037
 5679WAT      O17278   5.423   5.070   7.408
 5679WAT     H117279   5.389   5.054   7.501
 5679WAT     H217280   5.360   5.031   7.342
 5680WAT      O17281   2.418   1.115   1.332
 5680WAT     H117282   2.421   1.187   1.400
 5680WAT     H217283   2.512   1.094   1.301
 5681WAT      O17284   1.558   2.356   1.051
 5681WAT     H117285   1.642   2.302   1.043
 5681WAT     H217286   1.535   2.367   1.147
 5682WAT      O17287   4.965   4.294   9.393
 5682WAT     H117288   4.865   4.286   9.395
 5682WAT     H217289   4.999   4.315   9.485
 5683WAT      O17290   1.385   0.655   3.473
 5683WAT     H117291   1.308   0.622   3.528
 5683WAT     H217292   1.350   0.708   3.396
 5684WAT      O17293   8.633   3.947   4.842
 5684WAT     H117294   8.564   3.884   4.806
 5684WAT     H217295   8.722   3.903   4.843
 5685WAT      O17296   5.508   1.688   1.280
 5685WAT     H117297   5.567   1.642   1.214
 5685WAT     H217298   5.518   1.646   1.370
 5686WAT      O17299   5.895   7.863   1.146
 5686WAT     H117300   5.889   7.949   1.094
 5686WAT     H217301   5.983   7.860   1.193
 5687WAT      O17302   0.260   8.624   7.997
 5687WAT     H117303   0.265   8.538   8.049
 5687WAT     H217304   0.165   8.656   7.995
 5688WAT      O17305   0.621   6.089   1.898
 5688WAT     H117306   0.684   6.040   1.958
 5688WAT     H217307   0.530   6.092   1.939
 5689WAT      O17308   0.034   4.512   3.207
 5689WAT     H117309   0.092   4.468   3.276
 5689WAT     H217310  -0.044   4.556   3.251
 5690WAT      O17311   8.659   9.329   4.922
 5690WAT     H117312   8.688   9.233   4.920
 5690WAT     H217313   8.566   9.335   4.960
 5691WAT      O17314   6.574   4.731   9.522
 5691WAT     H117315   6.660   4.745   9.473
 5691WAT     H217316   6.558   4.808   9.584
 5692WAT      O17317   2.485   7.274   7.229
 5692WAT     H117318   2.490   7.184   7.272
 5692WAT     H217319   2.407   7.278   7.167
 5693WAT      O17320   3.906   3.822   2.243
 5693WAT     H117321   3.836   3.882   2.282
 5693WAT     H217322   3.889   3.810   2.145
 5694WAT      O17323   4.209   7.546   8.426
 5694WAT     H117324   4.217   7.536   8.327
 5694WAT     H217325   4.292   7.591   8.461
 5695WAT      O17326   6.022   6.044   2.783
 5695WAT     H117327   5.989   6.137   2.764
 5695WAT     H217328   6.121   6.046   2.795
 5696WAT      O17329   1.423   7.056   2.814
 5696WAT     H117330   1.336   7.018   2.784
 5696WAT     H217331   1.496   6.989   2.800
 5697WAT      O17332   9.366   7.060   9.854
 5697WAT     H117333   9.344   6.994   9.926
 5697WAT     H217334   9.458   7.043   9.821
 5698WAT      O17335   9.387   0.919   1.903
 5698WAT     H117336   9.372   0.900   1.806
 5698WAT     H217337   9.320   0.986   1.935
 5699WAT      O17338   1.872   7.245   5.918
 5699WAT     H117339   1.772   7.248   5.925
 5699WAT     H217340   1.912   7.276   6.004
 5700WAT      O17341   2.120   7.294   1.373
 5700WAT     H117342   2.026   7.326   1.387
 5700WAT     H217343   2.183   7.362   1.409
 5701WAT      O17344   4.819   5.540   9.222
 5701WAT     H117345   4.847   5.529   9.127
 5701WAT     H217346   4.831   5.635   9.250
 5702WAT      O17347   2.351   6.220   7.015
 5702WAT     H117348   2.416   6.284   6.974
 5702WAT     H217349   2.356   6.227   7.114
 5703WAT      O17350   3.385   0.872   6.719
 5703WAT     H117351   3.299   0.886   6.671
 5703WAT     H217352   3.442   0.954   6.710
 5704WAT      O17353   3.225   8.386   5.650
 5704WAT     H117354   3.233   8.319   5.576
 5704WAT     H217355   3.252   8.476   5.618
 5705WAT      O17356   3.421   5.368   4.318
 5705WAT     H117357   3.407   5.411   4.229
 5705WAT     H217358   3.393   5.272   4.313
 5706WAT      O17359   2.920   5.844   9.366
 5706WAT     H117360   2.977   5.889   9.436
 5706WAT     H217361   2.885   5.758   9.402
 5707WAT      O17362   2.172   7.304   8.160
 5707WAT     H117363   2.090   7.284   8.106
 5707WAT     H217364   2.179   7.403   8.175
 5708WAT      O17365   4.200   2.835   3.586
 5708WAT     H117366   4.267   2.773   3.627
 5708WAT     H217367   4.109   2.793   3.592
 5709WAT      O17368   2.392   1.976   2.295
 5709WAT     H117369   2.475   2.023   2.268
 5709WAT     H217370   2.350   2.023   2.373
 5710WAT      O17371   5.997   8.532   2.581
 5710WAT     H117372   5.936   8.456   2.600
 5710WAT     H217373   6.071   8.501   2.521
 5711WAT      O17374   2.080   8.405   6.234
 5711WAT     H117375   2.179   8.412   6.243
 5711WAT     H217376   2.038   8.491   6.262
 5712WAT      O17377   9.248   3.834   4.882
 5712WAT     H117378   9.261   3.755   4.941
 5712WAT     H217379   9.245   3.805   4.786
 5713WAT      O17380   5.351   4.341   7.465
 5713WAT     H117381   5.351   4.373   7.371
 5713WAT     H217382   5.426   4.276   7.479
 5714WAT      O17383   6.782   1.574   4.253
 5714WAT     H117384   6.880   1.583   4.266
 5714WAT     H217385   6.763   1.545   4.159
 5715WAT      O17386   0.430   2.910   6.975
 5715WAT     H117387   0.371   2.905   6.894
 5715WAT     H217388   0.498   2.836   6.971
 5716WAT      O17389   7.792   9.113   3.250
 5716WAT     H117390   7.870   9.157   3.205
 5716WAT     H217391   7.724   9.087   3.181
 5717WAT      O17392   6.037   8.768   0.734
 5717WAT     H117393   6.133   8.795   0.744
 5717WAT     H217394   6.029   8.704   0.657
 5718WAT      O17395   8.768   2.981   8.866
 5718WAT     H117396   8.818   2.927   8.934
 5718WAT     H217397   8.669   2.974   8.884
 5719WAT      O17398   6.637   0.805   2.338
 5719WAT     H117399   6.595   0.842   2.255
 5719WAT     H217400   6.669   0.712   2.321
 5720WAT      O17401   7.792   3.967   8.065
 5720WAT     H117402   7.750   4.057   8.058
 5720WAT     H217403   7.723   3.897   8.046
 5721WAT      O17404   5.208   2.534   1.857
 5721WAT     H117405   5.131   2.519   1.795
 5721WAT     H217406   5.194   2.619   1.907
 5722WAT      O17407   1.373   1.156   4.306
 5722WAT     H117408   1.287   1.207   4.304
 5722WAT     H217409   1.360   1.070   4.355
 5723WAT      O17410   7.957   8.012   2.221
 5723WAT     H117411   8.055   8.034   2.228
 5723WAT     H217412   7.927   7.969   2.306
 5724WAT      O17413   8.373   7.516   1.607
 5724WAT     H117414   8.442   7.447   1.584
 5724WAT     H217415   8.414   7.588   1.663
 5725WAT      O17416   8.849   3.038   2.159
 5725WAT     H117417   8.909   3.118   2.150
 5725WAT     H217418   8.902   2.955   2.141
 5726WAT      O17419   1.946   6.610   4.163
 5726WAT     H117420   1.962   6.517   4.196
 5726WAT     H217421   1.944   6.673   4.241
 5727WAT      O17422   4.614   6.541   5.905
 5727WAT     H117423   4.568   6.622   5.870
 5727WAT     H217424   4.694   6.567   5.959
 5728WAT      O17425   1.138   0.333   8.460
 5728WAT     H117426   1.217   0.272   8.456
 5728WAT     H217427   1.144   0.400   8.386
 5729WAT      O17428   0.859   1.372   1.743
 5729WAT     H117429   0.881   1.447   1.804
 5729WAT     H217430   0.760   1.369   1.729
 5730WAT      O17431   3.577   8.823   8.641
 5730WAT     H117432   3.504   8.773   8.688
 5730WAT     H217433   3.594   8.781   8.552
 5731WAT      O17434   7.118   0.237   2.456
 5731WAT     H117435   7.190   0.252   2.388
 5731WAT     H217436   7.119   0.142   2.485
 5732WAT      O17437   0.686   2.840   3.387
 5732WAT     H117438   0.742   2.771   3.432
 5732WAT     H217439   0.683   2.822   3.289
 5733WAT      O17440   2.870   5.956   3.281
 5733WAT     H117441   2.947   6.016   3.304
 5733WAT     H217442   2.834   5.916   3.364
 5734WAT      O17443   5.426   7.931   1.024
 5734WAT     H117444   5.332   7.906   1.003
 5734WAT     H217445   5.462   7.869   1.094
 5735WAT      O17446   2.424   7.339   7.696
 5735WAT     H117447   2.368   7.421   7.689
 5735WAT     H217448   2.380   7.264   7.647
 5736WAT      O17449   5.995   8.256   4.089
 5736WAT     H117450   6.015   8.206   4.173
 5736WAT     H217451   5.951   8.343   4.112
 5737WAT      O17452   5.162   7.935   9.084
 5737WAT     H117453   5.140   7.981   8.998
 5737WAT     H217454   5.078   7.909   9.131
 5738WAT      O17455   5.862   0.232   2.782
 5738WAT     H117456   5.803   0.208   2.859
 5738WAT     H217457   5.807   0.275   2.710
 5739WAT      O17458   4.020   7.391   1.040
 5739WAT     H117459   4.070   7.448   0.975
 5739WAT     H217460   3.922   7.400   1.024
 5740WAT      O17461   6.037   2.990   4.014
 5740WAT     H117462   6.016   3.049   4.092
 5740WAT     H217463   6.073   3.045   3.939
 5741WAT      O17464   4.167   9.104   6.298
 5741WAT     H117465   4.204   9.041   6.230
 5741WAT     H217466   4.071   9.123   6.277
 5742WAT      O17467   2.369   7.206   1.524
 5742WAT     H117468   2.321   7.153   1.455
 5742WAT     H217469   2.330   7.299   1.527
 5743WAT      O17470   6.279   0.821   4.458
 5743WAT     H117471   6.322   0.740   4.497
 5743WAT     H217472   6.182   0.823   4.482
 5744WAT      O17473   6.218   8.561   8.298
 5744WAT     H117474   6.297   8.618   8.276
 5744WAT     H217475   6.136   8.600   8.255
 5745WAT      O17476   3.889   9.636   0.970
 5745WAT     H117477   3.792   9.631   0.991
 5745WAT     H217478   3.912   9.567   0.901
 5746WAT      O17479   4.798   4.372   4.573
 5746WAT     H117480   4.775   4.290   4.521
 5746WAT     H217481   4.897   4.385   4.573
 5747WAT      O17482   7.339   2.736   5.264
 5747WAT     H117483   7.367   2.686   5.346
 5747WAT     H217484   7.305   2.826   5.290
 5748WAT      O17485   0.129   1.510   5.697
 5748WAT     H117486   0.079   1.483   5.614
 5748WAT     H217487   0.069   1.501   5.776
 5749WAT      O17488   9.093   7.489   7.203
 5749WAT     H117489   9.175   7.547   7.202
 5749WAT     H217490   9.116   7.398   7.167
 5750WAT      O17491   5.860   2.681   5.304
 5750WAT     H117492   5.868   2.583   5.324
 5750WAT     H217493   5.837   2.731   5.387
 5751WAT      O17494   9.096   5.853   4.669
 5751WAT     H117495   9.121   5.831   4.763
 5751WAT     H217496   9.156   5.925   4.634
 5752WAT      O17497   5.128   5.675   5.327
 5752WAT     H117498   5.154   5.627   5.411
 5752WAT     H217499   5.208   5.719   5.288
 5753WAT      O17500   0.481   0.136   4.829
 5753WAT     H117501   0.504   0.212   4.769
 5753WAT     H217502   0.555   0.123   4.895
 5754WAT      O17503   4.600   6.960   1.393
 5754WAT     H117504   4.611   7.059   1.398
 5754WAT     H217505   4.610   6.920   1.484
 5755WAT      O17506   7.128   2.092   3.109
 5755WAT     H117507   7.041   2.091   3.159
 5755WAT     H217508   7.203   2.104   3.173
 5756WAT      O17509   2.991   3.515   2.657
 5756WAT     H117510   2.926   3.442   2.681
 5756WAT     H217511   3.029   3.497   2.566
 5757WAT      O17512   7.335   0.867   3.937
 5757WAT     H117513   7.295   0.889   4.026
 5757WAT     H217514   7.352   0.769   3.932
 5758WAT      O17515   4.088   8.931   4.241
 5758WAT     H117516   4.103   8.867   4.317
 5758WAT     H217517   4.145   9.012   4.253
 5759WAT      O17518   5.281   7.466   5.625
 5759WAT     H117519   5.355   7.429   5.680
 5759WAT     H217520   5.234   7.539   5.675
 5760WAT      O17521   3.174   2.072   4.784
 5760WAT     H117522   3.182   2.070   4.883
 5760WAT     H217523   3.172   1.978   4.748
 5761WAT      O17524   7.383   3.407   5.727
 5761WAT     H117525   7.289   3.373   5.733
 5761WAT     H217526   7.402   3.466   5.806
 5762WAT      O17527   1.715   2.245   9.070
 5762WAT     H117528   1.625   2.250   9.113
 5762WAT     H217529   1.783   2.216   9.139
 5763WAT      O17530   2.397   5.556   4.488
 5763WAT     H117531   2.440   5.467   4.474
 5763WAT     H217532   2.298   5.546   4.487
 5764WAT      O17533   0.133   3.682   5.763
 5764WAT     H117534   0.147   3.681   5.664
 5764WAT     H217535   0.193   3.614   5.806
 5765WAT      O17536   7.544   6.368   3.819
 5765WAT     H117537   7.477   6.334   3.753
 5765WAT     H217538   7.521   6.334   3.910
 5766WAT      O17539   0.704   0.779   4.289
 5766WAT     H117540   0.755   0.704   4.247
 5766WAT     H217541   0.726   0.785   4.386
 5767WAT      O17542   8.874   6.967   8.287
 5767WAT     H117543   8.902   6.945   8.380
 5767WAT     H217544   8.774   6.965   8.281
 5768WAT      O17545   8.096   0.822   3.578
 5768WAT     H117546   8.011   0.788   3.539
 5768WAT     H217547   8.092   0.817   3.678
 5769WAT      O17548   4.230   9.179   5.545
 5769WAT     H117549   4.277   9.266   5.536
 5769WAT     H217550   4.168   9.167   5.468
 5770WAT      O17551   4.535   3.374   7.860
 5770WAT     H117552   4.482   3.451   7.825
 5770WAT     H217553   4.589   3.403   7.939
 5771WAT      O17554   6.638   1.961   1.869
 5771WAT     H117555   6.718   1.945   1.811
 5771WAT     H217556   6.557   1.926   1.824
 5772WAT      O17557   1.454   8.073   7.175
 5772WAT     H117558   1.476   8.110   7.265
 5772WAT     H217559   1.356   8.082   7.157
 5773WAT      O17560   8.853   3.609   6.054
 5773WAT     H117561   8.774   3.627   5.994
 5773WAT     H217562   8.899   3.526   6.024
 5774WAT      O17563   7.540   9.049   8.249
 5774WAT     H117564   7.542   9.097   8.337
 5774WAT     H217565   7.576   9.108   8.177
 5775WAT      O17566   5.629   7.260   3.858
 5775WAT     H117567   5.572   7.178   3.867
 5775WAT     H217568   5.597   7.315   3.780
 5776WAT      O17569   7.415   2.442   5.178
 5776WAT     H117570   7.355   2.416   5.253
 5776WAT     H217571   7.395   2.536   5.150
 5777WAT      O17572   4.952   5.800   1.118
 5777WAT     H117573   4.882   5.859   1.077
 5777WAT     H217574   4.921   5.771   1.209
 5778WAT      O17575   0.974   4.507   8.372
 5778WAT     H117576   0.875   4.519   8.369
 5778WAT     H217577   1.018   4.581   8.322
 5779WAT      O17578   0.378   0.056   2.905
 5779WAT     H117579   0.340   0.085   2.994
 5779WAT     H217580   0.310   0.072   2.834
 5780WAT      O17581   4.067   9.444   4.635
 5780WAT     H117582   4.140   9.477   4.696
 5780WAT     H217583   4.078   9.346   4.621
 5781WAT      O17584   0.892   7.421   2.381
 5781WAT     H117585   0.948   7.465   2.311
 5781WAT     H217586   0.885   7.323   2.362
 5782WAT      O17587   4.542   1.773   1.300
 5782WAT     H117588   4.603   1.759   1.379
 5782WAT     H217589   4.565   1.707   1.229
 5783WAT      O17590   8.394   8.250   2.377
 5783WAT     H117591   8.344   8.178   2.328
 5783WAT     H217592   8.335   8.288   2.448
 5784WAT      O17593   2.897   9.527   8.573
 5784WAT     H117594   2.960   9.511   8.649
 5784WAT     H217595   2.900   9.624   8.546
 5785WAT      O17596   6.198   2.065   8.450
 5785WAT     H117597   6.156   2.092   8.364
 5785WAT     H217598   6.176   2.134   8.520
 5786WAT      O17599   5.030   7.861   9.533
 5786WAT     H117600   5.116   7.814   9.556
 5786WAT     H217601   4.967   7.854   9.610
 5787WAT      O17602   5.027   6.797   4.476
 5787WAT     H117603   4.998   6.892   4.487
 5787WAT     H217604   5.065   6.764   4.562
 5788WAT      O17605   8.142   7.987   2.697
 5788WAT     H117606   8.106   8.001   2.789
 5788WAT     H217607   8.236   8.021   2.692
 5789WAT      O17608   1.226   2.632   8.008
 5789WAT     H117609   1.129   2.632   7.984
 5789WAT     H217610   1.279   2.670   7.931
 5790WAT      O17611   8.512   2.125   8.978
 5790WAT     H117612   8.565   2.098   9.058
 5790WAT     H217613   8.427   2.073   8.976
 5791WAT      O17614   3.554   0.209   2.041
 5791WAT     H117615   3.454   0.210   2.046
 5791WAT     H217616   3.583   0.212   1.945
 5792WAT      O17617   7.979   1.922   7.180
 5792WAT     H117618   7.889   1.937   7.138
 5792WAT     H217619   8.003   1.826   7.172
 5793WAT      O17620   6.176   2.561   0.919
 5793WAT     H117621   6.135   2.575   0.829
 5793WAT     H217622   6.239   2.636   0.939
 5794WAT      O17623   3.927   5.400   0.669
 5794WAT     H117624   3.910   5.489   0.712
 5794WAT     H217625   3.840   5.352   0.656
 5795WAT      O17626   7.044   4.309   5.385
 5795WAT     H117627   7.070   4.267   5.298
 5795WAT     H217628   7.120   4.300   5.450
 5796WAT      O17629   8.028   9.211   2.366
 5796WAT     H117630   8.073   9.198   2.454
 5796WAT     H217631   8.043   9.304   2.334
 5797WAT      O17632   8.852   8.668   0.931
 5797WAT     H117633   8.899   8.619   0.858
 5797WAT     H217634   8.851   8.613   1.014
 5798WAT      O17635   9.102   0.122   9.610
 5798WAT     H117636   9.150   0.128   9.523
 5798WAT     H217637   9.159   0.074   9.677
 5799WAT      O17638   5.251   2.476   4.498
 5799WAT     H117639   5.246   2.377   4.509
 5799WAT     H217640   5.170   2.519   4.539
 5800WAT      O17641   1.065   3.276   6.194
 5800WAT     H117642   1.107   3.345   6.135
 5800WAT     H217643   1.075   3.186   6.151
 5801WAT      O17644   9.740   3.501   7.037
 5801WAT     H117645   9.835   3.533   7.045
 5801WAT     H217646   9.705   3.524   6.946
 5802WAT      O17647   9.863   5.923   2.464
 5802WAT     H117648   9.950   5.930   2.512
 5802WAT     H217649   9.864   5.845   2.402
 5803WAT      O17650   6.827   8.675   8.715
 5803WAT     H117651   6.888   8.753   8.705
 5803WAT     H217652   6.855   8.601   8.653
 5804WAT      O17653   3.445   5.022   5.219
 5804WAT     H117654   3.392   5.106   5.231
 5804WAT     H217655   3.542   5.045   5.213
 5805WAT      O17656   5.060   3.603   4.888
 5805WAT     H117657   4.978   3.646   4.851
 5805WAT     H217658   5.133   3.671   4.897
 5806WAT      O17659   6.871   1.230   0.179
 5806WAT     H117660   6.884   1.152   0.239
 5806WAT     H217661   6.890   1.203   0.084
 5807WAT      O17662   9.046   5.037   2.866
 5807WAT     H117663   8.951   5.007   2.856
 5807WAT     H217664   9.098   4.966   2.915
 5808WAT      O17665   5.743   8.575   8.796
 5808WAT     H117666   5.698   8.664   8.799
 5808WAT     H217667   5.675   8.504   8.777
 5809WAT      O17668   1.841   1.215   8.461
 5809WAT     H117669   1.778   1.293   8.460
 5809WAT     H217670   1.841   1.171   8.371
 5810WAT      O17671   9.155   5.696   2.140
 5810WAT     H117672   9.058   5.690   2.116
 5810WAT     H217673   9.180   5.617   2.196
 5811WAT      O17674   1.701   8.458   1.367
 5811WAT     H117675   1.639   8.392   1.326
 5811WAT     H217676   1.746   8.417   1.447
 5812WAT      O17677   6.706   3.809   3.908
 5812WAT     H117678   6.799   3.847   3.912
 5812WAT     H217679   6.691   3.769   3.818
 5813WAT      O17680   1.844   1.612   9.385
 5813WAT     H117681   1.926   1.560   9.406
 5813WAT     H217682   1.830   1.614   9.286
 5814WAT      O17683   6.459   4.042   9.333
 5814WAT     H117684   6.482   4.070   9.427
 5814WAT     H217685   6.427   4.122   9.282
 5815WAT      O17686   4.647   7.612   3.328
 5815WAT     H117687   4.637   7.516   3.300
 5815WAT     H217688   4.565   7.663   3.304
 5816WAT      O17689   8.914   3.455   2.773
 5816WAT     H117690   9.001   3.467   2.725
 5816WAT     H217691   8.926   3.392   2.849
 5817WAT      O17692   8.117   1.177   6.281
 5817WAT     H117693   8.111   1.228   6.195
 5817WAT     H217694   8.031   1.184   6.331
 5818WAT      O17695   3.787   6.684   7.566
 5818WAT     H117696   3.776   6.776   7.528
 5818WAT     H217697   3.868   6.683   7.625
 5819WAT      O17698   8.947   8.585   5.587
 5819WAT     H117699   8.888   8.654   5.545
 5819WAT     H217700   8.915   8.494   5.563
 5820WAT      O17701   7.443   8.689   8.441
 5820WAT     H117702   7.526   8.740   8.421
 5820WAT     H217703   7.460   8.625   8.516
 5821WAT      O17704   3.585   2.443   4.004
 5821WAT     H117705   3.676   2.469   4.038
 5821WAT     H217706   3.527   2.419   4.081
 5822WAT      O17707   4.176   8.229   6.549
 5822WAT     H117708   4.220   8.301   6.603
 5822WAT     H217709   4.170   8.259   6.453
 5823WAT      O17710   1.764   8.342   1.622
 5823WAT     H117711   1.809   8.386   1.700
 5823WAT     H217712   1.670   8.319   1.647
 5824WAT      O17713   6.831   6.497   2.260
 5824WAT     H117714   6.770   6.511   2.338
 5824WAT     H217715   6.779   6.506   2.175
 5825WAT      O17716   1.561   9.073   5.132
 5825WAT     H117717   1.592   9.135   5.060
 5825WAT     H217718   1.617   8.991   5.134
 5826WAT      O17719   7.877   2.959   5.667
 5826WAT     H117720   7.793   2.998   5.631
 5826WAT     H217721   7.885   2.864   5.639
 5827WAT      O17722   4.791   8.632   8.229
 5827WAT     H117723   4.747   8.717   8.199
 5827WAT     H217724   4.727   8.580   8.286
 5828WAT      O17725   6.433   4.540   7.375
 5828WAT     H117726   6.512   4.490   7.339
 5828WAT     H217727   6.352   4.514   7.323
 5829WAT      O17728   8.918   1.223   2.409
 5829WAT     H117729   8.922   1.193   2.504
 5829WAT     H217730   8.906   1.323   2.406
 5830WAT      O17731   8.762   8.100   9.769
 5830WAT     H117732   8.693   8.160   9.808
 5830WAT     H217733   8.841   8.094   9.830
 5831WAT      O17734   2.555   1.794   5.195
 5831WAT     H117735   2.556   1.795   5.295
 5831WAT     H217736   2.480   1.736   5.163
 5832WAT      O17737   1.981   5.487   3.801
 5832WAT     H117738   2.079   5.495   3.815
 5832WAT     H217739   1.946   5.571   3.759
 5833WAT      O17740   6.942   9.509   7.291
 5833WAT     H117741   6.883   9.436   7.325
 5833WAT     H217742   6.934   9.589   7.351
 5834WAT      O17743   5.883   5.034   5.933
 5834WAT     H117744   5.850   5.037   6.028
 5834WAT     H217745   5.808   5.008   5.873
 5835WAT      O17746   4.369   8.980   5.443
 5835WAT     H117747   4.333   9.059   5.493
 5835WAT     H217748   4.469   8.978   5.452
 5836WAT      O17749   2.470   7.904   9.665
 5836WAT     H117750   2.566   7.887   9.685
 5836WAT     H217751   2.435   7.833   9.605
 5837WAT      O17752   1.214   1.268   2.215
 5837WAT     H117753   1.220   1.350   2.271
 5837WAT     H217754   1.297   1.213   2.227
 5838WAT      O17755   4.010   7.611   9.666
 5838WAT     H117756   4.078   7.539   9.674
 5838WAT     H217757   4.055   7.697   9.644
 5839WAT      O17758   7.619   1.908   0.031
 5839WAT     H117759   7.688   1.854  -0.017
 5839WAT     H217760   7.637   2.005   0.018
 5840WAT      O17761   3.378   9.178   8.857
 5840WAT     H117762   3.468   9.161   8.818
 5840WAT     H217763   3.316   9.208   8.785
 5841WAT      O17764   4.165   6.540   8.185
 5841WAT     H117765   4.159   6.446   8.152
 5841WAT     H217766   4.236   6.548   8.254
 5842WAT      O17767   2.400   8.449   6.946
 5842WAT     H117768   2.343   8.376   6.985
 5842WAT     H217769   2.344   8.530   6.932
 5843WAT      O17770   3.076   3.902   7.339
 5843WAT     H117771   3.038   3.914   7.430
 5843WAT     H217772   3.170   3.937   7.338
 5844WAT      O17773   9.147   5.686   7.167
 5844WAT     H117774   9.122   5.659   7.260
 5844WAT     H217775   9.079   5.750   7.131
 5845WAT      O17776   2.218   3.996   4.332
 5845WAT     H117777   2.261   4.021   4.245
 5845WAT     H217778   2.124   3.966   4.316
 5846WAT      O17779   2.187   0.360   8.202
 5846WAT     H117780   2.248   0.437   8.184
 5846WAT     H217781   2.237   0.274   8.195
 5847WAT      O17782   7.213   5.678   2.193
 5847WAT     H117783   7.140   5.745   2.185
 5847WAT     H217784   7.243   5.649   2.102
 5848WAT      O17785   9.300   1.601   6.168
 5848WAT     H117786   9.324   1.636   6.078
 5848WAT     H217787   9.205   1.571   6.168
 5849WAT      O17788   6.847   2.377   9.027
 5849WAT     H117789   6.884   2.466   9.001
 5849WAT     H217790   6.780   2.347   8.959
 5850WAT      O17791   1.434   5.087   3.775
 5850WAT     H117792   1.462   5.022   3.847
 5850WAT     H217793   1.515   5.121   3.728
 5851WAT      O17794   3.692   3.844   0.305
 5851WAT     H117795   3.744   3.761   0.281
 5851WAT     H217796   3.600   3.838   0.267
 5852WAT      O17797   0.275   3.280   3.586
 5852WAT     H117798   0.225   3.213   3.531
 5852WAT     H217799   0.274   3.252   3.682
 5853WAT      O17800   0.639   2.689   8.146
 5853WAT     H117801   0.565   2.749   8.115
 5853WAT     H217802   0.725   2.740   8.146
 5854WAT      O17803   9.635   8.985   7.690
 5854WAT     H117804   9.657   8.892   7.721
 5854WAT     H217805   9.619   9.044   7.770
 5855WAT      O17806   6.488   1.741   1.429
 5855WAT     H117807   6.409   1.792   1.463
 5855WAT     H217808   6.537   1.796   1.362
 5856WAT      O17809   6.546   4.139   2.663
 5856WAT     H117810   6.477   4.169   2.729
 5856WAT     H217811   6.558   4.040   2.670
 5857WAT      O17812   4.731   1.566   9.559
 5857WAT     H117813   4.816   1.550   9.608
 5857WAT     H217814   4.707   1.484   9.507
 5858WAT      O17815   9.221   6.276   0.607
 5858WAT     H117816   9.143   6.307   0.554
 5858WAT     H217817   9.217   6.176   0.618
 5859WAT      O17818   8.334   6.262   8.408
 5859WAT     H117819   8.302   6.251   8.502
 5859WAT     H217820   8.419   6.210   8.396
 5860WAT      O17821   4.758   7.120   9.093
 5860WAT     H117822   4.781   7.098   8.998
 5860WAT     H217823   4.733   7.217   9.099
 5861WAT      O17824   1.222   6.554   1.003
 5861WAT     H117825   1.231   6.520   0.910
 5861WAT     H217826   1.127   6.582   1.019
 5862WAT      O17827   1.116   2.291   1.163
 5862WAT     H117828   1.018   2.309   1.175
 5862WAT     H217829   1.155   2.265   1.252
 5863WAT      O17830   2.747   3.315   3.623
 5863WAT     H117831   2.741   3.217   3.642
 5863WAT     H217832   2.842   3.340   3.606
 5864WAT      O17833   4.834   7.064   8.836
 5864WAT     H117834   4.858   6.969   8.854
 5864WAT     H217835   4.892   7.100   8.763
 5865WAT      O17836   8.478   3.164   4.852
 5865WAT     H117837   8.455   3.196   4.760
 5865WAT     H217838   8.476   3.242   4.915
 5866WAT      O17839   7.601   5.743   2.607
 5866WAT     H117840   7.589   5.843   2.612
 5866WAT     H217841   7.553   5.709   2.526
 5867WAT      O17842   9.445   0.112   3.155
 5867WAT     H117843   9.430   0.067   3.243
 5867WAT     H217844   9.507   0.190   3.167
 5868WAT      O17845   2.696   0.651   9.724
 5868WAT     H117846   2.644   0.736   9.728
 5868WAT     H217847   2.657   0.591   9.654
 5869WAT      O17848   1.200   9.371   8.596
 5869WAT     H117849   1.230   9.283   8.634
 5869WAT     H217850   1.160   9.427   8.669
 5870WAT      O17851   2.641   0.524   6.683
 5870WAT     H117852   2.634   0.608   6.737
 5870WAT     H217853   2.576   0.457   6.718
 5871WAT      O17854   0.303   6.097   4.090
 5871WAT     H117855   0.370   6.135   4.026
 5871WAT     H217856   0.217   6.147   4.081
 5872WAT      O17857   6.439   0.733   5.132
 5872WAT     H117858   6.530   0.728   5.173
 5872WAT     H217859   6.384   0.800   5.181
 5873WAT      O17860   1.378   2.258   7.238
 5873WAT     H117861   1.449   2.272   7.168
 5873WAT     H217862   1.290   2.288   7.202
 5874WAT      O17863   1.289   2.222   5.721
 5874WAT     H117864   1.337   2.188   5.640
 5874WAT     H217865   1.294   2.322   5.724
 5875WAT      O17866   8.167   0.652   0.376
 5875WAT     H117867   8.207   0.695   0.457
 5875WAT     H217868   8.237   0.641   0.305
 5876WAT      O17869   9.692   7.318   8.848
 5876WAT     H117870   9.657   7.231   8.813
 5876WAT     H217871   9.618   7.367   8.894
 5877WAT      O17872   7.195   5.367   3.910
 5877WAT     H117873   7.163   5.275   3.886
 5877WAT     H217874   7.243   5.364   3.997
 5878WAT      O17875   5.931   9.089   7.928
 5878WAT     H117876   5.858   9.137   7.879
 5878WAT     H217877   5.930   8.992   7.903
 5879WAT      O17878   4.296   0.840   8.566
 5879WAT     H117879   4.346   0.761   8.603
 5879WAT     H217880   4.354   0.886   8.499
 5880WAT      O17881   2.320   5.985   2.240
 5880WAT     H117882   2.286   6.073   2.208
 5880WAT     H217883   2.243   5.923   2.256
 5881WAT      O17884   3.426   9.247   7.313
 5881WAT     H117885   3.451   9.344   7.309
 5881WAT     H217886   3.346   9.237   7.373
 5882WAT      O17887   0.980   1.514   7.949
 5882WAT     H117888   0.892   1.562   7.954
 5882WAT     H217889   0.970   1.424   7.990
 5883WAT      O17890   4.186   9.825   2.535
 5883WAT     H117891   4.163   9.734   2.501
 5883WAT     H217892   4.125   9.849   2.610
 5884WAT      O17893   7.722   5.572   9.068
 5884WAT     H117894   7.785   5.581   8.991
 5884WAT     H217895   7.732   5.481   9.109
 5885WAT      O17896   2.533   0.949   2.211
 5885WAT     H117897   2.571   0.940   2.119
 5885WAT     H217898   2.590   0.898   2.275
 5886WAT      O17899   7.009   2.652   5.624
 5886WAT     H117900   6.929   2.592   5.621
 5886WAT     H217901   7.083   2.608   5.674
 5887WAT      O17902   3.287   0.911   1.449
 5887WAT     H117903   3.236   0.990   1.484
 5887WAT     H217904   3.232   0.864   1.379
 5888WAT      O17905   6.402   2.556   9.660
 5888WAT     H117906   6.396   2.608   9.745
 5888WAT     H217907   6.426   2.619   9.585
 5889WAT      O17908   3.090   3.240   8.745
 5889WAT     H117909   3.168   3.182   8.725
 5889WAT     H217910   3.005   3.190   8.726
 5890WAT      O17911   4.685   9.450   2.671
 5890WAT     H117912   4.751   9.410   2.735
 5890WAT     H217913   4.600   9.399   2.675
 5891WAT      O17914   7.132   6.464   8.227
 5891WAT     H117915   7.230   6.449   8.215
 5891WAT     H217916   7.099   6.406   8.302
 5892WAT      O17917   9.172   4.078   6.712
 5892WAT     H117918   9.249   4.069   6.775
 5892WAT     H217919   9.122   4.163   6.732
 5893WAT      O17920   7.369   6.585   1.465
 5893WAT     H117921   7.341   6.611   1.373
 5893WAT     H217922   7.289   6.556   1.518
 5894WAT      O17923   8.601   9.642   4.862
 5894WAT     H117924   8.629   9.551   4.892
 5894WAT     H217925   8.667   9.677   4.795
 5895WAT      O17926   6.162   7.520   0.462
 5895WAT     H117927   6.063   7.512   0.451
 5895WAT     H217928   6.192   7.462   0.537
 5896WAT      O17929   0.054   4.867   4.858
 5896WAT     H117930   0.110   4.797   4.813
 5896WAT     H217931  -0.042   4.851   4.836
 5897WAT      O17932   6.667   7.877   8.091
 5897WAT     H117933   6.572   7.890   8.119
 5897WAT     H217934   6.700   7.789   8.127
 5898WAT      O17935   4.895   0.887   5.509
 5898WAT     H117936   4.888   0.906   5.411
 5898WAT     H217937   4.834   0.811   5.532
 5899WAT      O17938   3.290   8.819   2.666
 5899WAT     H117939   3.260   8.730   2.631
 5899WAT     H217940   3.268   8.890   2.599
 5900WAT      O17941   2.648   3.990   0.792
 5900WAT     H117942   2.573   4.055   0.777
 5900WAT     H217943   2.713   4.029   0.857
 5901WAT      O17944   6.404   8.036   8.403
 5901WAT     H117945   6.477   7.969   8.416
 5901WAT     H217946   6.439   8.128   8.422
 5902WAT      O17947   7.271   7.678   5.796
 5902WAT     H117948   7.366   7.707   5.786
 5902WAT     H217949   7.214   7.729   5.730
 5903WAT      O17950   8.480   8.589   3.976
 5903WAT     H117951   8.552   8.521   3.959
 5903WAT     H217952   8.479   8.655   3.900
 5904WAT      O17953   5.650   3.889   2.753
 5904WAT     H117954   5.633   3.987   2.743
 5904WAT     H217955   5.571   3.845   2.797
 5905WAT      O17956   0.236   4.367   6.180
 5905WAT     H117957   0.160   4.379   6.115
 5905WAT     H217958   0.199   4.360   6.273
 5906WAT      O17959   2.124   8.199   1.083
 5906WAT     H117960   2.116   8.220   1.181
 5906WAT     H217961   2.217   8.219   1.053
 5907WAT      O17962   1.910   3.684   3.402
 5907WAT     H117963   1.814   3.684   3.373
 5907WAT     H217964   1.968   3.664   3.323
 5908WAT      O17965   7.789   8.840   7.746
 5908WAT     H117966   7.801   8.890   7.661
 5908WAT     H217967   7.769   8.744   7.726
 5909WAT      O17968   6.865   8.404   3.961
 5909WAT     H117969   6.882   8.452   4.047
 5909WAT     H217970   6.952   8.382   3.917
 5910WAT      O17971   2.675   0.467   5.815
 5910WAT     H117972   2.617   0.449   5.736
 5910WAT     H217973   2.766   0.495   5.784
 5911WAT      O17974   7.044   6.249   6.316
 5911WAT     H117975   7.077   6.331   6.271
 5911WAT     H217976   7.059   6.170   6.256
 5912WAT      O17977   7.446   6.595   4.096
 5912WAT     H117978   7.365   6.540   4.075
 5912WAT     H217979   7.430   6.690   4.069
 5913WAT      O17980   4.680   5.030   5.597
 5913WAT     H117981   4.743   5.013   5.672
 5913WAT     H217982   4.731   5.066   5.518
 5914WAT      O17983   7.619   8.443   1.891
 5914WAT     H117984   7.660   8.429   1.981
 5914WAT     H217985   7.532   8.490   1.901
 5915WAT      O17986   1.173   6.389   3.814
 5915WAT     H117987   1.201   6.364   3.722
 5915WAT     H217988   1.133   6.481   3.813
 5916WAT      O17989   2.166   2.645   1.564
 5916WAT     H117990   2.217   2.730   1.569
 5916WAT     H217991   2.112   2.643   1.480
 5917WAT      O17992   4.446   1.377   2.282
 5917WAT     H117993   4.390   1.424   2.349
 5917WAT     H217994   4.416   1.282   2.273
 5918WAT      O17995   2.309   8.369   9.622
 5918WAT     H117996   2.274   8.286   9.666
 5918WAT     H217997   2.388   8.346   9.564
 5919WAT      O17998   5.597   0.238   7.314
 5919WAT     H117999   5.669   0.209   7.378
 5919WAT     H218000   5.533   0.298   7.361
 5920WAT      O18001   2.610   4.898   1.840
 5920WAT     H118002   2.605   4.863   1.747
 5920WAT     H218003   2.596   4.823   1.905
 5921WAT      O18004   8.170   2.138   7.230
 5921WAT     H118005   8.166   2.180   7.139
 5921WAT     H218006   8.098   2.069   7.238
 5922WAT      O18007   0.755   7.650   2.449
 5922WAT     H118008   0.659   7.645   2.477
 5922WAT     H218009   0.795   7.558   2.452
 5923WAT      O18010   3.205   7.416   3.384
 5923WAT     H118011   3.192   7.365   3.469
 5923WAT     H218012   3.260   7.361   3.321
 5924WAT      O18013   9.757   1.914   7.008
 5924WAT     H118014   9.766   1.972   6.927
 5924WAT     H218015   9.706   1.832   6.984
 5925WAT      O18016   4.774   8.547   5.087
 5925WAT     H118017   4.824   8.461   5.100
 5925WAT     H218018   4.830   8.611   5.034
 5926WAT      O18019   6.031   6.632   3.282
 5926WAT     H118020   5.999   6.714   3.235
 5926WAT     H218021   6.125   6.612   3.254
 5927WAT      O18022   4.984   4.715   6.740
 5927WAT     H118023   4.984   4.770   6.823
 5927WAT     H218024   4.889   4.697   6.712
 5928WAT      O18025   8.910   1.395   5.708
 5928WAT     H118026   8.820   1.378   5.666
 5928WAT     H218027   8.981   1.383   5.638
 5929WAT      O18028   6.850   3.636   3.378
 5929WAT     H118029   6.836   3.695   3.298
 5929WAT     H218030   6.931   3.668   3.428
 5930WAT      O18031   3.841   3.849   1.995
 5930WAT     H118032   3.796   3.921   1.942
 5930WAT     H218033   3.797   3.761   1.976
 5931WAT      O18034   7.898   4.710   8.795
 5931WAT     H118035   7.872   4.635   8.857
 5931WAT     H218036   7.821   4.772   8.783
 5932WAT      O18037   7.451   8.329   5.414
 5932WAT     H118038   7.526   8.291   5.467
 5932WAT     H218039   7.445   8.428   5.430
 5933WAT      O18040   7.019   2.971   2.404
 5933WAT     H118041   6.954   3.014   2.341
 5933WAT     H218042   6.988   2.879   2.427
 5934WAT      O18043   2.839   3.243   9.311
 5934WAT     H118044   2.825   3.145   9.324
 5934WAT     H218045   2.752   3.286   9.289
 5935WAT      O18046   2.230   2.626   7.730
 5935WAT     H118047   2.303   2.577   7.778
 5935WAT     H218048   2.174   2.674   7.796
 5936WAT      O18049   6.980   9.686   6.227
 5936WAT     H118050   6.965   9.590   6.253
 5936WAT     H218051   7.062   9.692   6.170
 5937WAT      O18052   2.754   3.127   8.029
 5937WAT     H118053   2.851   3.114   8.048
 5937WAT     H218054   2.744   3.186   7.948
 5938WAT      O18055   0.234   1.326   1.443
 5938WAT     H118056   0.234   1.235   1.485
 5938WAT     H218057   0.280   1.391   1.503
 5939WAT      O18058   5.550   3.996   5.179
 5939WAT     H118059   5.646   4.014   5.156
 5939WAT     H218060   5.492   4.012   5.099
 5940WAT      O18061   2.742   0.325   8.286
 5940WAT     H118062   2.786   0.380   8.215
 5940WAT     H218063   2.793   0.334   8.371
 5941WAT      O18064   9.302   4.584   8.508
 5941WAT     H118065   9.362   4.566   8.431
 5941WAT     H218066   9.293   4.683   8.521
 5942WAT      O18067   2.839   1.375   2.785
 5942WAT     H118068   2.882   1.387   2.696
 5942WAT     H218069   2.809   1.280   2.795
 5943WAT      O18070   8.077   8.416   4.077
 5943WAT     H118071   8.085   8.412   4.176
 5943WAT     H218072   8.162   8.384   4.035
 5944WAT      O18073   5.500   0.742   9.647
 5944WAT     H118074   5.544   0.769   9.733
 5944WAT     H218075   5.527   0.806   9.574
 5945WAT      O18076   9.274   8.457   6.930
 5945WAT     H118077   9.184   8.418   6.913
 5945WAT     H218078   9.327   8.456   6.845
 5946WAT      O18079   7.562   7.957   2.182
 5946WAT     H118080   7.527   7.904   2.260
 5946WAT     H218081   7.581   7.895   2.106
 5947WAT      O18082   4.566   3.142   3.753
 5947WAT     H118083   4.540   3.093   3.669
 5947WAT     H218084   4.619   3.082   3.812
 5948WAT      O18085   8.770   5.380   9.385
 5948WAT     H118086   8.687   5.326   9.368
 5948WAT     H218087   8.744   5.467   9.427
 5949WAT      O18088   3.327   5.755   3.491
 5949WAT     H118089   3.366   5.734   3.581
 5949WAT     H218090   3.399   5.754   3.422
 5950WAT      O18091   5.038   4.720   9.214
 5950WAT     H118092   4.991   4.805   9.187
 5950WAT     H218093   5.055   4.721   9.312
 5951WAT      O18094   7.455   9.557   0.931
 5951WAT     H118095   7.444   9.460   0.950
 5951WAT     H218096   7.382   9.588   0.870
 5952WAT      O18097   8.670   2.128   4.091
 5952WAT     H118098   8.585   2.097   4.134
 5952WAT     H218099   8.747   2.103   4.150
 5953WAT      O18100   1.434   5.235   2.771
 5953WAT     H118101   1.340   5.201   2.773
 5953WAT     H218102   1.490   5.175   2.714
 5954WAT      O18103   6.011   8.912   8.815
 5954WAT     H118104   5.959   8.839   8.859
 5954WAT     H218105   5.962   8.945   8.735
 5955WAT      O18106   9.669   0.418   3.035
 5955WAT     H118107   9.721   0.332   3.041
 5955WAT     H218108   9.608   0.425   3.113
 5956WAT      O18109   5.383   4.789   0.197
 5956WAT     H118110   5.466   4.818   0.244
 5956WAT     H218111   5.336   4.719   0.251
 5957WAT      O18112   9.656   4.817   5.974
 5957WAT     H118113   9.606   4.801   5.889
 5957WAT     H218114   9.665   4.915   5.989
 5958WAT      O18115   1.173   0.485   0.420
 5958WAT     H118116   1.149   0.396   0.383
 5958WAT     H218117   1.158   0.556   0.351
 5959WAT      O18118   5.733   6.351   7.113
 5959WAT     H118119   5.656   6.361   7.177
 5959WAT     H218120   5.699   6.356   7.019
 5960WAT      O18121   1.586   2.102   0.098
 5960WAT     H118122   1.645   2.036   0.051
 5960WAT     H218123   1.639   2.149   0.169
 5961WAT      O18124   7.206   3.988   2.198
 5961WAT     H118125   7.164   4.002   2.287
 5961WAT     H218126   7.223   4.076   2.154
 5962WAT      O18127   5.528   8.185   2.465
 5962WAT     H118128   5.542   8.273   2.511
 5962WAT     H218129   5.431   8.171   2.448
 5963WAT      O18130   0.353   1.510   5.363
 5963WAT     H118131   0.323   1.580   5.428
 5963WAT     H218132   0.447   1.482   5.385
 5964WAT      O18133   2.214   6.132   4.721
 5964WAT     H118134   2.114   6.130   4.732
 5964WAT     H218135   2.236   6.136   4.623
 5965WAT      O18136   1.959   2.376   6.387
 5965WAT     H118137   1.939   2.468   6.352
 5965WAT     H218138   1.889   2.313   6.354
 5966WAT      O18139   9.468   6.128   3.014
 5966WAT     H118140   9.492   6.061   3.083
 5966WAT     H218141   9.544   6.141   2.951
 5967WAT      O18142   4.576   9.612   9.857
 5967WAT     H118143   4.489   9.653   9.830
 5967WAT     H218144   4.560   9.546   9.931
 5968WAT      O18145   9.492   4.700   9.142
 5968WAT     H118146   9.554   4.778   9.153
 5968WAT     H218147   9.532   4.635   9.078
 5969WAT      O18148   3.383   7.865   5.606
 5969WAT     H118149   3.398   7.944   5.666
 5969WAT     H218150   3.377   7.782   5.660
 5970WAT      O18151   2.506   4.951   8.130
 5970WAT     H118152   2.556   5.033   8.103
 5970WAT     H218153   2.455   4.969   8.214
 5971WAT      O18154   5.574   5.762   9.785
 5971WAT     H118155   5.570   5.854   9.747
 5971WAT     H218156   5.511   5.755   9.863
 5972WAT      O18157   1.883   5.227   2.761
 5972WAT     H118158   1.827   5.185   2.832
 5972WAT     H218159   1.868   5.326   2.762
 5973WAT      O18160   8.959   8.839   8.662
 5973WAT     H118161   8.875   8.786   8.666
 5973WAT     H218162   8.977   8.867   8.568
 5974WAT      O18163   1.529   6.528   3.407
 5974WAT     H118164   1.430   6.544   3.405
 5974WAT     H218165   1.548   6.440   3.452
 5975WAT      O18166   7.084   4.943   7.019
 5975WAT     H118167   7.042   4.879   6.955
 5975WAT     H218168   7.173   4.973   6.982
 5976WAT      O18169   9.776   8.977   9.857
 5976WAT     H118170   9.759   8.971   9.956
 5976WAT     H218171   9.791   8.885   9.820
 5977WAT      O18172   8.158   2.253   8.951
 5977WAT     H118173   8.215   2.177   8.982
 5977WAT     H218174   8.206   2.340   8.966
 5978WAT      O18175   6.786   2.854   1.981
 5978WAT     H118176   6.713   2.920   2.001
 5978WAT     H218177   6.875   2.895   2.000
 5979WAT      O18178   4.570   5.699   9.427
 5979WAT     H118179   4.504   5.687   9.353
 5979WAT     H218180   4.653   5.741   9.392
 5980WAT      O18181   7.233   6.917   5.385
 5980WAT     H118182   7.279   7.001   5.415
 5980WAT     H218183   7.297   6.860   5.333
 5981WAT      O18184   8.539   2.981   5.311
 5981WAT     H118185   8.533   3.069   5.264
 5981WAT     H218186   8.473   2.978   5.386
 5982WAT      O18187   1.140   3.435   5.801
 5982WAT     H118188   1.175   3.455   5.892
 5982WAT     H218189   1.057   3.380   5.807
 5983WAT      O18190   4.728   5.563   8.384
 5983WAT     H118191   4.664   5.619   8.437
 5983WAT     H218192   4.679   5.522   8.307
 5984WAT      O18193   0.307   4.025   0.529
 5984WAT     H118194   0.246   4.085   0.581
 5984WAT     H218195   0.342   3.953   0.590
 5985WAT      O18196   3.234   6.307   0.065
 5985WAT     H118197   3.283   6.232   0.021
 5985WAT     H218198   3.298   6.381   0.087
 5986WAT      O18199   6.826   4.199   0.321
 5986WAT     H118200   6.857   4.109   0.354
 5986WAT     H218201   6.842   4.205   0.223
 5987WAT      O18202   2.587   3.658   6.092
 5987WAT     H118203   2.508   3.615   6.047
 5987WAT     H218204   2.561   3.685   6.185
 5988WAT      O18205   6.360   0.421   9.715
 5988WAT     H118206   6.434   0.381   9.662
 5988WAT     H218207   6.361   0.521   9.704
 5989WAT      O18208   0.562   7.029   1.172
 5989WAT     H118209   0.616   7.112   1.183
 5989WAT     H218210   0.539   7.016   1.075
 5990WAT      O18211   1.990   8.554   7.156
 5990WAT     H118212   1.892   8.536   7.151
 5990WAT     H218213   2.011   8.640   7.109
 5991WAT      O18214   2.342   0.582   5.065
 5991WAT     H118215   2.292   0.530   4.996
 5991WAT     H218216   2.332   0.679   5.048
 5992WAT      O18217   0.737   2.437   6.671
 5992WAT     H118218   0.714   2.401   6.580
 5992WAT     H218219   0.685   2.520   6.688
 5993WAT      O18220   2.296   7.095   7.611
 5993WAT     H118221   2.205   7.079   7.571
 5993WAT     H218222   2.309   7.035   7.690
 5994WAT      O18223   6.790   6.345   6.608
 5994WAT     H118224   6.749   6.397   6.684
 5994WAT     H218225   6.890   6.352   6.614
 5995WAT      O18226   9.409   8.611   9.180
 5995WAT     H118227   9.499   8.579   9.207
 5995WAT     H218228   9.348   8.533   9.167
 5996WAT      O18229   2.118   4.526   9.185
 5996WAT     H118230   2.216   4.522   9.163
 5996WAT     H218231   2.106   4.562   9.277
 5997WAT      O18232   7.248   3.590   1.635
 5997WAT     H118233   7.150   3.587   1.613
 5997WAT     H218234   7.273   3.506   1.683
 5998WAT      O18235   4.601   4.792   3.722
 5998WAT     H118236   4.563   4.877   3.686
 5998WAT     H218237   4.534   4.747   3.781
 5999WAT      O18238   6.268   6.662   4.573
 5999WAT     H118239   6.284   6.563   4.575
 5999WAT     H218240   6.331   6.707   4.636
 6000WAT      O18241   8.875   8.147   7.214
 6000WAT     H118242   8.806   8.201   7.166
 6000WAT     H218243   8.881   8.056   7.172
 6001WAT      O18244   0.488   1.624   9.047
 6001WAT     H118245   0.457   1.657   9.136
 6001WAT     H218246   0.417   1.569   9.004
 6002WAT      O18247   7.254   6.563   3.259
 6002WAT     H118248   7.214   6.502   3.328
 6002WAT     H218249   7.353   6.567   3.271
 6003WAT      O18250   0.010   5.099   9.827
 6003WAT     H118251  -0.004   5.135   9.919
 6003WAT     H218252   0.101   5.058   9.821
 6004WAT      O18253   0.388   0.955   9.747
 6004WAT     H118254   0.380   0.881   9.680
 6004WAT     H218255   0.403   1.041   9.700
 6005WAT      O18256   0.857   4.656   2.208
 6005WAT     H118257   0.784   4.713   2.169
 6005WAT     H218258   0.927   4.715   2.249
 6006WAT      O18259   0.871   3.588   0.814
 6006WAT     H118260   0.829   3.556   0.899
 6006WAT     H218261   0.960   3.544   0.802
 6007WAT      O18262   8.070   9.162   3.595
 6007WAT     H118263   7.978   9.193   3.572
 6007WAT     H218264   8.106   9.218   3.670
 6008WAT      O18265   6.452   5.432   5.750
 6008WAT     H118266   6.444   5.444   5.849
 6008WAT     H218267   6.447   5.335   5.727
 6009WAT      O18268   9.326   4.466   5.292
 6009WAT     H118269   9.241   4.444   5.340
 6009WAT     H218270   9.350   4.390   5.232
 6010WAT      O18271   5.570   9.098   5.519
 6010WAT     H118272   5.630   9.025   5.487
 6010WAT     H218273   5.566   9.170   5.450
 6011WAT      O18274   2.027   6.790   0.821
 6011WAT     H118275   2.123   6.811   0.802
 6011WAT     H218276   1.994   6.848   0.895
 6012WAT      O18277   1.144   1.942   5.203
 6012WAT     H118278   1.162   1.917   5.108
 6012WAT     H218279   1.047   1.933   5.222
 6013WAT      O18280   1.687   1.749   5.686
 6013WAT     H118281   1.725   1.748   5.779
 6013WAT     H218282   1.717   1.668   5.637
 6014WAT      O18283   3.893   0.659   4.611
 6014WAT     H118284   3.797   0.637   4.630
 6014WAT     H218285   3.949   0.577   4.620
 6015WAT      O18286   3.486   9.430   6.092
 6015WAT     H118287   3.584   9.436   6.070
 6015WAT     H218288   3.433   9.474   6.020
 6016WAT      O18289   3.316   3.887   6.004
 6016WAT     H118290   3.371   3.897   5.920
 6016WAT     H218291   3.265   3.801   6.000
 6017WAT      O18292   7.308   4.105   5.892
 6017WAT     H118293   7.226   4.071   5.939
 6017WAT     H218294   7.354   4.029   5.847
 6018WAT      O18295   3.618   7.167   8.875
 6018WAT     H118296   3.560   7.124   8.806
 6018WAT     H218297   3.688   7.223   8.829
 6019WAT      O18298   6.652   2.863   0.422
 6019WAT     H118299   6.744   2.828   0.438
 6019WAT     H218300   6.654   2.962   0.415
 6020WAT      O18301   4.092   4.950   0.752
 6020WAT     H118302   4.124   5.021   0.689
 6020WAT     H218303   3.993   4.937   0.739
 6021WAT      O18304   3.877   0.244   1.956
 6021WAT     H118305   3.837   0.335   1.963
 6021WAT     H218306   3.904   0.226   1.862
 6022WAT      O18307   1.073   7.359   7.930
 6022WAT     H118308   1.150   7.375   7.869
 6022WAT     H218309   1.102   7.369   8.025
 6023WAT      O18310   1.796   9.070   9.804
 6023WAT     H118311   1.820   9.133   9.878
 6023WAT     H218312   1.755   8.988   9.842
 6024WAT      O18313   7.317   1.689   0.219
 6024WAT     H118314   7.292   1.677   0.315
 6024WAT     H218315   7.409   1.728   0.213
 6025WAT      O18316   2.925   4.379   8.037
 6025WAT     H118317   2.932   4.303   7.973
 6025WAT     H218318   2.838   4.375   8.085
 6026WAT      O18319   8.383   8.583   0.007
 6026WAT     H118320   8.313   8.653  -0.005
 6026WAT     H218321   8.405   8.542  -0.082
 6027WAT      O18322   6.665   8.473   7.592
 6027WAT     H118323   6.606   8.483   7.673
 6027WAT     H218324   6.720   8.390   7.600
 6028WAT      O18325   1.468   6.044   0.507
 6028WAT     H118326   1.423   5.979   0.446
 6028WAT     H218327   1.551   6.003   0.544
 6029WAT      O18328   0.779   1.407   2.356
 6029WAT     H118329   0.817   1.471   2.423
 6029WAT     H218330   0.808   1.314   2.379
 6030WAT      O18331   2.328   2.186   8.837
 6030WAT     H118332   2.258   2.125   8.872
 6030WAT     H218333   2.414   2.169   8.885
 6031WAT      O18334   8.636   7.060   2.116
 6031WAT     H118335   8.643   6.997   2.193
 6031WAT     H218336   8.586   7.017   2.041
 6032WAT      O18337   5.927   7.529   8.562
 6032WAT     H118338   5.982   7.448   8.582
 6032WAT     H218339   5.934   7.594   8.637
 6033WAT      O18340   1.698   3.465   3.933
 6033WAT     H118341   1.676   3.471   3.835
 6033WAT     H218342   1.619   3.496   3.986
 6034WAT      O18343   5.290   3.283   6.833
 6034WAT     H118344   5.367   3.336   6.797
 6034WAT     H218345   5.251   3.226   6.760
 6035WAT      O18346   3.993   4.258   4.109
 6035WAT     H118347   3.952   4.205   4.184
 6035WAT     H218348   4.091   4.269   4.126
 6036WAT      O18349   8.173   4.393   0.827
 6036WAT     H118350   8.103   4.427   0.764
 6036WAT     H218351   8.173   4.447   0.910
 6037WAT      O18352   5.606   2.359   5.761
 6037WAT     H118353   5.688   2.311   5.730
 6037WAT     H218354   5.542   2.368   5.685
 6038WAT      O18355   2.738   2.147   6.146
 6038WAT     H118356   2.771   2.162   6.239
 6038WAT     H218357   2.649   2.101   6.149
 6039WAT      O18358   1.646   7.907   6.715
 6039WAT     H118359   1.694   7.960   6.785
 6039WAT     H218360   1.559   7.875   6.752
 6040WAT      O18361   3.602   7.505   0.032
 6040WAT     H118362   3.657   7.421   0.041
 6040WAT     H218363   3.558   7.506  -0.057
 6041WAT      O18364   7.234   3.892   6.311
 6041WAT     H118365   7.242   3.816   6.246
 6041WAT     H218366   7.140   3.897   6.345
 6042WAT      O18367   1.724   5.001   5.323
 6042WAT     H118368   1.722   5.013   5.423
 6042WAT     H218369   1.770   4.915   5.300
 6043WAT      O18370   6.339   8.096   2.349
 6043WAT     H118371   6.294   8.017   2.390
 6043WAT     H218372   6.418   8.122   2.405
 6044WAT      O18373   4.279   8.333   2.577
 6044WAT     H118374   4.289   8.421   2.626
 6044WAT     H218375   4.370   8.300   2.550
 6045WAT      O18376   2.943   3.895   2.291
 6045WAT     H118377   2.951   3.852   2.381
 6045WAT     H218378   3.035   3.916   2.256
 6046WAT      O18379   2.748   3.888   8.383
 6046WAT     H118380   2.758   3.863   8.479
 6046WAT     H218381   2.697   3.817   8.335
 6047WAT      O18382   3.927   5.622   4.608
 6047WAT     H118383   3.875   5.706   4.619
 6047WAT     H218384   3.916   5.588   4.515
 6048WAT      O18385   4.985   1.129   0.499
 6048WAT     H118386   4.910   1.065   0.509
 6048WAT     H218387   5.050   1.117   0.574
 6049WAT      O18388   0.538   0.248   1.287
 6049WAT     H118389   0.456   0.277   1.237
 6049WAT     H218390   0.609   0.220   1.223
 6050WAT      O18391   0.482   5.015   8.207
 6050WAT     H118392   0.530   4.975   8.129
 6050WAT     H218393   0.514   4.973   8.292
 6051WAT      O18394   7.262   1.726   5.023
 6051WAT     H118395   7.328   1.784   5.071
 6051WAT     H218396   7.172   1.736   5.066
 6052WAT      O18397   2.087   5.368   9.277
 6052WAT     H118398   1.996   5.381   9.238
 6052WAT     H218399   2.079   5.342   9.373
 6053WAT      O18400   2.322   2.469   2.708
 6053WAT     H118401   2.284   2.423   2.628
 6053WAT     H218402   2.404   2.520   2.681
 6054WAT      O18403   6.249   4.662   2.755
 6054WAT     H118404   6.252   4.686   2.852
 6054WAT     H218405   6.245   4.745   2.700
 6055WAT      O18406   2.923   5.906   2.305
 6055WAT     H118407   2.877   5.884   2.391
 6055WAT     H218408   3.019   5.882   2.311
 6056WAT      O18409   4.810   5.570   3.070
 6056WAT     H118410   4.716   5.597   3.089
 6056WAT     H218411   4.871   5.648   3.088
 6057WAT      O18412   3.469   8.037   7.210
 6057WAT     H118413   3.504   8.025   7.118
 6057WAT     H218414   3.539   8.078   7.268
 6058WAT      O18415   3.346   9.391   2.912
 6058WAT     H118416   3.272   9.367   2.850
 6058WAT     H218417   3.310   9.445   2.988
 6059WAT      O18418   3.564   9.004   6.991
 6059WAT     H118419   3.655   9.011   7.031
 6059WAT     H218420   3.569   8.956   6.903
 6060WAT      O18421   1.444   0.369   1.656
 6060WAT     H118422   1.514   0.384   1.586
 6060WAT     H218423   1.473   0.411   1.742
 6061WAT      O18424   5.473   4.194   6.858
 6061WAT     H118425   5.514   4.284   6.873
 6061WAT     H218426   5.464   4.148   6.946
 6062WAT      O18427   2.486   6.811   0.544
 6062WAT     H118428   2.508   6.908   0.532
 6062WAT     H218429   2.480   6.768   0.454
 6063WAT      O18430   5.557   9.217   9.033
 6063WAT     H118431   5.486   9.152   9.006
 6063WAT     H218432   5.575   9.208   9.131
 6064WAT      O18433   7.063   2.961   0.421
 6064WAT     H118434   7.149   2.911   0.410
 6064WAT     H218435   6.987   2.896   0.426
 6065WAT      O18436   8.251   3.696   1.405
 6065WAT     H118437   8.341   3.673   1.368
 6065WAT     H218438   8.235   3.795   1.397
 6066WAT      O18439   6.912   4.333   8.635
 6066WAT     H118440   6.897   4.285   8.549
 6066WAT     H218441   6.984   4.401   8.623
 6067WAT      O18442   6.038   3.834   7.640
 6067WAT     H118443   5.998   3.901   7.702
 6067WAT     H218444   5.978   3.754   7.634
 6068WAT      O18445   6.951   9.290   0.318
 6068WAT     H118446   7.013   9.248   0.383
 6068WAT     H218447   6.981   9.271   0.225
 6069WAT      O18448   5.768   7.272   9.729
 6069WAT     H118449   5.792   7.190   9.780
 6069WAT     H218450   5.841   7.293   9.664
 6070WAT      O18451   2.875   1.661   6.169
 6070WAT     H118452   2.971   1.641   6.190
 6070WAT     H218453   2.867   1.690   6.074
 6071WAT      O18454   8.480   2.541   1.235
 6071WAT     H118455   8.452   2.635   1.255
 6071WAT     H218456   8.495   2.532   1.137
 6072WAT      O18457   4.677   7.453   4.812
 6072WAT     H118458   4.762   7.504   4.830
 6072WAT     H218459   4.637   7.485   4.727
 6073WAT      O18460   6.907   1.824   7.161
 6073WAT     H118461   7.003   1.817   7.188
 6073WAT     H218462   6.883   1.746   7.103
 6074WAT      O18463   2.539   8.568   5.533
 6074WAT     H118464   2.593   8.574   5.618
 6074WAT     H218465   2.585   8.506   5.470
 6075WAT      O18466   9.128   2.360   2.219
 6075WAT     H118467   9.214   2.403   2.191
 6075WAT     H218468   9.082   2.322   2.139
 6076WAT      O18469   1.368   1.016   7.408
 6076WAT     H118470   1.324   1.106   7.413
 6076WAT     H218471   1.461   1.022   7.445
 6077WAT      O18472   1.418   5.444   7.351
 6077WAT     H118473   1.426   5.371   7.283
 6077WAT     H218474   1.391   5.404   7.439
 6078WAT      O18475   1.226   2.958   4.671
 6078WAT     H118476   1.304   2.991   4.724
 6078WAT     H218477   1.143   3.004   4.702
 6079WAT      O18478   8.097   1.051   0.208
 6079WAT     H118479   8.091   1.005   0.296
 6079WAT     H218480   8.193   1.055   0.179
 6080WAT      O18481   8.826   8.668   3.442
 6080WAT     H118482   8.865   8.758   3.423
 6080WAT     H218483   8.837   8.610   3.361
 6081WAT      O18484   4.762   2.005   6.591
 6081WAT     H118485   4.822   2.004   6.512
 6081WAT     H218486   4.672   1.967   6.567
 6082WAT      O18487   7.544   8.284   7.400
 6082WAT     H118488   7.455   8.319   7.372
 6082WAT     H218489   7.537   8.242   7.490
 6083WAT      O18490   4.055   2.875   4.052
 6083WAT     H118491   4.135   2.903   4.105
 6083WAT     H218492   4.026   2.950   3.993
 6084WAT      O18493   2.745   8.749   9.871
 6084WAT     H118494   2.714   8.699   9.790
 6084WAT     H218495   2.844   8.741   9.879
 6085WAT      O18496   4.669   8.117   2.739
 6085WAT     H118497   4.732   8.105   2.815
 6085WAT     H218498   4.575   8.110   2.772
 6086WAT      O18499   3.186   9.788   0.934
 6086WAT     H118500   3.166   9.798   1.031
 6086WAT     H218501   3.246   9.709   0.920
 6087WAT      O18502   5.662   9.547   6.058
 6087WAT     H118503   5.594   9.510   5.994
 6087WAT     H218504   5.649   9.504   6.148
 6088WAT      O18505   1.534   7.920   1.533
 6088WAT     H118506   1.467   7.978   1.579
 6088WAT     H218507   1.534   7.939   1.435
 6089WAT      O18508   1.089   4.751   2.358
 6089WAT     H118509   1.175   4.710   2.328
 6089WAT     H218510   1.090   4.765   2.457
 6090WAT      O18511   4.878   7.596   4.797
 6090WAT     H118512   4.952   7.536   4.767
 6090WAT     H218513   4.843   7.648   4.719
 6091WAT      O18514   8.961   1.530   9.429
 6091WAT     H118515   8.993   1.512   9.336
 6091WAT     H218516   8.918   1.621   9.432
 6092WAT      O18517   9.583   5.887   0.034
 6092WAT     H118518   9.628   5.976   0.044
 6092WAT     H218519   9.632   5.819   0.087
 6093WAT      O18520   1.770   0.973   2.202
 6093WAT     H118521   1.838   0.963   2.129
 6093WAT     H218522   1.757   1.070   2.222
 6094WAT      O18523   8.261   1.947   8.221
 6094WAT     H118524   8.308   1.957   8.134
 6094WAT     H218525   8.163   1.940   8.205
 6095WAT      O18526   1.037   0.339   7.724
 6095WAT     H118527   1.123   0.302   7.688
 6095WAT     H218528   0.964   0.273   7.710
 6096WAT      O18529   3.655   8.604   6.139
 6096WAT     H118530   3.638   8.543   6.217
 6096WAT     H218531   3.616   8.694   6.157
 6097WAT      O18532   6.555   7.683   0.684
 6097WAT     H118533   6.524   7.777   0.667
 6097WAT     H218534   6.552   7.664   0.782
 6098WAT      O18535   2.100   5.305   8.156
 6098WAT     H118536   2.151   5.353   8.084
 6098WAT     H218537   2.008   5.285   8.124
 6099WAT      O18538   7.526   2.084   4.454
 6099WAT     H118539   7.566   2.016   4.392
 6099WAT     H218540   7.595   2.112   4.520
 6100WAT      O18541   1.711   9.065   8.007
 6100WAT     H118542   1.646   9.108   7.944
 6100WAT     H218543   1.800   9.108   7.996
 6101WAT      O18544   3.288   2.000   8.114
 6101WAT     H118545   3.318   1.972   8.023
 6101WAT     H218546   3.311   2.097   8.129
 6102WAT      O18547   4.044   1.964   0.291
 6102WAT     H118548   4.008   1.882   0.337
 6102WAT     H218549   4.020   2.045   0.344
 6103WAT      O18550   0.437   0.782   3.371
 6103WAT     H118551   0.425   0.865   3.316
 6103WAT     H218552   0.348   0.755   3.409
 6104WAT      O18553   6.441   8.407   4.453
 6104WAT     H118554   6.346   8.400   4.425
 6104WAT     H218555   6.466   8.326   4.505
 6105WAT      O18556   8.529   7.558   0.914
 6105WAT     H118557   8.573   7.501   0.983
 6105WAT     H218558   8.547   7.655   0.934
 6106WAT      O18559   4.948   9.597   6.128
 6106WAT     H118560   4.929   9.587   6.225
 6106WAT     H218561   5.047   9.591   6.113
 6107WAT      O18562   7.947   7.944   3.700
 6107WAT     H118563   7.956   8.039   3.671
 6107WAT     H218564   7.924   7.887   3.622
 6108WAT      O18565   0.393   2.620   8.781
 6108WAT     H118566   0.298   2.619   8.750
 6108WAT     H218567   0.451   2.665   8.713
 6109WAT      O18568   6.388   4.947   2.218
 6109WAT     H118569   6.298   4.905   2.236
 6109WAT     H218570   6.434   4.897   2.145
 6110WAT      O18571   5.148   7.777   0.048
 6110WAT     H118572   5.100   7.865   0.055
 6110WAT     H218573   5.098   7.717  -0.014
 6111WAT      O18574   4.062   0.106   6.332
 6111WAT     H118575   4.156   0.086   6.356
 6111WAT     H218576   4.060   0.175   6.259
 6112WAT      O18577   8.326   3.616   5.465
 6112WAT     H118578   8.318   3.606   5.565
 6112WAT     H218579   8.273   3.544   5.420
 6113WAT      O18580   8.069   8.035   8.287
 6113WAT     H118581   8.099   8.023   8.192
 6113WAT     H218582   7.971   8.055   8.289
 6114WAT      O18583   4.158   0.580   0.619
 6114WAT     H118584   4.135   0.485   0.599
 6114WAT     H218585   4.126   0.603   0.711
 6115WAT      O18586   4.233   4.777   8.460
 6115WAT     H118587   4.257   4.687   8.495
 6115WAT     H218588   4.134   4.788   8.460
 6116WAT      O18589   6.334   0.014   0.945
 6116WAT     H118590   6.336  -0.035   1.032
 6116WAT     H218591   6.408   0.081   0.943
 6117WAT      O18592   2.867   6.851   8.533
 6117WAT     H118593   2.964   6.867   8.514
 6117WAT     H218594   2.857   6.805   8.621
 6118WAT      O18595   7.116   2.593   3.793
 6118WAT     H118596   7.184   2.646   3.742
 6118WAT     H218597   7.072   2.652   3.861
 6119WAT      O18598   4.887   8.992   8.926
 6119WAT     H118599   4.830   9.055   8.980
 6119WAT     H218600   4.828   8.928   8.877
 6120WAT      O18601   1.176   5.925   4.210
 6120WAT     H118602   1.164   5.991   4.136
 6120WAT     H218603   1.087   5.889   4.237
 6121WAT      O18604   2.459   9.230   2.527
 6121WAT     H118605   2.374   9.222   2.579
 6121WAT     H218606   2.519   9.297   2.570
 6122WAT      O18607   9.600   4.110   8.259
 6122WAT     H118608   9.508   4.145   8.239
 6122WAT     H218609   9.615   4.025   8.209
 6123WAT      O18610   3.528   0.036   4.940
 6123WAT     H118611   3.595  -0.000   4.876
 6123WAT     H218612   3.539   0.135   4.948
 6124WAT      O18613   3.049   6.999   5.909
 6124WAT     H118614   3.106   6.992   5.991
 6124WAT     H218615   2.984   6.924   5.907
 6125WAT      O18616   9.014   1.430   3.110
 6125WAT     H118617   8.995   1.446   3.013
 6125WAT     H218618   8.972   1.344   3.138
 6126WAT      O18619   4.485   3.808   7.027
 6126WAT     H118620   4.485   3.907   7.035
 6126WAT     H218621   4.544   3.781   6.951
 6127WAT      O18622   4.924   4.015   5.442
 6127WAT     H118623   4.880   4.105   5.442
 6127WAT     H218624   4.958   3.994   5.533
 6128WAT      O18625   1.207   2.080   1.013
 6128WAT     H118626   1.185   2.165   1.061
 6128WAT     H218627   1.122   2.031   0.992
 6129WAT      O18628   4.570   6.221   0.860
 6129WAT     H118629   4.627   6.242   0.780
 6129WAT     H218630   4.625   6.229   0.943
 6130WAT      O18631   6.991   3.180   0.271
 6130WAT     H118632   7.006   3.089   0.310
 6130WAT     H218633   7.033   3.185   0.181
 6131WAT      O18634   1.382   7.708   9.611
 6131WAT     H118635   1.375   7.712   9.511
 6131WAT     H218636   1.334   7.627   9.644
 6132WAT      O18637   6.115   8.941   5.104
 6132WAT     H118638   6.150   8.932   5.198
 6132WAT     H218639   6.190   8.965   5.043
 6133WAT      O18640   9.025   3.050   2.407
 6133WAT     H118641   9.049   3.103   2.325
 6133WAT     H218642   9.029   3.110   2.487
 6134WAT      O18643   4.664   4.889   6.182
 6134WAT     H118644   4.652   4.902   6.083
 6134WAT     H218645   4.651   4.977   6.228
 6135WAT      O18646   2.800   1.018   4.538
 6135WAT     H118647   2.796   1.030   4.439
 6135WAT     H218648   2.744   0.940   4.566
 6136WAT      O18649   0.670   2.326   8.965
 6136WAT     H118650   0.662   2.323   9.065
 6136WAT     H218651   0.760   2.360   8.940
 6137WAT      O18652   9.027   0.479   9.497
 6137WAT     H118653   8.989   0.552   9.441
 6137WAT     H218654   8.963   0.402   9.501
 6138WAT      O18655   6.666   5.904   4.243
 6138WAT     H118656   6.567   5.914   4.258
 6138WAT     H218657   6.708   5.994   4.234
 6139WAT      O18658   7.739   7.060   8.876
 6139WAT     H118659   7.730   7.129   8.805
 6139WAT     H218660   7.762   6.972   8.835
 6140WAT      O18661   0.791   5.134   0.762
 6140WAT     H118662   0.815   5.108   0.855
 6140WAT     H218663   0.713   5.079   0.731
 6141WAT      O18664   7.427   0.557   8.814
 6141WAT     H118665   7.380   0.633   8.769
 6141WAT     H218666   7.421   0.475   8.755
 6142WAT      O18667   6.127   1.040   9.703
 6142WAT     H118668   6.052   1.094   9.741
 6142WAT     H218669   6.203   1.037   9.769
 6143WAT      O18670   9.787   8.082   1.388
 6143WAT     H118671   9.740   8.165   1.419
 6143WAT     H218672   9.720   8.011   1.369
 6144WAT      O18673   6.382   8.146   2.778
 6144WAT     H118674   6.428   8.172   2.693
 6144WAT     H218675   6.349   8.228   2.825
 6145WAT      O18676   0.041   9.024   1.250
 6145WAT     H118677   0.045   9.090   1.325
 6145WAT     H218678   0.111   8.954   1.263
 6146WAT      O18679   2.868   3.687   4.239
 6146WAT     H118680   2.796   3.726   4.297
 6146WAT     H218681   2.885   3.593   4.267
 6147WAT      O18682   4.774   2.516   4.002
 6147WAT     H118683   4.772   2.568   4.088
 6147WAT     H218684   4.689   2.466   3.991
 6148WAT      O18685   1.645   6.725   0.142
 6148WAT     H118686   1.643   6.647   0.205
 6148WAT     H218687   1.613   6.695   0.052
 6149WAT      O18688   0.839   3.450   9.022
 6149WAT     H118689   0.796   3.360   9.012
 6149WAT     H218690   0.903   3.464   8.946
 6150WAT      O18691   1.548   2.476   5.093
 6150WAT     H118692   1.505   2.461   5.182
 6150WAT     H218693   1.640   2.512   5.106
 6151WAT      O18694   8.571   5.987   4.798
 6151WAT     H118695   8.671   5.990   4.791
 6151WAT     H218696   8.539   5.895   4.775
 6152WAT      O18697   1.669   8.186   3.049
 6152WAT     H118698   1.743   8.127   3.081
 6152WAT     H218699   1.623   8.227   3.128
 6153WAT      O18700   4.268   5.019   2.516
 6153WAT     H118701   4.207   4.990   2.590
 6153WAT     H218702   4.335   5.084   2.552
 6154WAT      O18703   3.488   2.191   6.440
 6154WAT     H118704   3.513   2.107   6.488
 6154WAT     H218705   3.502   2.270   6.501
 6155WAT      O18706   2.159   1.615   7.295
 6155WAT     H118707   2.151   1.595   7.198
 6155WAT     H218708   2.248   1.658   7.313
 6156WAT      O18709   3.603   0.806   8.081
 6156WAT     H118710   3.681   0.747   8.060
 6156WAT     H218711   3.635   0.900   8.094
 6157WAT      O18712   0.008   1.768   4.532
 6157WAT     H118713  -0.056   1.790   4.458
 6157WAT     H218714   0.057   1.851   4.559
 6158WAT      O18715   7.431   1.676   5.559
 6158WAT     H118716   7.455   1.595   5.506
 6158WAT     H218717   7.491   1.683   5.639
 6159WAT      O18718   2.347   0.206   2.732
 6159WAT     H118719   2.293   0.161   2.803
 6159WAT     H218720   2.425   0.148   2.709
 6160WAT      O18721   8.561   5.803   7.057
 6160WAT     H118722   8.598   5.896   7.044
 6160WAT     H218723   8.482   5.807   7.118
 6161WAT      O18724   4.884   8.296   1.074
 6161WAT     H118725   4.890   8.246   1.161
 6161WAT     H218726   4.967   8.280   1.021
 6162WAT      O18727   9.784   9.727   7.673
 6162WAT     H118728   9.881   9.750   7.674
 6162WAT     H218729   9.765   9.665   7.597
 6163WAT      O18730   4.985   4.544   6.046
 6163WAT     H118731   4.948   4.636   6.031
 6163WAT     H218732   4.914   4.476   6.029
 6164WAT      O18733   7.550   9.527   1.414
 6164WAT     H118734   7.469   9.573   1.450
 6164WAT     H218735   7.546   9.526   1.314
 6165WAT      O18736   4.816   9.112   0.808
 6165WAT     H118737   4.759   9.178   0.758
 6165WAT     H218738   4.908   9.111   0.769
 6166WAT      O18739   4.389   6.768   8.738
 6166WAT     H118740   4.321   6.825   8.784
 6166WAT     H218741   4.434   6.820   8.666
 6167WAT      O18742   7.889   4.043   2.749
 6167WAT     H118743   7.846   3.967   2.700
 6167WAT     H218744   7.966   4.008   2.803
 6168WAT      O18745   9.845   3.560   0.076
 6168WAT     H118746   9.823   3.471   0.115
 6168WAT     H218747   9.878   3.621   0.149
 6169WAT      O18748   9.269   2.356   7.186
 6169WAT     H118749   9.248   2.453   7.200
 6169WAT     H218750   9.323   2.322   7.262
 6170WAT      O18751   9.013   3.463   5.383
 6170WAT     H118752   8.922   3.429   5.360
 6170WAT     H218753   9.051   3.409   5.458
 6171WAT      O18754   5.492   2.249   3.109
 6171WAT     H118755   5.469   2.325   3.048
 6171WAT     H218756   5.574   2.202   3.074
 6172WAT      O18757   8.265   1.518   6.253
 6172WAT     H118758   8.268   1.435   6.198
 6172WAT     H218759   8.190   1.576   6.221
 6173WAT      O18760   1.845   4.321   6.487
 6173WAT     H118761   1.821   4.237   6.535
 6173WAT     H218762   1.763   4.358   6.443
 6174WAT      O18763   9.237   3.727   4.605
 6174WAT     H118764   9.177   3.794   4.561
 6174WAT     H218765   9.242   3.644   4.549
 6175WAT      O18766   4.178   8.374   9.748
 6175WAT     H118767   4.251   8.433   9.784
 6175WAT     H218768   4.163   8.395   9.652
 6176WAT      O18769   7.066   9.283   5.561
 6176WAT     H118770   7.116   9.204   5.597
 6176WAT     H218771   7.100   9.366   5.605
 6177WAT      O18772   1.446   5.952   8.583
 6177WAT     H118773   1.482   5.950   8.677
 6177WAT     H218774   1.420   6.046   8.560
 6178WAT      O18775   6.455   1.533   2.663
 6178WAT     H118776   6.545   1.546   2.705
 6178WAT     H218777   6.442   1.600   2.590
 6179WAT      O18778   5.616   5.008   1.011
 6179WAT     H118779   5.623   4.923   0.959
 6179WAT     H218780   5.646   5.084   0.953
 6180WAT      O18781   9.689   6.882   3.054
 6180WAT     H118782   9.591   6.893   3.067
 6180WAT     H218783   9.711   6.786   3.038
 6181WAT      O18784   1.956   7.771   1.164
 6181WAT     H118785   1.874   7.798   1.214
 6181WAT     H218786   2.013   7.852   1.148
 6182WAT      O18787   6.639   4.450   0.179
 6182WAT     H118788   6.560   4.390   0.184
 6182WAT     H218789   6.647   4.503   0.264
 6183WAT      O18790   0.945   4.998   6.499
 6183WAT     H118791   0.994   4.945   6.429
 6183WAT     H218792   0.884   5.063   6.455
 6184WAT      O18793   4.459   3.454   4.684
 6184WAT     H118794   4.385   3.495   4.629
 6184WAT     H218795   4.538   3.438   4.626
 6185WAT      O18796   6.229   1.798   8.516
 6185WAT     H118797   6.280   1.751   8.444
 6185WAT     H218798   6.217   1.894   8.491
 6186WAT      O18799   6.770   1.831   5.083
 6186WAT     H118800   6.697   1.775   5.044
 6186WAT     H218801   6.796   1.902   5.017
 6187WAT      O18802   3.317   2.538   9.452
 6187WAT     H118803   3.412   2.527   9.422
 6187WAT     H218804   3.307   2.627   9.497
 6188WAT      O18805   7.032   7.408   6.869
 6188WAT     H118806   6.994   7.465   6.942
 6188WAT     H218807   7.117   7.366   6.901
 6189WAT      O18808   6.787   5.076   2.649
 6189WAT     H118809   6.863   5.140   2.638
 6189WAT     H218810   6.760   5.039   2.560
 6190WAT      O18811   3.282   9.615   6.487
 6190WAT     H118812   3.359   9.674   6.513
 6190WAT     H218813   3.240   9.576   6.569
 6191WAT      O18814   8.794   5.606   9.184
 6191WAT     H118815   8.868   5.543   9.207
 6191WAT     H218816   8.831   5.687   9.137
 6192WAT      O18817   4.589   5.330   8.142
 6192WAT     H118818   4.596   5.428   8.126
 6192WAT     H218819   4.498   5.298   8.113
 6193WAT      O18820   6.687   7.155   8.188
 6193WAT     H118821   6.747   7.119   8.259
 6193WAT     H218822   6.608   7.095   8.176
 6194WAT      O18823   1.715   4.017   3.714
 6194WAT     H118824   1.721   4.103   3.764
 6194WAT     H218825   1.799   4.002   3.662
 6195WAT      O18826   0.196   1.903   6.630
 6195WAT     H118827   0.232   1.878   6.540
 6195WAT     H218828   0.202   1.825   6.692
 6196WAT      O18829   6.535   7.603   8.452
 6196WAT     H118830   6.551   7.508   8.480
 6196WAT     H218831   6.455   7.638   8.500
 6197WAT      O18832   4.308   2.734   6.229
 6197WAT     H118833   4.230   2.676   6.249
 6197WAT     H218834   4.371   2.733   6.307
 6198WAT      O18835   7.078   6.821   3.619
 6198WAT     H118836   7.137   6.865   3.551
 6198WAT     H218837   7.010   6.765   3.573
 6199WAT      O18838   5.143   7.497   3.476
 6199WAT     H118839   5.116   7.443   3.556
 6199WAT     H218840   5.241   7.487   3.462
 6200WAT      O18841   4.148   2.082   7.227
 6200WAT     H118842   4.083   2.139   7.176
 6200WAT     H218843   4.209   2.035   7.164
 6201WAT      O18844   9.436   0.314   4.493
 6201WAT     H118845   9.413   0.337   4.587
 6201WAT     H218846   9.427   0.395   4.435
 6202WAT      O18847   0.684   3.575   6.874
 6202WAT     H118848   0.718   3.589   6.781
 6202WAT     H218849   0.584   3.570   6.873
 6203WAT      O18850   6.042   2.137   7.811
 6203WAT     H118851   6.112   2.207   7.800
 6203WAT     H218852   5.951   2.178   7.803
 6204WAT      O18853   9.751   6.630   5.077
 6204WAT     H118854   9.675   6.569   5.101
 6204WAT     H218855   9.798   6.660   5.160
 6205WAT      O18856   2.353   4.306   6.072
 6205WAT     H118857   2.299   4.389   6.060
 6205WAT     H218858   2.447   4.331   6.097
 6206WAT      O18859   8.155   5.562   0.602
 6206WAT     H118860   8.083   5.581   0.669
 6206WAT     H218861   8.141   5.619   0.522
 6207WAT      O18862   3.806   8.979   1.083
 6207WAT     H118863   3.818   8.880   1.070
 6207WAT     H218864   3.852   9.028   1.009
 6208WAT      O18865   5.644   2.452   1.677
 6208WAT     H118866   5.677   2.360   1.695
 6208WAT     H218867   5.617   2.495   1.763
 6209WAT      O18868   2.899   6.804   2.859
 6209WAT     H118869   2.867   6.843   2.945
 6209WAT     H218870   2.993   6.771   2.869
 6210WAT      O18871   3.129   5.860   5.416
 6210WAT     H118872   3.127   5.796   5.339
 6210WAT     H218873   3.139   5.953   5.382
 6211WAT      O18874   1.492   4.281   8.801
 6211WAT     H118875   1.460   4.187   8.798
 6211WAT     H218876   1.489   4.315   8.895
 6212WAT      O18877   4.544   4.259   7.371
 6212WAT     H118878   4.563   4.349   7.410
 6212WAT     H218879   4.511   4.270   7.278
 6213WAT      O18880   4.446   7.135   3.426
 6213WAT     H118881   4.514   7.085   3.480
 6213WAT     H218882   4.492   7.202   3.368
 6214WAT      O18883   4.883   8.701   1.941
 6214WAT     H118884   4.853   8.781   1.993
 6214WAT     H218885   4.869   8.718   1.844
 6215WAT      O18886   6.673   5.801   2.316
 6215WAT     H118887   6.764   5.843   2.316
 6215WAT     H218888   6.655   5.762   2.406
 6216WAT      O18889   0.845   5.393   5.596
 6216WAT     H118890   0.914   5.351   5.655
 6216WAT     H218891   0.871   5.488   5.578
 6217WAT      O18892   8.287   5.449   9.405
 6217WAT     H118893   8.224   5.509   9.453
 6217WAT     H218894   8.331   5.499   9.331
 6218WAT      O18895   3.989   8.832   5.528
 6218WAT     H118896   3.941   8.806   5.445
 6218WAT     H218897   4.066   8.771   5.543
 6219WAT      O18898   1.264   4.350   4.687
 6219WAT     H118899   1.329   4.348   4.611
 6219WAT     H218900   1.174   4.320   4.654
 6220WAT      O18901   0.302   3.618   6.352
 6220WAT     H118902   0.279   3.520   6.351
 6220WAT     H218903   0.401   3.629   6.353
 6221WAT      O18904   4.825   2.778   6.068
 6221WAT     H118905   4.920   2.789   6.039
 6221WAT     H218906   4.787   2.867   6.093
 6222WAT      O18907   2.604   9.792   1.880
 6222WAT     H118908   2.563   9.713   1.925
 6222WAT     H218909   2.545   9.872   1.893
 6223WAT      O18910   4.877   1.395   6.997
 6223WAT     H118911   4.864   1.446   6.912
 6223WAT     H218912   4.794   1.343   7.017
 6224WAT      O18913   4.253   3.695   6.962
 6224WAT     H118914   4.198   3.649   7.031
 6224WAT     H218915   4.338   3.727   7.003
 6225WAT      O18916   9.084   1.620   8.660
 6225WAT     H118917   9.130   1.616   8.571
 6225WAT     H218918   9.119   1.698   8.712
 6226WAT      O18919   6.941   9.599   5.385
 6226WAT     H118920   6.907   9.504   5.379
 6226WAT     H218921   6.920   9.647   5.300
 6227WAT      O18922   2.205   6.495   8.464
 6227WAT     H118923   2.247   6.572   8.416
 6227WAT     H218924   2.257   6.476   8.547
 6228WAT      O18925   5.079   7.731   4.472
 6228WAT     H118926   5.143   7.713   4.547
 6228WAT     H218927   5.107   7.678   4.392
 6229WAT      O18928   4.573   2.940   0.253
 6229WAT     H118929   4.473   2.945   0.261
 6229WAT     H218930   4.602   2.980   0.166
 6230WAT      O18931   8.659   5.450   2.388
 6230WAT     H118932   8.632   5.543   2.414
 6230WAT     H218933   8.747   5.428   2.430
 6231WAT      O18934   6.670   1.659   4.759
 6231WAT     H118935   6.613   1.694   4.685
 6231WAT     H218936   6.766   1.679   4.740
 6232WAT      O18937   6.912   3.468   8.771
 6232WAT     H118938   6.948   3.480   8.678
 6232WAT     H218939   6.972   3.406   8.822
 6233WAT      O18940   3.494   7.654   7.240
 6233WAT     H118941   3.570   7.599   7.274
 6233WAT     H218942   3.483   7.638   7.142
 6234WAT      O18943   3.556   7.835   5.400
 6234WAT     H118944   3.619   7.770   5.441
 6234WAT     H218945   3.494   7.871   5.470
 6235WAT      O18946   3.017   1.888   6.804
 6235WAT     H118947   3.097   1.834   6.778
 6235WAT     H218948   2.979   1.933   6.723
 6236WAT      O18949   7.374   9.301   3.613
 6236WAT     H118950   7.402   9.273   3.521
 6236WAT     H218951   7.408   9.235   3.680
 6237WAT      O18952   4.439   3.175   3.324
 6237WAT     H118953   4.389   3.258   3.299
 6237WAT     H218954   4.534   3.182   3.291
 6238WAT      O18955   6.768   6.216   2.960
 6238WAT     H118956   6.710   6.297   2.956
 6238WAT     H218957   6.784   6.183   2.867
 6239WAT      O18958   1.067   2.282   9.625
 6239WAT     H118959   0.979   2.319   9.653
 6239WAT     H218960   1.107   2.339   9.553
 6240WAT      O18961   7.767   6.873   5.532
 6240WAT     H118962   7.799   6.810   5.462
 6240WAT     H218963   7.676   6.906   5.507
 6241WAT      O18964   1.649   5.959   6.881
 6241WAT     H118965   1.617   5.952   6.975
 6241WAT     H218966   1.747   5.980   6.881
 6242WAT      O18967   7.626   5.026   4.792
 6242WAT     H118968   7.550   5.091   4.795
 6242WAT     H218969   7.702   5.067   4.742
 6243WAT      O18970   5.078   2.757   3.124
 6243WAT     H118971   4.984   2.733   3.145
 6243WAT     H218972   5.126   2.677   3.088
 6244WAT      O18973   1.648   5.348   2.468
 6244WAT     H118974   1.715   5.410   2.509
 6244WAT     H218975   1.691   5.296   2.395
 6245WAT      O18976   7.496   1.724   7.246
 6245WAT     H118977   7.513   1.822   7.244
 6245WAT     H218978   7.428   1.703   7.317
 6246WAT      O18979   4.884   7.488   1.072
 6246WAT     H118980   4.915   7.404   1.116
 6246WAT     H218981   4.823   7.537   1.134
 6247WAT      O18982   9.139   0.803   0.566
 6247WAT     H118983   9.046   0.777   0.593
 6247WAT     H218984   9.145   0.808   0.466
 6248WAT      O18985   1.179   6.646   9.258
 6248WAT     H118986   1.238   6.658   9.178
 6248WAT     H218987   1.115   6.572   9.242
 6249WAT      O18988   3.175   2.618   4.477
 6249WAT     H118989   3.168   2.716   4.457
 6249WAT     H218990   3.232   2.574   4.408
 6250WAT      O18991   2.935   5.189   5.003
 6250WAT     H118992   2.978   5.147   5.083
 6250WAT     H218993   2.960   5.138   4.921
 6251WAT      O18994   2.301   2.246   9.169
 6251WAT     H118995   2.273   2.302   9.246
 6251WAT     H218996   2.249   2.272   9.087
 6252WAT      O18997   2.602   2.238   9.667
 6252WAT     H118998   2.612   2.139   9.673
 6252WAT     H218999   2.525   2.261   9.607
 6253WAT      O19000   2.139   1.810   1.561
 6253WAT     H119001   2.164   1.899   1.522
 6253WAT     H219002   2.182   1.800   1.650
 6254WAT      O19003   3.797   2.463   7.330
 6254WAT     H119004   3.859   2.393   7.367
 6254WAT     H219005   3.771   2.439   7.237
 6255WAT      O19006   1.467   2.542   6.744
 6255WAT     H119007   1.495   2.455   6.705
 6255WAT     H219008   1.488   2.616   6.679
 6256WAT      O19009   6.062   8.083   0.727
 6256WAT     H119010   6.038   8.163   0.673
 6256WAT     H219011   6.108   8.016   0.670
 6257WAT      O19012   5.283   7.423   9.465
 6257WAT     H119013   5.325   7.495   9.410
 6257WAT     H219014   5.184   7.426   9.452
 6258WAT      O19015   1.096   8.200   1.773
 6258WAT     H119016   1.030   8.128   1.793
 6258WAT     H219017   1.123   8.245   1.859
 6259WAT      O19018   2.687   8.686   9.294
 6259WAT     H119019   2.608   8.672   9.236
 6259WAT     H219020   2.765   8.633   9.259
 6260WAT      O19021   3.339   5.663   8.569
 6260WAT     H119022   3.361   5.643   8.474
 6260WAT     H219023   3.258   5.611   8.596
 6261WAT      O19024   4.410   6.412   2.581
 6261WAT     H119025   4.324   6.362   2.591
 6261WAT     H219026   4.485   6.348   2.567
 6262WAT      O19027   2.903   2.367   3.020
 6262WAT     H119028   2.810   2.332   3.035
 6262WAT     H219029   2.956   2.358   3.104
 6263WAT      O19030   6.604   8.451   8.277
 6263WAT     H119031   6.629   8.386   8.206
 6263WAT     H219032   6.660   8.534   8.267
 6264WAT      O19033   3.368   3.301   2.439
 6264WAT     H119034   3.341   3.327   2.532
 6264WAT     H219035   3.293   3.249   2.396
 6265WAT      O19036   2.174   3.448   4.498
 6265WAT     H119037   2.134   3.450   4.589
 6265WAT     H219038   2.103   3.427   4.431
 6266WAT      O19039   4.628   9.330   1.071
 6266WAT     H119040   4.707   9.268   1.071
 6266WAT     H219041   4.624   9.378   1.158
 6267WAT      O19042   1.247   5.665   7.942
 6267WAT     H119043   1.275   5.761   7.947
 6267WAT     H219044   1.211   5.646   7.851
 6268WAT      O19045   3.147   7.721   9.340
 6268WAT     H119046   3.214   7.654   9.373
 6268WAT     H219047   3.055   7.694   9.369
 6269WAT      O19048   5.828   5.685   0.129
 6269WAT     H119049   5.903   5.741   0.096
 6269WAT     H219050   5.779   5.646   0.052
 6270WAT      O19051   6.811   2.474   5.588
 6270WAT     H119052   6.785   2.441   5.679
 6270WAT     H219053   6.827   2.396   5.527
 6271WAT      O19054   7.579   0.928   5.053
 6271WAT     H119055   7.538   0.872   5.125
 6271WAT     H219056   7.674   0.950   5.077
 6272WAT      O19057   6.820   0.932   9.773
 6272WAT     H119058   6.850   0.871   9.700
 6272WAT     H219059   6.752   0.886   9.830
 6273WAT      O19060   0.322   7.827   9.076
 6273WAT     H119061   0.290   7.734   9.094
 6273WAT     H219062   0.274   7.864   8.997
 6274WAT      O19063   0.234   2.422   8.410
 6274WAT     H119064   0.325   2.407   8.371
 6274WAT     H219065   0.237   2.403   8.508
 6275WAT      O19066   1.552   2.590   1.635
 6275WAT     H119067   1.476   2.564   1.577
 6275WAT     H219068   1.522   2.597   1.730
 6276WAT      O19069   7.551   7.213   2.840
 6276WAT     H119070   7.511   7.305   2.835
 6276WAT     H219071   7.573   7.181   2.748
 6277WAT      O19072   7.444   9.582   7.143
 6277WAT     H119073   7.493   9.668   7.156
 6277WAT     H219074   7.350   9.591   7.175
 6278WAT      O19075   7.298   0.878   7.033
 6278WAT     H119076   7.381   0.842   7.077
 6278WAT     H219077   7.321   0.963   6.985
 6279WAT      O19078   1.137   5.669   0.930
 6279WAT     H119079   1.058   5.729   0.915
 6279WAT     H219080   1.219   5.714   0.895
 6280WAT      O19081   1.758   0.716   9.876
 6280WAT     H119082   1.825   0.711   9.802
 6280WAT     H219083   1.710   0.804   9.872
 6281WAT      O19084   5.146   1.104   8.193
 6281WAT     H119085   5.060   1.057   8.171
 6281WAT     H219086   5.170   1.166   8.119
 6282WAT      O19087   4.029   5.110   6.494
 6282WAT     H119088   4.121   5.094   6.529
 6282WAT     H219089   4.032   5.119   6.394
 6283WAT      O19090   4.184   5.590   2.048
 6283WAT     H119091   4.143   5.503   2.021
 6283WAT     H219092   4.269   5.573   2.098
 6284WAT      O19093   1.738   6.315   4.501
 6284WAT     H119094   1.727   6.219   4.476
 6284WAT     H219095   1.720   6.373   4.422
 6285WAT      O19096   1.591   4.418   7.473
 6285WAT     H119097   1.637   4.496   7.431
 6285WAT     H219098   1.497   4.413   7.441
 6286WAT      O19099   9.115   6.277   5.084
 6286WAT     H119100   9.208   6.288   5.119
 6286WAT     H219101   9.055   6.246   5.158
 6287WAT      O19102   7.094   1.143   8.684
 6287WAT     H119103   7.035   1.189   8.617
 6287WAT     H219104   7.047   1.061   8.718
 6288WAT      O19105   6.642   1.129   4.463
 6288WAT     H119106   6.630   1.154   4.560
 6288WAT     H219107   6.552   1.117   4.421
 6289WAT      O19108   6.613   5.920   7.727
 6289WAT     H119109   6.701   5.889   7.691
 6289WAT     H219110   6.562   5.841   7.762
 6290WAT      O19111   4.460   7.559   2.878
 6290WAT     H119112   4.497   7.562   2.785
 6290WAT     H219113   4.532   7.581   2.944
 6291WAT      O19114   4.726   1.142   5.273
 6291WAT     H119115   4.716   1.067   5.208
 6291WAT     H219116   4.699   1.110   5.364
 6292WAT      O19117   8.903   0.270   9.692
 6292WAT     H119118   8.973   0.212   9.652
 6292WAT     H219119   8.851   0.314   9.620
 6293WAT      O19120   8.867   9.426   7.041
 6293WAT     H119121   8.885   9.394   7.134
 6293WAT     H219122   8.883   9.352   6.976
 6294WAT      O19123   6.761   1.445   5.220
 6294WAT     H119124   6.848   1.398   5.204
 6294WAT     H219125   6.722   1.473   5.132
 6295WAT      O19126   6.151   8.139   8.432
 6295WAT     H119127   6.239   8.096   8.414
 6295WAT     H219128   6.165   8.235   8.456
 6296WAT      O19129   0.363   7.764   3.762
 6296WAT     H119130   0.347   7.854   3.802
 6296WAT     H219131   0.276   7.717   3.749
 6297WAT      O19132   5.348   8.449   3.783
 6297WAT     H119133   5.265   8.411   3.743
 6297WAT     H219134   5.330   8.540   3.819
 6298WAT      O19135   5.905   3.248   9.871
 6298WAT     H119136   5.818   3.276   9.910
 6298WAT     H219137   5.893   3.226   9.774
 6299WAT      O19138   3.074   3.966   3.055
 6299WAT     H119139   2.992   4.022   3.068
 6299WAT     H219140   3.109   3.980   2.962
 6300WAT      O19141   9.199   8.030   8.083
 6300WAT     H119142   9.212   8.051   7.986
 6300WAT     H219143   9.102   8.036   8.105
 6301WAT      O19144   1.810   5.415   0.526
 6301WAT     H119145   1.727   5.383   0.573
 6301WAT     H219146   1.786   5.491   0.465
 6302WAT      O19147   3.284   1.405   5.085
 6302WAT     H119148   3.252   1.492   5.048
 6302WAT     H219149   3.304   1.416   5.183
 6303WAT      O19150   9.276   3.490   3.313
 6303WAT     H119151   9.372   3.464   3.310
 6303WAT     H219152   9.265   3.570   3.372
 6304WAT      O19153   2.500   3.049   8.089
 6304WAT     H119154   2.471   3.004   8.173
 6304WAT     H219155   2.599   3.058   8.088
 6305WAT      O19156   5.569   4.846   9.317
 6305WAT     H119157   5.562   4.857   9.416
 6305WAT     H219158   5.638   4.908   9.281
 6306WAT      O19159   3.105   7.038   2.509
 6306WAT     H119160   3.033   6.972   2.531
 6306WAT     H219161   3.132   7.027   2.414
 6307WAT      O19162   6.544   3.049   5.050
 6307WAT     H119163   6.587   3.129   5.008
 6307WAT     H219164   6.477   3.009   4.987
 6308WAT      O19165   3.588   3.392   4.968
 6308WAT     H119166   3.609   3.478   5.013
 6308WAT     H219167   3.654   3.322   4.995
 6309WAT      O19168   2.203   2.066   1.867
 6309WAT     H119169   2.130   2.008   1.905
 6309WAT     H219170   2.292   2.029   1.896
 6310WAT      O19171   5.790   5.877   8.823
 6310WAT     H119172   5.800   5.793   8.877
 6310WAT     H219173   5.759   5.951   8.883
 6311WAT      O19174   2.686   7.808   6.410
 6311WAT     H119175   2.657   7.819   6.315
 6311WAT     H219176   2.692   7.897   6.454
 6312WAT      O19177   4.323   8.823   9.287
 6312WAT     H119178   4.227   8.795   9.296
 6312WAT     H219179   4.370   8.808   9.374
 6313WAT      O19180   1.933   9.575   5.802
 6313WAT     H119181   1.978   9.555   5.715
 6313WAT     H219182   1.939   9.673   5.821
 6314WAT      O19183   3.076   9.355   3.187
 6314WAT     H119184   3.017   9.436   3.184
 6314WAT     H219185   3.166   9.381   3.221
 6315WAT      O19186   6.509   6.933   6.709
 6315WAT     H119187   6.529   6.956   6.613
 6315WAT     H219188   6.562   6.852   6.735
 6316WAT      O19189   8.840   8.743   4.468
 6316WAT     H119190   8.901   8.705   4.537
 6316WAT     H219191   8.787   8.818   4.507
 6317WAT      O19192   2.090   7.497   9.380
 6317WAT     H119193   2.069   7.418   9.436
 6317WAT     H219194   2.177   7.537   9.409
 6318WAT      O19195   8.853   1.240   3.279
 6318WAT     H119196   8.905   1.239   3.365
 6318WAT     H219197   8.755   1.244   3.300
 6319WAT      O19198   8.770   3.538   6.974
 6319WAT     H119199   8.689   3.504   6.926
 6319WAT     H219200   8.841   3.467   6.974
 6320WAT      O19201   1.191   2.112   9.781
 6320WAT     H119202   1.182   2.016   9.753
 6320WAT     H219203   1.147   2.171   9.714
 6321WAT      O19204   5.487   8.382   4.500
 6321WAT     H119205   5.467   8.432   4.584
 6321WAT     H219206   5.480   8.284   4.517
 6322WAT      O19207   5.275   8.112   4.349
 6322WAT     H119208   5.277   8.178   4.273
 6322WAT     H219209   5.182   8.078   4.362
 6323WAT      O19210   1.248   4.235   3.440
 6323WAT     H119211   1.223   4.146   3.402
 6323WAT     H219212   1.258   4.301   3.366
 6324WAT      O19213   8.591   5.243   6.262
 6324WAT     H119214   8.562   5.229   6.356
 6324WAT     H219215   8.511   5.266   6.205
 6325WAT      O19216   5.789   0.425   9.552
 6325WAT     H119217   5.839   0.509   9.531
 6325WAT     H219218   5.691   0.443   9.546
 6326WAT      O19219   8.386   4.499   4.604
 6326WAT     H119220   8.309   4.530   4.547
 6326WAT     H219221   8.363   4.412   4.647
 6327WAT      O19222   2.660   5.269   5.301
 6327WAT     H119223   2.595   5.299   5.370
 6327WAT     H219224   2.665   5.338   5.228
 6328WAT      O19225   6.791   7.110   7.935
 6328WAT     H119226   6.735   7.121   8.017
 6328WAT     H219227   6.888   7.113   7.960
 6329WAT      O19228   5.545   3.961   1.014
 6329WAT     H119229   5.449   3.936   1.009
 6329WAT     H219230   5.580   3.975   0.921
 6330WAT      O19231   3.793   7.069   9.176
 6330WAT     H119232   3.702   7.027   9.170
 6330WAT     H219233   3.793   7.139   9.247
 6331WAT      O19234   0.037   0.077   5.930
 6331WAT     H119235  -0.041   0.121   5.976
 6331WAT     H219236   0.122   0.111   5.969
 6332WAT      O19237   5.930   6.530   1.950
 6332WAT     H119238   5.835   6.540   1.980
 6332WAT     H219239   5.931   6.489   1.859
 6333WAT      O19240   0.096   8.495   9.223
 6333WAT     H119241   0.149   8.579   9.233
 6333WAT     H219242   0.150   8.427   9.174
 6334WAT      O19243   7.330   0.153   0.753
 6334WAT     H119244   7.374   0.123   0.668
 6334WAT     H219245   7.233   0.172   0.735
 6335WAT      O19246   2.363   7.221   2.125
 6335WAT     H119247   2.317   7.204   2.038
 6335WAT     H219248   2.345   7.144   2.187
 6336WAT      O19249   6.090   7.965   3.781
 6336WAT     H119250   6.040   8.046   3.813
 6336WAT     H219251   6.186   7.989   3.767
 6337WAT      O19252   8.902   0.110   0.458
 6337WAT     H119253   8.829   0.121   0.390
 6337WAT     H219254   8.973   0.051   0.422
 6338WAT      O19255   9.513   4.888   3.951
 6338WAT     H119256   9.595   4.833   3.964
 6338WAT     H219257   9.525   4.947   3.870
 6339WAT      O19258   3.622   5.938   0.633
 6339WAT     H119259   3.590   5.933   0.728
 6339WAT     H219260   3.634   6.034   0.607
 6340WAT      O19261   2.082   1.745   4.644
 6340WAT     H119262   2.061   1.834   4.605
 6340WAT     H219263   2.006   1.682   4.627
 6341WAT      O19264   2.711   6.125   8.412
 6341WAT     H119265   2.703   6.040   8.465
 6341WAT     H219266   2.625   6.175   8.417
 6342WAT      O19267   7.587   7.511   8.429
 6342WAT     H119268   7.610   7.536   8.523
 6342WAT     H219269   7.576   7.412   8.422
 6343WAT      O19270   3.086   7.576   2.996
 6343WAT     H119271   3.068   7.674   3.004
 6343WAT     H219272   3.004   7.530   2.963
 6344WAT      O19273   6.985   7.195   7.533
 6344WAT     H119274   6.928   7.116   7.556
 6344WAT     H219275   6.928   7.277   7.529
 6345WAT      O19276   7.377   3.153   6.387
 6345WAT     H119277   7.337   3.137   6.297
 6345WAT     H219278   7.449   3.222   6.380
 6346WAT      O19279   0.857   4.843   2.721
 6346WAT     H119280   0.849   4.829   2.820
 6346WAT     H219281   0.952   4.830   2.693
 6347WAT      O19282   5.864   9.226   6.313
 6347WAT     H119283   5.883   9.166   6.235
 6347WAT     H219284   5.931   9.209   6.385
 6348WAT      O19285   3.633   4.783   0.834
 6348WAT     H119286   3.700   4.858   0.825
 6348WAT     H219287   3.590   4.767   0.745
 6349WAT      O19288   5.464   4.142   4.955
 6349WAT     H119289   5.390   4.201   4.925
 6349WAT     H219290   5.473   4.065   4.892
 6350WAT      O19291   8.549   6.446   9.180
 6350WAT     H119292   8.483   6.397   9.123
 6350WAT     H219293   8.603   6.381   9.233
 6351WAT      O19294   4.730   9.481   1.823
 6351WAT     H119295   4.768   9.505   1.913
 6351WAT     H219296   4.723   9.382   1.815
 6352WAT      O19297   5.987   7.664   0.987
 6352WAT     H119298   6.085   7.643   0.980
 6352WAT     H219299   5.971   7.728   1.062
 6353WAT      O19300   2.574   6.382   2.201
 6353WAT     H119301   2.504   6.390   2.271
 6353WAT     H219302   2.664   6.371   2.245
 6354WAT      O19303   8.902   5.777   8.987
 6354WAT     H119304   8.923   5.691   8.941
 6354WAT     H219305   8.972   5.845   8.964
 6355WAT      O19306   2.861   0.056   5.236
 6355WAT     H119307   2.771   0.023   5.264
 6355WAT     H219308   2.932   0.010   5.290
 6356WAT      O19309   5.342   7.015   0.321
 6356WAT     H119310   5.265   6.963   0.283
 6356WAT     H219311   5.358   6.986   0.416
 6357WAT      O19312   0.719   1.577   9.198
 6357WAT     H119313   0.660   1.547   9.123
 6357WAT     H219314   0.668   1.575   9.284
 6358WAT      O19315   6.874   6.377   4.968
 6358WAT     H119316   6.917   6.386   4.878
 6358WAT     H219317   6.869   6.467   5.012
 6359WAT      O19318   9.047   4.315   6.808
 6359WAT     H119319   9.054   4.368   6.893
 6359WAT     H219320   9.031   4.377   6.731
 6360WAT      O19321   5.042   0.980   7.259
 6360WAT     H119322   4.999   0.908   7.314
 6360WAT     H219323   5.136   0.995   7.291
 6361WAT      O19324   4.400   7.118   6.356
 6361WAT     H119325   4.495   7.148   6.345
 6361WAT     H219326   4.352   7.181   6.418
 6362WAT      O19327   4.245   8.472   0.530
 6362WAT     H119328   4.261   8.384   0.487
 6362WAT     H219329   4.290   8.544   0.477
 6363WAT      O19330   9.805   7.965   0.860
 6363WAT     H119331   9.876   7.906   0.899
 6363WAT     H219332   9.825   7.982   0.763
 6364WAT      O19333   5.905   2.265   2.346
 6364WAT     H119334   5.808   2.283   2.328
 6364WAT     H219335   5.920   2.263   2.445
 6365WAT      O19336   0.898   7.792   7.836
 6365WAT     H119337   0.968   7.724   7.813
 6365WAT     H219338   0.872   7.782   7.932
 6366WAT      O19339   9.048   0.978   3.715
 6366WAT     H119340   9.097   1.030   3.785
 6366WAT     H219341   8.986   1.039   3.666
 6367WAT      O19342   6.351   7.362   5.126
 6367WAT     H119343   6.423   7.378   5.193
 6367WAT     H219344   6.385   7.299   5.056
 6368WAT      O19345   2.730   4.303   1.507
 6368WAT     H119346   2.791   4.313   1.428
 6368WAT     H219347   2.673   4.222   1.496
 6369WAT      O19348   2.753   2.208   3.476
 6369WAT     H119349   2.750   2.165   3.566
 6369WAT     H219350   2.837   2.262   3.467
 6370WAT      O19351   3.132   8.424   8.458
 6370WAT     H119352   3.119   8.516   8.494
 6370WAT     H219353   3.080   8.358   8.513
 6371WAT      O19354   9.527   9.495   7.575
 6371WAT     H119355   9.517   9.396   7.582
 6371WAT     H219356   9.502   9.538   7.662
 6372WAT      O19357   0.596   1.521   5.092
 6372WAT     H119358   0.615   1.442   5.033
 6372WAT     H219359   0.509   1.562   5.064
 6373WAT      O19360   2.890   5.659   0.512
 6373WAT     H119361   2.946   5.613   0.443
 6373WAT     H219362   2.926   5.751   0.527
 6374WAT      O19363   5.135   4.396   5.362
 6374WAT     H119364   5.191   4.337   5.420
 6374WAT     H219365   5.178   4.406   5.272
 6375WAT      O19366   1.029   2.717   0.240
 6375WAT     H119367   1.051   2.696   0.336
 6375WAT     H219368   1.004   2.632   0.193
 6376WAT      O19369   9.190   7.762   3.296
 6376WAT     H119370   9.122   7.692   3.315
 6376WAT     H219371   9.274   7.720   3.262
 6377WAT      O19372   3.818   7.538   4.135
 6377WAT     H119373   3.806   7.455   4.081
 6377WAT     H219374   3.730   7.565   4.175
 6378WAT      O19375   2.197   8.203   5.339
 6378WAT     H119376   2.168   8.125   5.393
 6378WAT     H219377   2.268   8.174   5.274
 6379WAT      O19378   6.619   3.382   9.602
 6379WAT     H119379   6.680   3.378   9.681
 6379WAT     H219380   6.609   3.477   9.573
 6380WAT      O19381   1.092   3.177   3.983
 6380WAT     H119382   1.146   3.112   4.036
 6380WAT     H219383   1.153   3.242   3.937
 6381WAT      O19384   5.439   1.436   9.392
 6381WAT     H119385   5.423   1.478   9.482
 6381WAT     H219386   5.359   1.450   9.334
 6382WAT      O19387   9.618   5.740   8.499
 6382WAT     H119388   9.707   5.782   8.519
 6382WAT     H219389   9.554   5.761   8.573
 6383WAT      O19390   5.909   9.564   6.831
 6383WAT     H119391   5.928   9.504   6.754
 6383WAT     H219392   5.927   9.659   6.805
 6384WAT      O19393   7.885   2.624   8.957
 6384WAT     H119394   7.859   2.613   8.862
 6384WAT     H219395   7.804   2.619   9.016
 6385WAT      O19396   0.571   3.669   4.703
 6385WAT     H119397   0.516   3.604   4.651
 6385WAT     H219398   0.657   3.686   4.655
 6386WAT      O19399   0.866   2.426   2.768
 6386WAT     H119400   0.927   2.414   2.690
 6386WAT     H219401   0.781   2.374   2.753
 6387WAT      O19402   3.303   7.821   0.055
 6387WAT     H119403   3.281   7.916   0.078
 6387WAT     H219404   3.340   7.775   0.136
 6388WAT      O19405   7.304   9.671   9.790
 6388WAT     H119406   7.228   9.621   9.748
 6388WAT     H219407   7.301   9.767   9.761
 6389WAT      O19408   2.465   0.844   7.572
 6389WAT     H119409   2.539   0.910   7.560
 6389WAT     H219410   2.462   0.814   7.667
 6390WAT      O19411   7.781   1.195   2.089
 6390WAT     H119412   7.695   1.166   2.048
 6390WAT     H219413   7.770   1.284   2.132
 6391WAT      O19414   2.583   5.705   1.075
 6391WAT     H119415   2.485   5.696   1.057
 6391WAT     H219416   2.629   5.619   1.055
 6392WAT      O19417   9.820   6.412   3.805
 6392WAT     H119418   9.841   6.450   3.716
 6392WAT     H219419   9.905   6.386   3.851
 6393WAT      O19420   1.571   5.530   8.817
 6393WAT     H119421   1.564   5.442   8.865
 6393WAT     H219422   1.667   5.556   8.812
 6394WAT      O19423   6.159   3.212   9.420
 6394WAT     H119424   6.074   3.212   9.472
 6394WAT     H219425   6.225   3.273   9.466
 6395WAT      O19426   5.576   3.015   0.033
 6395WAT     H119427   5.662   3.007  -0.018
 6395WAT     H219428   5.565   2.936   0.093
 6396WAT      O19429   5.897   2.670   3.700
 6396WAT     H119430   5.992   2.671   3.729
 6396WAT     H219431   5.852   2.755   3.728
 6397WAT      O19432   5.323   0.406   2.719
 6397WAT     H119433   5.307   0.489   2.664
 6397WAT     H219434   5.254   0.400   2.791
 6398WAT      O19435   6.290   5.256   1.522
 6398WAT     H119436   6.292   5.208   1.610
 6398WAT     H219437   6.363   5.324   1.520
 6399WAT      O19438   3.670   8.366   7.996
 6399WAT     H119439   3.647   8.452   7.951
 6399WAT     H219440   3.764   8.339   7.972
 6400WAT      O19441   8.268   8.386   8.666
 6400WAT     H119442   8.281   8.289   8.684
 6400WAT     H219443   8.172   8.404   8.646
 6401WAT      O19444   2.822   8.261   0.053
 6401WAT     H119445   2.817   8.325   0.130
 6401WAT     H219446   2.906   8.278   0.001
 6402WAT      O19447   9.126   6.590   6.991
 6402WAT     H119448   9.112   6.615   6.895
 6402WAT     H219449   9.057   6.523   7.018
 6403WAT      O19450   6.268   6.376   1.671
 6403WAT     H119451   6.214   6.460   1.665
 6403WAT     H219452   6.326   6.367   1.589
 6404WAT      O19453   1.699   3.921   0.660
 6404WAT     H119454   1.666   3.836   0.702
 6404WAT     H219455   1.653   3.934   0.572
 6405WAT      O19456   0.196   6.131   4.937
 6405WAT     H119457   0.219   6.117   5.034
 6405WAT     H219458   0.183   6.228   4.919
 6406WAT      O19459   9.611   5.125   0.343
 6406WAT     H119460   9.549   5.129   0.264
 6406WAT     H219461   9.610   5.213   0.391
 6407WAT      O19462   0.087   6.639   6.750
 6407WAT     H119463   0.044   6.558   6.789
 6407WAT     H219464   0.165   6.612   6.694
 6408WAT      O19465   2.160   9.057   2.479
 6408WAT     H119466   2.155   9.151   2.445
 6408WAT     H219467   2.245   9.046   2.531
 6409WAT      O19468   9.730   4.174   3.948
 6409WAT     H119469   9.644   4.196   3.994
 6409WAT     H219470   9.801   4.236   3.979
 6410WAT      O19471   6.844   0.360   9.569
 6410WAT     H119472   6.855   0.321   9.660
 6410WAT     H219473   6.932   0.395   9.536
 6411WAT      O19474   9.882   3.573   4.110
 6411WAT     H119475   9.805   3.526   4.154
 6411WAT     H219476   9.918   3.516   4.036
 6412WAT      O19477   7.183   2.808   7.634
 6412WAT     H119478   7.193   2.834   7.538
 6412WAT     H219479   7.145   2.716   7.639
 6413WAT      O19480   0.291   6.108   3.139
 6413WAT     H119481   0.224   6.138   3.207
 6413WAT     H219482   0.269   6.016   3.109
 6414WAT      O19483   2.368   6.778   5.827
 6414WAT     H119484   2.278   6.771   5.784
 6414WAT     H219485   2.357   6.803   5.923
 6415WAT      O19486   7.844   6.291   0.824
 6415WAT     H119487   7.882   6.276   0.915
 6415WAT     H219488   7.776   6.220   0.804
 6416WAT      O19489   0.792   4.833   0.642
 6416WAT     H119490   0.769   4.771   0.717
 6416WAT     H219491   0.886   4.865   0.653
 6417WAT      O19492   9.021   7.486   7.475
 6417WAT     H119493   9.045   7.465   7.381
 6417WAT     H219494   9.093   7.542   7.516
 6418WAT      O19495   2.568   5.826   7.040
 6418WAT     H119496   2.578   5.745   7.097
 6418WAT     H219497   2.634   5.896   7.068
 6419WAT      O19498   1.199   2.062   2.606
 6419WAT     H119499   1.296   2.078   2.586
 6419WAT     H219500   1.169   2.124   2.678
 6420WAT      O19501   1.911   2.659   5.458
 6420WAT     H119502   1.882   2.730   5.393
 6420WAT     H219503   1.994   2.615   5.425
 6421WAT      O19504   8.333   4.931   1.204
 6421WAT     H119505   8.278   4.883   1.273
 6421WAT     H219506   8.421   4.885   1.193
 6422WAT      O19507   7.598   0.153   8.713
 6422WAT     H119508   7.556   0.174   8.801
 6422WAT     H219509   7.695   0.133   8.727
 6423WAT      O19510   5.650   4.334   9.573
 6423WAT     H119511   5.733   4.299   9.617
 6423WAT     H219512   5.676   4.399   9.501
 6424WAT      O19513   3.079   1.654   8.728
 6424WAT     H119514   3.158   1.596   8.747
 6424WAT     H219515   3.082   1.735   8.787
 6425WAT      O19516   7.097   5.883   1.373
 6425WAT     H119517   7.197   5.880   1.378
 6425WAT     H219518   7.063   5.798   1.333
 6426WAT      O19519   7.363   9.332   1.786
 6426WAT     H119520   7.404   9.331   1.878
 6426WAT     H219521   7.432   9.363   1.720
 6427WAT      O19522   9.229   7.806   1.605
 6427WAT     H119523   9.204   7.836   1.697
 6427WAT     H219524   9.166   7.846   1.539
 6428WAT      O19525   7.054   9.356   5.974
 6428WAT     H119526   7.122   9.374   6.046
 6428WAT     H219527   6.974   9.413   5.990
 6429WAT      O19528   1.546   7.458   9.401
 6429WAT     H119529   1.446   7.465   9.398
 6429WAT     H219530   1.581   7.443   9.308
 6430WAT      O19531   7.481   6.593   7.496
 6430WAT     H119532   7.470   6.688   7.525
 6430WAT     H219533   7.393   6.559   7.461
 6431WAT      O19534   6.994   6.573   1.044
 6431WAT     H119535   7.074   6.554   0.986
 6431WAT     H219536   7.000   6.666   1.079
 6432WAT      O19537   6.305   9.157   3.173
 6432WAT     H119538   6.395   9.194   3.197
 6432WAT     H219539   6.249   9.151   3.256
 6433WAT      O19540   6.873   8.693   7.548
 6433WAT     H119541   6.938   8.653   7.484
 6433WAT     H219542   6.798   8.628   7.564
 6434WAT      O19543   8.362   5.476   0.280
 6434WAT     H119544   8.413   5.391   0.291
 6434WAT     H219545   8.422   5.546   0.242
 6435WAT      O19546   6.393   6.853   7.853
 6435WAT     H119547   6.465   6.903   7.806
 6435WAT     H219548   6.431   6.804   7.931
 6436WAT      O19549   5.224   9.039   2.071
 6436WAT     H119550   5.320   9.064   2.064
 6436WAT     H219551   5.216   8.941   2.093
 6437WAT      O19552   0.490   5.135   4.325
 6437WAT     H119553   0.397   5.103   4.307
 6437WAT     H219554   0.490   5.198   4.402
 6438WAT      O19555   4.117   8.017   8.840
 6438WAT     H119556   4.132   8.050   8.934
 6438WAT     H219557   4.161   8.079   8.776
 6439WAT      O19558   0.840   5.373   3.231
 6439WAT     H119559   0.893   5.446   3.189
 6439WAT     H219560   0.849   5.377   3.330
 6440WAT      O19561   5.512   8.850   1.787
 6440WAT     H119562   5.540   8.756   1.807
 6440WAT     H219563   5.514   8.904   1.872
 6441WAT      O19564   7.298   8.174   4.281
 6441WAT     H119565   7.279   8.260   4.232
 6441WAT     H219566   7.227   8.107   4.258
 6442WAT      O19567   2.599   2.705   4.601
 6442WAT     H119568   2.675   2.741   4.655
 6442WAT     H219569   2.513   2.735   4.642
 6443WAT      O19570   7.684   4.672   7.423
 6443WAT     H119571   7.667   4.620   7.339
 6443WAT     H219572   7.618   4.747   7.430
 6444WAT      O19573   9.149   1.229   5.564
 6444WAT     H119574   9.235   1.211   5.516
 6444WAT     H219575   9.151   1.185   5.653
 6445WAT      O19576   2.725   4.845   3.232
 6445WAT     H119577   2.733   4.753   3.194
 6445WAT     H219578   2.664   4.844   3.311
 6446WAT      O19579   0.123   6.793   0.528
 6446WAT     H119580   0.167   6.788   0.439
 6446WAT     H219581   0.030   6.827   0.518
 6447WAT      O19582   3.984   1.663   6.790
 6447WAT     H119583   3.976   1.688   6.693
 6447WAT     H219584   4.021   1.740   6.841
 6448WAT      O19585   1.126   5.558   3.514
 6448WAT     H119586   1.082   5.494   3.451
 6448WAT     H219587   1.060   5.629   3.541
 6449WAT      O19588   7.495   1.433   5.464
 6449WAT     H119589   7.486   1.420   5.365
 6449WAT     H219590   7.442   1.363   5.512
 6450WAT      O19591   6.466   5.793   5.609
 6450WAT     H119592   6.369   5.769   5.610
 6450WAT     H219593   6.482   5.873   5.667
 6451WAT      O19594   8.269   7.480   8.858
 6451WAT     H119595   8.227   7.509   8.944
 6451WAT     H219596   8.324   7.555   8.821
 6452WAT      O19597   1.396   0.471   2.435
 6452WAT     H119598   1.305   0.509   2.453
 6452WAT     H219599   1.387   0.388   2.379
 6453WAT      O19600   9.455   6.224   8.507
 6453WAT     H119601   9.465   6.126   8.522
 6453WAT     H219602   9.383   6.260   8.568
 6454WAT      O19603   1.894   7.754   7.424
 6454WAT     H119604   1.865   7.850   7.421
 6454WAT     H219605   1.832   7.698   7.369
 6455WAT      O19606   9.836   3.297   3.348
 6455WAT     H119607   9.853   3.252   3.260
 6455WAT     H219608   9.846   3.231   3.422
 6456WAT      O19609   0.553   7.590   2.617
 6456WAT     H119610   0.529   7.614   2.711
 6456WAT     H219611   0.580   7.494   2.614
 6457WAT      O19612   7.015   8.008   5.149
 6457WAT     H119613   6.956   8.085   5.122
 6457WAT     H219614   7.077   8.037   5.222
 6458WAT      O19615   9.799   5.094   5.493
 6458WAT     H119616   9.898   5.103   5.493
 6458WAT     H219617   9.774   5.004   5.529
 6459WAT      O19618   4.171   7.151   3.381
 6459WAT     H119619   4.149   7.249   3.375
 6459WAT     H219620   4.269   7.141   3.398
 6460WAT      O19621   2.542   3.259   8.808
 6460WAT     H119622   2.609   3.226   8.875
 6460WAT     H219623   2.518   3.185   8.746
 6461WAT      O19624   0.157   3.455   0.604
 6461WAT     H119625   0.139   3.545   0.565
 6461WAT     H219626   0.076   3.421   0.652
 6462WAT      O19627   5.492   8.553   4.293
 6462WAT     H119628   5.409   8.523   4.245
 6462WAT     H219629   5.499   8.503   4.379
 6463WAT      O19630   7.179   5.421   0.763
 6463WAT     H119631   7.167   5.382   0.854
 6463WAT     H219632   7.196   5.520   0.771
 6464WAT      O19633   1.658   6.873   6.809
 6464WAT     H119634   1.745   6.884   6.762
 6464WAT     H219635   1.603   6.956   6.797
 6465WAT      O19636   6.309   8.447   0.951
 6465WAT     H119637   6.346   8.411   0.865
 6465WAT     H219638   6.232   8.389   0.980
 6466WAT      O19639   5.189   9.500   4.324
 6466WAT     H119640   5.278   9.510   4.278
 6466WAT     H219641   5.156   9.407   4.310
 6467WAT      O19642   5.701   7.744   8.776
 6467WAT     H119643   5.688   7.652   8.811
 6467WAT     H219644   5.690   7.745   8.676
 6468WAT      O19645   3.528   8.517   2.261
 6468WAT     H119646   3.579   8.544   2.179
 6468WAT     H219647   3.589   8.467   2.323
 6469WAT      O19648   8.064   3.470   2.470
 6469WAT     H119649   8.136   3.524   2.427
 6469WAT     H219650   8.033   3.399   2.407
 6470WAT      O19651   6.106   6.068   2.431
 6470WAT     H119652   6.022   6.046   2.382
 6470WAT     H219653   6.096   6.157   2.476
 6471WAT      O19654   5.435   2.401   4.919
 6471WAT     H119655   5.503   2.343   4.875
 6471WAT     H219656   5.433   2.490   4.874
 6472WAT      O19657   4.044   8.300   1.141
 6472WAT     H119658   4.061   8.366   1.214
 6472WAT     H219659   3.987   8.226   1.175
 6473WAT      O19660   4.936   0.965   8.087
 6473WAT     H119661   4.882   1.041   8.051
 6473WAT     H219662   4.876   0.899   8.132
 6474WAT      O19663   2.103   2.473   4.114
 6474WAT     H119664   2.195   2.455   4.148
 6474WAT     H219665   2.102   2.562   4.068
 6475WAT      O19666   6.560   8.736   1.517
 6475WAT     H119667   6.565   8.636   1.511
 6475WAT     H219668   6.566   8.775   1.425
 6476WAT      O19669   6.398   4.067   6.840
 6476WAT     H119670   6.454   4.029   6.913
 6476WAT     H219671   6.444   4.054   6.752
 6477WAT      O19672   6.746   6.415   7.120
 6477WAT     H119673   6.835   6.421   7.164
 6477WAT     H219674   6.688   6.491   7.150
 6478WAT      O19675   1.186   6.053   3.582
 6478WAT     H119676   1.219   5.975   3.636
 6478WAT     H219677   1.207   6.038   3.485
 6479WAT      O19678   6.646   9.493   9.722
 6479WAT     H119679   6.662   9.460   9.815
 6479WAT     H219680   6.682   9.425   9.657
 6480WAT      O19681   8.655   2.567   0.954
 6480WAT     H119682   8.644   2.467   0.951
 6480WAT     H219683   8.699   2.597   0.869
 6481WAT      O19684   7.331   4.003   1.368
 6481WAT     H119685   7.402   4.073   1.367
 6481WAT     H219686   7.308   3.977   1.274
 6482WAT      O19687   1.953   6.515   0.190
 6482WAT     H119688   2.039   6.561   0.214
 6482WAT     H219689   1.963   6.416   0.204
 6483WAT      O19690   1.594   6.088   9.112
 6483WAT     H119691   1.530   6.027   9.159
 6483WAT     H219692   1.675   6.102   9.168
 6484WAT      O19693   4.320   5.731   4.041
 6484WAT     H119694   4.259   5.750   3.964
 6484WAT     H219695   4.273   5.671   4.106
 6485WAT      O19696   0.282   0.405   5.172
 6485WAT     H119697   0.214   0.354   5.226
 6485WAT     H219698   0.361   0.346   5.155
 6486WAT      O19699   8.372   9.126   9.266
 6486WAT     H119700   8.374   9.222   9.239
 6486WAT     H219701   8.361   9.119   9.365
 6487WAT      O19702   2.616   7.574   9.784
 6487WAT     H119703   2.588   7.516   9.861
 6487WAT     H219704   2.576   7.539   9.699
 6488WAT      O19705   8.198   9.612   3.596
 6488WAT     H119706   8.130   9.573   3.658
 6488WAT     H219707   8.274   9.650   3.649
 6489WAT      O19708   6.811   1.923   1.663
 6489WAT     H119709   6.857   1.854   1.606
 6489WAT     H219710   6.860   2.010   1.655
 6490WAT      O19711   0.750   7.085   0.097
 6490WAT     H119712   0.731   7.152   0.169
 6490WAT     H219713   0.679   7.015   0.096
 6491WAT      O19714   6.948   5.213   4.104
 6491WAT     H119715   7.038   5.191   4.141
 6491WAT     H219716   6.884   5.229   4.180
 6492WAT      O19717   2.471   1.939   0.655
 6492WAT     H119718   2.394   1.880   0.678
 6492WAT     H219719   2.551   1.913   0.710
 6493WAT      O19720   3.324   6.464   7.793
 6493WAT     H119721   3.358   6.405   7.720
 6493WAT     H219722   3.388   6.539   7.807
 6494WAT      O19723   5.486   3.013   8.257
 6494WAT     H119724   5.397   3.053   8.280
 6494WAT     H219725   5.482   2.914   8.267
 6495WAT      O19726   1.620   0.587   4.970
 6495WAT     H119727   1.657   0.496   4.950
 6495WAT     H219728   1.630   0.646   4.889
 6496WAT      O19729   0.065   7.070   0.941
 6496WAT     H119730   0.126   7.035   0.869
 6496WAT     H219731   0.025   7.156   0.912
 6497WAT      O19732   1.443   4.887   3.268
 6497WAT     H119733   1.497   4.894   3.352
 6497WAT     H219734   1.370   4.820   3.281
 6498WAT      O19735   3.250   8.763   3.510
 6498WAT     H119736   3.218   8.670   3.491
 6498WAT     H219737   3.272   8.809   3.425
 6499WAT      O19738   7.552   0.963   4.493
 6499WAT     H119739   7.492   1.042   4.508
 6499WAT     H219740   7.647   0.992   4.500
 6500WAT      O19741   5.590   7.195   1.671
 6500WAT     H119742   5.554   7.118   1.618
 6500WAT     H219743   5.689   7.202   1.657
 6501WAT      O19744   6.838   4.308   4.271
 6501WAT     H119745   6.871   4.352   4.354
 6501WAT     H219746   6.748   4.268   4.287
 6502WAT      O19747   8.267   9.070   9.528
 6502WAT     H119748   8.207   8.990   9.539
 6502WAT     H219749   8.300   9.099   9.617
 6503WAT      O19750   2.158   2.651   8.328
 6503WAT     H119751   2.120   2.642   8.420
 6503WAT     H219752   2.142   2.744   8.294
 6504WAT      O19753   0.326   6.737   1.720
 6504WAT     H119754   0.273   6.767   1.641
 6504WAT     H219755   0.281   6.766   1.804
 6505WAT      O19756   1.261   0.644   7.273
 6505WAT     H119757   1.247   0.613   7.179
 6505WAT     H219758   1.207   0.587   7.335
 6506WAT      O19759   1.568   4.682   4.526
 6506WAT     H119760   1.612   4.608   4.474
 6506WAT     H219761   1.548   4.758   4.464
 6507WAT      O19762   5.068   2.408   4.219
 6507WAT     H119763   5.109   2.499   4.217
 6507WAT     H219764   5.105   2.357   4.297
 6508WAT      O19765   5.822   2.715   1.837
 6508WAT     H119766   5.910   2.694   1.880
 6508WAT     H219767   5.822   2.681   1.743
 6509WAT      O19768   8.581   8.367   5.138
 6509WAT     H119769   8.639   8.329   5.066
 6509WAT     H219770   8.638   8.408   5.209
 6510WAT      O19771   8.511   4.751   7.206
 6510WAT     H119772   8.500   4.655   7.233
 6510WAT     H219773   8.605   4.780   7.225
 6511WAT      O19774   1.471   3.594   6.073
 6511WAT     H119775   1.496   3.691   6.077
 6511WAT     H219776   1.513   3.553   5.992
 6512WAT      O19777   4.163   8.140   2.696
 6512WAT     H119778   4.112   8.165   2.778
 6512WAT     H219779   4.202   8.223   2.655
 6513WAT      O19780   4.109   3.336   4.397
 6513WAT     H119781   4.041   3.347   4.325
 6513WAT     H219782   4.071   3.282   4.472
 6514WAT      O19783   7.979   2.305   4.657
 6514WAT     H119784   7.881   2.295   4.646
 6514WAT     H219785   7.999   2.395   4.697
 6515WAT      O19786   8.712   2.847   7.854
 6515WAT     H119787   8.690   2.770   7.794
 6515WAT     H219788   8.722   2.930   7.800
 6516WAT      O19789   9.272   5.263   3.541
 6516WAT     H119790   9.329   5.344   3.525
 6516WAT     H219791   9.268   5.208   3.457
 6517WAT      O19792   6.548   2.673   5.350
 6517WAT     H119793   6.597   2.708   5.430
 6517WAT     H219794   6.559   2.737   5.274
 6518WAT      O19795   5.433   2.364   5.497
 6518WAT     H119796   5.463   2.417   5.418
 6518WAT     H219797   5.352   2.312   5.474
 6519WAT      O19798   7.169   0.041   5.205
 6519WAT     H119799   7.213   0.106   5.267
 6519WAT     H219800   7.072   0.033   5.228
 6520WAT      O19801   3.761   3.091   3.809
 6520WAT     H119802   3.715   3.002   3.802
 6520WAT     H219803   3.860   3.078   3.814
 6521WAT      O19804   5.388   3.412   1.055
 6521WAT     H119805   5.480   3.384   1.084
 6521WAT     H219806   5.348   3.339   0.999
 6522WAT      O19807   0.081   9.526   6.335
 6522WAT     H119808   0.117   9.586   6.406
 6522WAT     H219809   0.117   9.555   6.246
 6523WAT      O19810   4.570   7.450   7.227
 6523WAT     H119811   4.564   7.377   7.296
 6523WAT     H219812   4.632   7.521   7.260
 6524WAT      O19813   7.099   4.357   0.952
 6524WAT     H119814   7.158   4.291   0.998
 6524WAT     H219815   7.022   4.380   1.012
 6525WAT      O19816   2.561   7.633   9.254
 6525WAT     H119817   2.640   7.584   9.290
 6525WAT     H219818   2.500   7.659   9.328
 6526WAT      O19819   5.296   4.755   2.308
 6526WAT     H119820   5.303   4.815   2.387
 6526WAT     H219821   5.218   4.693   2.320
 6527WAT      O19822   3.489   9.330   0.841
 6527WAT     H119823   3.451   9.239   0.858
 6527WAT     H219824   3.586   9.331   0.864
 6528WAT      O19825   8.445   0.053   3.029
 6528WAT     H119826   8.366  -0.008   3.021
 6528WAT     H219827   8.498   0.029   3.110
 6529WAT      O19828   0.237   2.011   0.623
 6529WAT     H119829   0.163   1.944   0.611
 6529WAT     H219830   0.301   1.977   0.692
 6530WAT      O19831   2.723   2.928   7.175
 6530WAT     H119832   2.734   2.939   7.274
 6530WAT     H219833   2.782   2.855   7.143
 6531WAT      O19834   8.573   8.729   8.126
 6531WAT     H119835   8.494   8.670   8.110
 6531WAT     H219836   8.656   8.682   8.096
 6532WAT      O19837   9.462   9.500   9.703
 6532WAT     H119838   9.412   9.448   9.634
 6532WAT     H219839   9.404   9.515   9.783
 6533WAT      O19840   1.234   2.469   6.629
 6533WAT     H119841   1.163   2.493   6.694
 6533WAT     H219842   1.321   2.508   6.658
 6534WAT      O19843   5.569   2.090   9.820
 6534WAT     H119844   5.563   2.012   9.756
 6534WAT     H219845   5.477   2.114   9.851
 6535WAT      O19846   6.166   0.468   8.645
 6535WAT     H119847   6.077   0.425   8.661
 6535WAT     H219848   6.153   0.554   8.596
 6536WAT      O19849   0.731   2.104   6.720
 6536WAT     H119850   0.794   2.151   6.781
 6536WAT     H219851   0.775   2.087   6.632
 6537WAT      O19852   0.875   7.024   3.039
 6537WAT     H119853   0.929   7.035   3.123
 6537WAT     H219854   0.778   7.015   3.063
 6538WAT      O19855   4.747   7.206   9.756
 6538WAT     H119856   4.666   7.176   9.706
 6538WAT     H219857   4.802   7.127   9.781
 6539WAT      O19858   1.921   1.993   1.382
 6539WAT     H119859   1.942   2.077   1.431
 6539WAT     H219860   2.005   1.943   1.363
 6540WAT      O19861   8.217   1.167   7.537
 6540WAT     H119862   8.281   1.222   7.482
 6540WAT     H219863   8.258   1.149   7.626
 6541WAT      O19864   8.228   8.105   8.876
 6541WAT     H119865   8.192   8.075   8.787
 6541WAT     H219866   8.323   8.074   8.885
 6542WAT      O19867   1.898   8.203   4.311
 6542WAT     H119868   1.929   8.108   4.304
 6542WAT     H219869   1.808   8.206   4.354
 6543WAT      O19870   9.886   1.035   8.081
 6543WAT     H119871   9.944   1.106   8.120
 6543WAT     H219872   9.794   1.043   8.119
 6544WAT      O19873   2.264   9.275   2.755
 6544WAT     H119874   2.172   9.236   2.763
 6544WAT     H219875   2.327   9.222   2.812
 6545WAT      O19876   3.125   0.267   3.984
 6545WAT     H119877   3.160   0.210   4.059
 6545WAT     H219878   3.060   0.214   3.930
 6546WAT      O19879   9.036   7.374   6.413
 6546WAT     H119880   9.041   7.435   6.493
 6546WAT     H219881   8.970   7.411   6.348
 6547WAT      O19882   6.092   3.822   9.203
 6547WAT     H119883   6.028   3.896   9.185
 6547WAT     H219884   6.059   3.738   9.160
 6548WAT      O19885   1.950   0.053   3.567
 6548WAT     H119886   1.988  -0.038   3.582
 6548WAT     H219887   2.011   0.105   3.507
 6549WAT      O19888   4.428   0.058   4.036
 6549WAT     H119889   4.377   0.140   4.059
 6549WAT     H219890   4.526   0.079   4.031
 6550WAT      O19891   1.270   1.558   4.378
 6550WAT     H119892   1.226   1.533   4.464
 6550WAT     H219893   1.368   1.542   4.385
 6551WAT      O19894   0.053   7.457   8.933
 6551WAT     H119895  -0.037   7.418   8.913
 6551WAT     H219896   0.109   7.455   8.850
 6552WAT      O19897   0.097   3.045   9.605
 6552WAT     H119898   0.142   2.977   9.547
 6552WAT     H219899   0.122   3.029   9.701
 6553WAT      O19900   6.917   0.376   3.710
 6553WAT     H119901   6.903   0.468   3.673
 6553WAT     H219902   6.828   0.338   3.738
 6554WAT      O19903   1.051   7.448   0.166
 6554WAT     H119904   1.133   7.392   0.175
 6554WAT     H219905   1.077   7.542   0.141
 6555WAT      O19906   6.277   6.841   9.227
 6555WAT     H119907   6.277   6.791   9.314
 6555WAT     H219908   6.187   6.882   9.213
 6556WAT      O19909   0.874   8.726   7.117
 6556WAT     H119910   0.941   8.775   7.061
 6556WAT     H219911   0.817   8.669   7.058
 6557WAT      O19912   2.992   6.178   8.870
 6557WAT     H119913   2.988   6.271   8.905
 6557WAT     H219914   3.004   6.180   8.771
 6558WAT      O19915   9.565   5.494   3.854
 6558WAT     H119916   9.537   5.590   3.855
 6558WAT     H219917   9.596   5.468   3.945
 6559WAT      O19918   6.199   1.959   3.084
 6559WAT     H119919   6.166   1.983   2.992
 6559WAT     H219920   6.260   1.880   3.078
 6560WAT      O19921   4.093   3.793   6.091
 6560WAT     H119922   4.012   3.849   6.081
 6560WAT     H219923   4.082   3.709   6.038
 6561WAT      O19924   8.356   8.228   7.990
 6561WAT     H119925   8.444   8.195   8.025
 6561WAT     H219926   8.356   8.224   7.890
 6562WAT      O19927   8.206   5.996   3.835
 6562WAT     H119928   8.231   6.040   3.749
 6562WAT     H219929   8.239   6.052   3.911
 6563WAT      O19930   0.221   4.807   9.057
 6563WAT     H119931   0.179   4.730   9.009
 6563WAT     H219932   0.193   4.805   9.153
 6564WAT      O19933   7.335   9.231   7.537
 6564WAT     H119934   7.363   9.142   7.574
 6564WAT     H219935   7.243   9.253   7.569
 6565WAT      O19936   3.488   3.622   8.798
 6565WAT     H119937   3.470   3.567   8.879
 6565WAT     H219938   3.582   3.655   8.799
 6566WAT      O19939   6.599   5.851   5.010
 6566WAT     H119940   6.592   5.838   5.108
 6566WAT     H219941   6.513   5.826   4.966
 6567WAT      O19942   0.557   2.693   8.570
 6567WAT     H119943   0.476   2.736   8.528
 6567WAT     H219944   0.604   2.638   8.501
 6568WAT      O19945   8.908   9.210   6.405
 6568WAT     H119946   8.940   9.304   6.418
 6568WAT     H219947   8.810   9.211   6.386
 6569WAT      O19948   0.001   4.998   9.286
 6569WAT     H119949   0.060   5.078   9.277
 6569WAT     H219950   0.027   4.947   9.368
 6570WAT      O19951   9.373   5.464   0.288
 6570WAT     H119952   9.429   5.436   0.366
 6570WAT     H219953   9.277   5.444   0.308
 6571WAT      O19954   9.879   5.575   1.527
 6571WAT     H119955   9.909   5.488   1.487
 6571WAT     H219956   9.940   5.648   1.495
 6572WAT      O19957   4.511   2.362   7.688
 6572WAT     H119958   4.534   2.314   7.773
 6572WAT     H219959   4.419   2.337   7.659
 6573WAT      O19960   5.826   3.541   1.059
 6573WAT     H119961   5.915   3.504   1.030
 6573WAT     H219962   5.841   3.624   1.113
 6574WAT      O19963   9.734   4.019   1.007
 6574WAT     H119964   9.713   4.117   1.013
 6574WAT     H219965   9.785   3.992   1.089
 6575WAT      O19966   2.643   5.748   8.380
 6575WAT     H119967   2.602   5.706   8.299
 6575WAT     H219968   2.585   5.823   8.412
 6576WAT      O19969   5.519   1.676   9.190
 6576WAT     H119970   5.571   1.638   9.114
 6576WAT     H219971   5.491   1.603   9.252
 6577WAT      O19972   1.014   0.310   2.522
 6577WAT     H119973   0.925   0.270   2.545
 6577WAT     H219974   1.082   0.238   2.515
 6578WAT      O19975   7.011   3.442   8.502
 6578WAT     H119976   7.105   3.443   8.536
 6578WAT     H219977   6.992   3.527   8.452
 6579WAT      O19978   2.658   4.971   8.694
 6579WAT     H119979   2.728   4.976   8.622
 6579WAT     H219980   2.578   5.025   8.667
 6580WAT      O19981   2.223   7.251   1.885
 6580WAT     H119982   2.274   7.181   1.835
 6580WAT     H219983   2.130   7.257   1.847
 6581WAT      O19984   0.129   5.999   5.448
 6581WAT     H119985   0.096   5.948   5.528
 6581WAT     H219986   0.071   5.976   5.369
 6582WAT      O19987   0.384   3.611   3.725
 6582WAT     H119988   0.385   3.708   3.702
 6582WAT     H219989   0.383   3.556   3.641
 6583WAT      O19990   9.372   6.117   4.915
 6583WAT     H119991   9.437   6.048   4.882
 6583WAT     H219992   9.421   6.204   4.929
 6584WAT      O19993   0.660   7.450   9.812
 6584WAT     H119994   0.572   7.488   9.783
 6584WAT     H219995   0.729   7.469   9.742
 6585WAT      O19996   0.434   1.959   5.486
 6585WAT     H119997   0.482   1.928   5.404
 6585WAT     H219998   0.387   2.045   5.468
 6586WAT      O19999   8.424   7.727   3.856
 6586WAT     H120000   8.456   7.815   3.820
 6586WAT     H220001   8.378   7.742   3.943
 6587WAT      O20002   1.639   2.483   6.389
 6587WAT     H120003   1.647   2.534   6.303
 6587WAT     H220004   1.546   2.445   6.396
 6588WAT      O20005   0.909   8.260   0.189
 6588WAT     H120006   0.901   8.187   0.121
 6588WAT     H220007   0.818   8.292   0.214
 6589WAT      O20008   3.971   3.866   9.001
 6589WAT     H120009   4.024   3.801   8.945
 6589WAT     H220010   4.012   3.873   9.092
 6590WAT      O20011   1.354   4.329   7.386
 6590WAT     H120012   1.344   4.245   7.439
 6590WAT     H220013   1.301   4.323   7.302
 6591WAT      O20014   4.742   0.728   4.085
 6591WAT     H120015   4.812   0.659   4.103
 6591WAT     H220016   4.780   0.819   4.100
 6592WAT      O20017   0.278   2.617   5.439
 6592WAT     H120018   0.190   2.658   5.460
 6592WAT     H220019   0.264   2.525   5.402
 6593WAT      O20020   3.830   9.213   3.049
 6593WAT     H120021   3.857   9.118   3.035
 6593WAT     H220022   3.765   9.218   3.124
 6594WAT      O20023   6.131   5.633   4.363
 6594WAT     H120024   6.112   5.704   4.431
 6594WAT     H220025   6.108   5.667   4.272
 6595WAT      O20026   6.752   0.676   0.467
 6595WAT     H120027   6.782   0.604   0.529
 6595WAT     H220028   6.821   0.689   0.396
 6596WAT      O20029   2.957   1.593   2.933
 6596WAT     H120030   2.924   1.504   2.902
 6596WAT     H220031   3.044   1.613   2.889
 6597WAT      O20032   8.386   4.028   5.155
 6597WAT     H120033   8.314   4.083   5.113
 6597WAT     H220034   8.349   3.982   5.236
 6598WAT      O20035   5.118   9.678   3.961
 6598WAT     H120036   5.185   9.741   4.000
 6598WAT     H220037   5.065   9.636   4.034
 6599WAT      O20038   2.023   8.762   1.008
 6599WAT     H120039   2.035   8.826   1.085
 6599WAT     H220040   1.961   8.689   1.036
 6600WAT      O20041   2.154   3.952   8.274
 6600WAT     H120042   2.107   3.869   8.305
 6600WAT     H220043   2.122   4.030   8.328
 6601WAT      O20044   2.533   1.640   4.834
 6601WAT     H120045   2.533   1.725   4.782
 6601WAT     H220046   2.623   1.625   4.874
 6602WAT      O20047   1.863   5.740   9.166
 6602WAT     H120048   1.774   5.706   9.196
 6602WAT     H220049   1.889   5.819   9.221
 6603WAT      O20050   5.476   2.957   0.610
 6603WAT     H120051   5.437   2.972   0.700
 6603WAT     H220052   5.463   2.861   0.584
 6604WAT      O20053   5.312   1.260   8.859
 6604WAT     H120054   5.318   1.357   8.879
 6604WAT     H220055   5.217   1.231   8.855
 6605WAT      O20056   3.084   3.104   4.204
 6605WAT     H120057   3.057   3.178   4.142
 6605WAT     H220058   3.146   3.140   4.273
 6606WAT      O20059   4.108   5.491   2.609
 6606WAT     H120060   4.104   5.401   2.565
 6606WAT     H220061   4.025   5.506   2.662
 6607WAT      O20062   4.804   6.942   3.189
 6607WAT     H120063   4.899   6.916   3.208
 6607WAT     H220064   4.742   6.873   3.228
 6608WAT      O20065   6.171   3.289   8.371
 6608WAT     H120066   6.126   3.378   8.383
 6608WAT     H220067   6.137   3.225   8.439
 6609WAT      O20068   8.014   3.046   1.274
 6609WAT     H120069   8.093   3.073   1.330
 6609WAT     H220070   7.938   3.108   1.294
 6610WAT      O20071   7.513   8.508   5.748
 6610WAT     H120072   7.592   8.465   5.791
 6610WAT     H220073   7.430   8.488   5.801
 6611WAT      O20074   8.172   2.891   2.167
 6611WAT     H120075   8.268   2.865   2.167
 6611WAT     H220076   8.164   2.990   2.154
 6612WAT      O20077   5.384   6.553   2.963
 6612WAT     H120078   5.389   6.509   3.053
 6612WAT     H220079   5.388   6.652   2.975
 6613WAT      O20080   4.349   7.014   7.061
 6613WAT     H120081   4.405   7.003   6.978
 6613WAT     H220082   4.327   6.924   7.098
 6614WAT      O20083   9.509   4.809   0.265
 6614WAT     H120084   9.465   4.817   0.176
 6614WAT     H220085   9.444   4.773   0.331
 6615WAT      O20086   5.211   7.243   1.743
 6615WAT     H120087   5.226   7.144   1.747
 6615WAT     H220088   5.173   7.267   1.654
 6616WAT      O20089   0.087   6.349   7.554
 6616WAT     H120090   0.060   6.339   7.650
 6616WAT     H220091   0.025   6.412   7.508
 6617WAT      O20092   7.745   7.804   7.087
 6617WAT     H120093   7.821   7.849   7.134
 6617WAT     H220094   7.722   7.719   7.135
 6618WAT      O20095   4.723   9.186   1.862
 6618WAT     H120096   4.800   9.159   1.920
 6618WAT     H220097   4.639   9.146   1.898
 6619WAT      O20098   9.377   7.972   7.108
 6619WAT     H120099   9.306   8.022   7.158
 6619WAT     H220100   9.351   7.967   7.011
 6620WAT      O20101   5.310   0.967   3.039
 6620WAT     H120102   5.307   0.914   2.954
 6620WAT     H220103   5.233   1.032   3.040
 6621WAT      O20104   7.141   4.385   3.426
 6621WAT     H120105   7.187   4.307   3.384
 6621WAT     H220106   7.208   4.442   3.472
 6622WAT      O20107   5.102   9.772   2.679
 6622WAT     H120108   5.007   9.799   2.694
 6622WAT     H220109   5.120   9.764   2.581
 6623WAT      O20110   2.484   4.109   8.444
 6623WAT     H120111   2.476   4.025   8.390
 6623WAT     H220112   2.516   4.087   8.536
 6624WAT      O20113   1.670   0.911   6.180
 6624WAT     H120114   1.577   0.881   6.201
 6624WAT     H220115   1.731   0.880   6.252
 6625WAT      O20116   6.434   7.405   4.158
 6625WAT     H120117   6.364   7.445   4.217
 6625WAT     H220118   6.426   7.444   4.066
 6626WAT      O20119   4.413   5.152   0.385
 6626WAT     H120120   4.379   5.246   0.385
 6626WAT     H220121   4.337   5.089   0.366
 6627WAT      O20122   3.452   8.055   5.796
 6627WAT     H120123   3.458   8.029   5.892
 6627WAT     H220124   3.544   8.072   5.760
 6628WAT      O20125   1.204   3.441   3.769
 6628WAT     H120126   1.239   3.532   3.788
 6628WAT     H220127   1.266   3.373   3.808
 6629WAT      O20128   4.273   3.403   2.806
 6629WAT     H120129   4.241   3.372   2.716
 6629WAT     H220130   4.219   3.482   2.835
 6630WAT      O20131   3.914   2.419   8.070
 6630WAT     H120132   3.929   2.473   8.152
 6630WAT     H220133   4.001   2.406   8.022
 6631WAT      O20134   4.130   1.290   6.579
 6631WAT     H120135   4.030   1.296   6.573
 6631WAT     H220136   4.170   1.322   6.493
 6632WAT      O20137   9.388   2.961   2.451
 6632WAT     H120138   9.429   3.031   2.509
 6632WAT     H220139   9.366   3.000   2.362
 6633WAT      O20140   6.554   3.468   5.791
 6633WAT     H120141   6.481   3.501   5.731
 6633WAT     H220142   6.515   3.422   5.870
 6634WAT      O20143   1.766   0.899   1.775
 6634WAT     H120144   1.773   0.980   1.832
 6634WAT     H220145   1.773   0.817   1.832
 6635WAT      O20146   4.455   8.583   8.990
 6635WAT     H120147   4.524   8.555   8.924
 6635WAT     H220148   4.390   8.508   9.004
 6636WAT      O20149   3.941   8.407   6.389
 6636WAT     H120150   3.852   8.438   6.357
 6636WAT     H220151   3.954   8.311   6.363
 6637WAT      O20152   1.210   0.547   7.012
 6637WAT     H120153   1.137   0.518   6.950
 6637WAT     H220154   1.296   0.553   6.961
 6638WAT      O20155   4.207   2.813   0.491
 6638WAT     H120156   4.115   2.845   0.509
 6638WAT     H220157   4.271   2.854   0.557
 6639WAT      O20158   5.591   2.870   4.224
 6639WAT     H120159   5.585   2.772   4.246
 6639WAT     H220160   5.546   2.922   4.296
 6640WAT      O20161   6.150   4.940   5.583
 6640WAT     H120162   6.123   5.033   5.560
 6640WAT     H220163   6.245   4.939   5.614
 6641WAT      O20164   2.003   3.223   0.807
 6641WAT     H120165   2.079   3.223   0.872
 6641WAT     H220166   1.919   3.250   0.855
 6642WAT      O20167   1.973   9.024   6.174
 6642WAT     H120168   1.911   8.979   6.110
 6642WAT     H220169   1.924   9.098   6.221
 6643WAT      O20170   0.047   3.434   9.128
 6643WAT     H120171   0.126   3.396   9.079
 6643WAT     H220172   0.053   3.409   9.224
 6644WAT      O20173   1.123   2.479   3.953
 6644WAT     H120174   1.038   2.499   3.904
 6644WAT     H220175   1.107   2.406   4.019
 6645WAT      O20176   3.385   3.419   7.265
 6645WAT     H120177   3.330   3.358   7.208
 6645WAT     H220178   3.451   3.468   7.208
 6646WAT      O20179   1.589   2.377   5.670
 6646WAT     H120180   1.660   2.410   5.607
 6646WAT     H220181   1.581   2.277   5.663
 6647WAT      O20182   6.530   6.452   5.915
 6647WAT     H120183   6.530   6.530   5.978
 6647WAT     H220184   6.436   6.424   5.897
 6648WAT      O20185   7.890   4.383   1.931
 6648WAT     H120186   7.826   4.323   1.883
 6648WAT     H220187   7.856   4.401   2.023
 6649WAT      O20188   3.817   4.308   1.308
 6649WAT     H120189   3.846   4.216   1.338
 6649WAT     H220190   3.819   4.370   1.387
 6650WAT      O20191   5.114   9.351   8.546
 6650WAT     H120192   5.093   9.318   8.638
 6650WAT     H220193   5.102   9.276   8.481
 6651WAT      O20194   3.459   7.363   2.006
 6651WAT     H120195   3.555   7.375   2.031
 6651WAT     H220196   3.402   7.424   2.062
 6652WAT      O20197   4.523   5.558   4.599
 6652WAT     H120198   4.435   5.514   4.584
 6652WAT     H220199   4.514   5.629   4.668
 6653WAT      O20200   5.718   5.520   2.379
 6653WAT     H120201   5.771   5.604   2.364
 6653WAT     H220202   5.647   5.538   2.447
 6654WAT      O20203   2.699   7.042   5.137
 6654WAT     H120204   2.717   7.009   5.230
 6654WAT     H220205   2.602   7.033   5.116
 6655WAT      O20206   6.606   1.511   6.147
 6655WAT     H120207   6.550   1.504   6.230
 6655WAT     H220208   6.685   1.450   6.155
 6656WAT      O20209   0.188   9.249   0.686
 6656WAT     H120210   0.260   9.265   0.753
 6656WAT     H220211   0.174   9.151   0.674
 6657WAT      O20212   1.009   5.918   3.350
 6657WAT     H120213   0.939   5.858   3.312
 6657WAT     H220214   1.023   5.898   3.447
 6658WAT      O20215   1.429   8.257   2.868
 6658WAT     H120216   1.506   8.225   2.923
 6658WAT     H220217   1.447   8.350   2.835
 6659WAT      O20218   7.225   2.895   4.624
 6659WAT     H120219   7.269   2.817   4.579
 6659WAT     H220220   7.127   2.894   4.605
 6660WAT      O20221   2.573   1.443   2.984
 6660WAT     H120222   2.638   1.473   2.915
 6660WAT     H220223   2.606   1.471   3.075
 6661WAT      O20224   3.227   4.174   7.785
 6661WAT     H120225   3.279   4.237   7.842
 6661WAT     H220226   3.136   4.160   7.824
 6662WAT      O20227   1.500   8.274   1.640
 6662WAT     H120228   1.473   8.325   1.722
 6662WAT     H220229   1.428   8.211   1.614
 6663WAT      O20230   4.028   2.402   3.641
 6663WAT     H120231   4.003   2.481   3.586
 6663WAT     H220232   4.057   2.327   3.582
 6664WAT      O20233   0.295   5.840   8.319
 6664WAT     H120234   0.285   5.933   8.284
 6664WAT     H220235   0.238   5.778   8.265
 6665WAT      O20236   7.609   0.425   6.245
 6665WAT     H120237   7.683   0.386   6.299
 6665WAT     H220238   7.532   0.449   6.306
 6666WAT      O20239   5.539   0.736   2.854
 6666WAT     H120240   5.448   0.756   2.818
 6666WAT     H220241   5.595   0.693   2.783
 6667WAT      O20242   4.853   0.578   0.662
 6667WAT     H120243   4.899   0.541   0.743
 6667WAT     H220244   4.762   0.538   0.655
 6668WAT      O20245   4.529   4.642   3.504
 6668WAT     H120246   4.429   4.644   3.501
 6668WAT     H220247   4.561   4.697   3.580
 6669WAT      O20248   0.612   7.346   8.543
 6669WAT     H120249   0.583   7.259   8.582
 6669WAT     H220250   0.692   7.380   8.593
 6670WAT      O20251   3.493   8.119   1.841
 6670WAT     H120252   3.428   8.119   1.917
 6670WAT     H220253   3.554   8.040   1.849
 6671WAT      O20254   9.322   6.357   3.478
 6671WAT     H120255   9.247   6.408   3.436
 6671WAT     H220256   9.293   6.262   3.494
 6672WAT      O20257   8.432   1.160   2.344
 6672WAT     H120258   8.528   1.151   2.316
 6672WAT     H220259   8.374   1.163   2.262
 6673WAT      O20260   6.293   2.040   4.738
 6673WAT     H120261   6.307   1.942   4.754
 6673WAT     H220262   6.195   2.060   4.736
 6674WAT      O20263   8.650   6.122   2.934
 6674WAT     H120264   8.631   6.073   3.019
 6674WAT     H220265   8.700   6.061   2.872
 6675WAT      O20266   5.057   3.665   5.706
 6675WAT     H120267   4.983   3.638   5.644
 6675WAT     H220268   5.059   3.765   5.715
 6676WAT      O20269   2.273   1.573   0.601
 6676WAT     H120270   2.249   1.640   0.671
 6676WAT     H220271   2.190   1.527   0.569
 6677WAT      O20272   7.580   8.929   0.113
 6677WAT     H120273   7.501   8.877   0.079
 6677WAT     H220274   7.549   9.006   0.168
 6678WAT      O20275   9.300   4.338   9.291
 6678WAT     H120276   9.249   4.378   9.215
 6678WAT     H220277   9.284   4.240   9.295
 6679WAT      O20278   1.115   9.267   3.785
 6679WAT     H120279   1.207   9.241   3.755
 6679WAT     H220280   1.106   9.247   3.883
 6680WAT      O20281   7.151   3.486   6.497
 6680WAT     H120282   7.116   3.577   6.519
 6680WAT     H220283   7.200   3.489   6.409
 6681WAT      O20284   7.917   5.568   5.256
 6681WAT     H120285   8.006   5.569   5.301
 6681WAT     H220286   7.846   5.596   5.321
 6682WAT      O20287   0.263   8.620   6.675
 6682WAT     H120288   0.318   8.703   6.683
 6682WAT     H220289   0.323   8.540   6.673
 6683WAT      O20290   9.714   2.269   6.963
 6683WAT     H120291   9.651   2.281   7.039
 6683WAT     H220292   9.808   2.281   6.995
 6684WAT      O20293   2.108   2.698   3.889
 6684WAT     H120294   2.150   2.713   3.799
 6684WAT     H220295   2.052   2.615   3.886
 6685WAT      O20296   0.045   1.274   0.949
 6685WAT     H120297   0.111   1.342   0.980
 6685WAT     H220298  -0.037   1.279   1.006
 6686WAT      O20299   5.975   3.355   8.669
 6686WAT     H120300   5.966   3.346   8.768
 6686WAT     H220301   5.894   3.402   8.632
 6687WAT      O20302   5.519   0.105   9.759
 6687WAT     H120303   5.500   0.198   9.792
 6687WAT     H220304   5.576   0.110   9.677
 6688WAT      O20305   4.058   0.772   6.026
 6688WAT     H120306   4.133   0.805   5.969
 6688WAT     H220307   4.094   0.709   6.095
 6689WAT      O20308   6.397   7.657   1.216
 6689WAT     H120309   6.440   7.604   1.289
 6689WAT     H220310   6.435   7.750   1.216
 6690WAT      O20311   6.391   4.093   4.875
 6690WAT     H120312   6.313   4.043   4.837
 6690WAT     H220313   6.446   4.032   4.931
 6691WAT      O20314   4.946   8.402   4.250
 6691WAT     H120315   4.976   8.331   4.187
 6691WAT     H220316   5.023   8.433   4.305
 6692WAT      O20317   6.248   8.618   9.015
 6692WAT     H120318   6.183   8.603   9.089
 6692WAT     H220319   6.249   8.714   8.989
 6693WAT      O20320   5.376   2.109   0.546
 6693WAT     H120321   5.304   2.121   0.477
 6693WAT     H220322   5.395   2.197   0.589
 6694WAT      O20323   3.406   8.344   7.732
 6694WAT     H120324   3.423   8.272   7.664
 6694WAT     H220325   3.313   8.335   7.767
 6695WAT      O20326   2.447   2.419   6.718
 6695WAT     H120327   2.414   2.441   6.810
 6695WAT     H220328   2.387   2.463   6.651
 6696WAT      O20329   7.371   7.481   1.131
 6696WAT     H120330   7.298   7.413   1.126
 6696WAT     H220331   7.337   7.563   1.177
 6697WAT      O20332   2.640   8.376   5.377
 6697WAT     H120333   2.625   8.412   5.285
 6697WAT     H220334   2.650   8.277   5.373
 6698WAT      O20335   4.324   4.087   8.686
 6698WAT     H120336   4.284   4.053   8.601
 6698WAT     H220337   4.402   4.146   8.664
 6699WAT      O20338   8.731   0.978   9.461
 6699WAT     H120339   8.761   0.994   9.367
 6699WAT     H220340   8.715   0.881   9.475
 6700WAT      O20341   3.167   8.848   3.790
 6700WAT     H120342   3.232   8.774   3.806
 6700WAT     H220343   3.142   8.890   3.877
 6701WAT      O20344   5.074   2.722   8.818
 6701WAT     H120345   5.004   2.781   8.857
 6701WAT     H220346   5.093   2.751   8.724
 6702WAT      O20347   8.898   1.797   6.890
 6702WAT     H120348   8.813   1.750   6.916
 6702WAT     H220349   8.884   1.896   6.891
 6703WAT      O20350   0.328   9.284   3.663
 6703WAT     H120351   0.358   9.197   3.703
 6703WAT     H220352   0.232   9.299   3.686
 6704WAT      O20353   0.010   1.233   9.719
 6704WAT     H120354   0.037   1.207   9.626
 6704WAT     H220355   0.080   1.293   9.758
 6705WAT      O20356   8.023   7.774   3.936
 6705WAT     H120357   8.069   7.838   3.998
 6705WAT     H220358   8.003   7.820   3.850
 6706WAT      O20359   2.053   9.195   0.955
 6706WAT     H120360   2.061   9.252   1.037
 6706WAT     H220361   2.136   9.140   0.945
 6707WAT      O20362   5.194   8.888   0.767
 6707WAT     H120363   5.143   8.808   0.799
 6707WAT     H220364   5.287   8.884   0.802
 6708WAT      O20365   3.680   8.474   8.264
 6708WAT     H120366   3.648   8.416   8.339
 6708WAT     H220367   3.669   8.425   8.177
 6709WAT      O20368   5.160   2.942   6.772
 6709WAT     H120369   5.082   2.880   6.761
 6709WAT     H220370   5.136   3.014   6.837
 6710WAT      O20371   3.675   5.601   9.558
 6710WAT     H120372   3.713   5.536   9.492
 6710WAT     H220373   3.610   5.662   9.513
 6711WAT      O20374   2.396   6.247   8.074
 6711WAT     H120375   2.441   6.323   8.120
 6711WAT     H220376   2.298   6.249   8.094
 6712WAT      O20377   0.846   7.423   6.574
 6712WAT     H120378   0.941   7.429   6.605
 6712WAT     H220379   0.786   7.410   6.653
 6713WAT      O20380   3.744   6.165   2.153
 6713WAT     H120381   3.795   6.245   2.185
 6713WAT     H220382   3.746   6.163   2.053
 6714WAT      O20383   6.803   6.138   6.412
 6714WAT     H120384   6.802   6.197   6.493
 6714WAT     H220385   6.865   6.177   6.344
 6715WAT      O20386   9.804   3.997   7.254
 6715WAT     H120387   9.741   3.948   7.315
 6715WAT     H220388   9.754   4.029   7.173
 6716WAT      O20389   0.213   6.247   3.503
 6716WAT     H120390   0.211   6.161   3.554
 6716WAT     H220391   0.122   6.265   3.465
 6717WAT      O20392   5.817   5.770   0.879
 6717WAT     H120393   5.747   5.759   0.808
 6717WAT     H220394   5.818   5.866   0.909
 6718WAT      O20395   8.336   1.457   8.942
 6718WAT     H120396   8.418   1.438   8.997
 6718WAT     H220397   8.279   1.523   8.989
 6719WAT      O20398   8.280   1.125   2.094
 6719WAT     H120399   8.269   1.131   1.995
 6719WAT     H220400   8.192   1.103   2.136
 6720WAT      O20401   0.191   1.491   4.522
 6720WAT     H120402   0.158   1.569   4.470
 6720WAT     H220403   0.288   1.505   4.546
 6721WAT      O20404   9.403   8.212   8.611
 6721WAT     H120405   9.405   8.297   8.558
 6721WAT     H220406   9.390   8.233   8.708
 6722WAT      O20407   1.089   0.002   0.032
 6722WAT     H120408   1.127   0.091   0.009
 6722WAT     H220409   1.161  -0.056   0.070
 6723WAT      O20410   1.741   7.816   1.300
 6723WAT     H120411   1.797   7.858   1.371
 6723WAT     H220412   1.663   7.875   1.279
 6724WAT      O20413   7.785   2.393   2.771
 6724WAT     H120414   7.884   2.378   2.769
 6724WAT     H220415   7.750   2.373   2.862
 6725WAT      O20416   6.188   2.373   2.682
 6725WAT     H120417   6.104   2.325   2.707
 6725WAT     H220418   6.266   2.330   2.729
 6726WAT      O20419   6.107   0.639   6.412
 6726WAT     H120420   6.128   0.644   6.314
 6726WAT     H220421   6.182   0.592   6.459
 6727WAT      O20422   4.580   1.624   0.555
 6727WAT     H120423   4.573   1.571   0.470
 6727WAT     H220424   4.675   1.650   0.570
 6728WAT      O20425   1.613   5.949   5.026
 6728WAT     H120426   1.527   5.913   5.062
 6728WAT     H220427   1.681   5.876   5.025
 6729WAT      O20428   9.551   0.833   0.379
 6729WAT     H120429   9.488   0.831   0.301
 6729WAT     H220430   9.616   0.908   0.368
 6730WAT      O20431   3.802   4.496   1.116
 6730WAT     H120432   3.813   4.426   1.186
 6730WAT     H220433   3.728   4.558   1.143
 6731WAT      O20434   5.470   4.823   5.937
 6731WAT     H120435   5.430   4.733   5.954
 6731WAT     H220436   5.514   4.856   6.020
 6732WAT      O20437   4.501   8.889   5.110
 6732WAT     H120438   4.565   8.965   5.125
 6732WAT     H220439   4.414   8.910   5.156
 6733WAT      O20440   9.012   3.519   5.070
 6733WAT     H120441   9.024   3.451   5.143
 6733WAT     H220442   9.101   3.550   5.038
 6734WAT      O20443   7.487   7.079   6.737
 6734WAT     H120444   7.456   7.033   6.820
 6734WAT     H220445   7.537   7.013   6.680
 6735WAT      O20446   5.150   2.285   7.242
 6735WAT     H120447   5.244   2.317   7.255
 6735WAT     H220448   5.142   2.238   7.154
 6736WAT      O20449   8.092   4.782   8.093
 6736WAT     H120450   8.023   4.851   8.112
 6736WAT     H220451   8.132   4.750   8.179
 6737WAT      O20452   3.949   2.992   0.042
 6737WAT     H120453   3.978   2.901   0.069
 6737WAT     H220454   3.850   2.991   0.025
 6738WAT      O20455   5.740   0.790   4.795
 6738WAT     H120456   5.733   0.821   4.889
 6738WAT     H220457   5.726   0.691   4.791
 6739WAT      O20458   2.556   5.407   6.599
 6739WAT     H120459   2.539   5.333   6.534
 6739WAT     H220460   2.641   5.453   6.576
 6740WAT      O20461   7.830   7.110   6.989
 6740WAT     H120462   7.860   7.163   6.910
 6740WAT     H220463   7.803   7.018   6.959
 6741WAT      O20464   7.249   7.720   8.153
 6741WAT     H120465   7.269   7.816   8.132
 6741WAT     H220466   7.335   7.669   8.160
 6742WAT      O20467   8.657   5.647   1.210
 6742WAT     H120468   8.672   5.719   1.143
 6742WAT     H220469   8.727   5.654   1.282
 6743WAT      O20470   2.785   2.791   6.428
 6743WAT     H120471   2.768   2.745   6.515
 6743WAT     H220472   2.883   2.791   6.409
 6744WAT      O20473   4.472   1.097   4.298
 6744WAT     H120474   4.471   1.178   4.358
 6744WAT     H220475   4.406   1.110   4.224
 6745WAT      O20476   5.966   4.363   7.049
 6745WAT     H120477   6.048   4.408   7.015
 6745WAT     H220478   5.936   4.293   6.984
 6746WAT      O20479   5.003   0.196   3.803
 6746WAT     H120480   4.927   0.259   3.786
 6746WAT     H220481   4.967   0.109   3.835
 6747WAT      O20482   9.860   9.649   5.908
 6747WAT     H120483   9.895   9.729   5.957
 6747WAT     H220484   9.762   9.642   5.921
 6748WAT      O20485   6.953   2.094   7.094
 6748WAT     H120486   6.864   2.136   7.105
 6748WAT     H220487   6.946   1.995   7.110
 6749WAT      O20488   3.360   5.315   5.430
 6749WAT     H120489   3.310   5.269   5.503
 6749WAT     H220490   3.318   5.295   5.342
 6750WAT      O20491   0.985   6.400   7.353
 6750WAT     H120492   1.033   6.463   7.414
 6750WAT     H220493   1.050   6.340   7.308
 6751WAT      O20494   9.487   3.138   7.219
 6751WAT     H120495   9.399   3.184   7.206
 6751WAT     H220496   9.511   3.140   7.316
 6752WAT      O20497   4.581   7.893   0.746
 6752WAT     H120498   4.502   7.902   0.685
 6752WAT     H220499   4.550   7.859   0.835
 6753WAT      O20500   3.077   8.131   2.752
 6753WAT     H120501   3.011   8.133   2.827
 6753WAT     H220502   3.031   8.159   2.667
 6754WAT      O20503   1.050   8.141   2.556
 6754WAT     H120504   1.072   8.048   2.584
 6754WAT     H220505   1.077   8.205   2.628
 6755WAT      O20506   3.473   0.604   0.800
 6755WAT     H120507   3.533   0.590   0.721
 6755WAT     H220508   3.413   0.682   0.781
 6756WAT      O20509   2.714   2.284   8.510
 6756WAT     H120510   2.652   2.332   8.449
 6756WAT     H220511   2.717   2.187   8.485
 6757WAT      O20512   0.169   9.363   3.013
 6757WAT     H120513   0.254   9.410   3.040
 6757WAT     H220514   0.185   9.264   3.013
 6758WAT      O20515   6.561   5.890   5.305
 6758WAT     H120516   6.490   5.820   5.311
 6758WAT     H220517   6.634   5.870   5.370
 6759WAT      O20518   3.421   6.300   0.371
 6759WAT     H120519   3.482   6.261   0.440
 6759WAT     H220520   3.330   6.312   0.410
 6760WAT      O20521   7.360   6.885   4.266
 6760WAT     H120522   7.299   6.961   4.286
 6760WAT     H220523   7.377   6.882   4.167
 6761WAT      O20524   8.785   4.701   6.340
 6761WAT     H120525   8.713   4.634   6.326
 6761WAT     H220526   8.815   4.699   6.436
 6762WAT      O20527   1.973   0.631   0.555
 6762WAT     H120528   1.960   0.644   0.457
 6762WAT     H220529   1.885   0.626   0.601
 6763WAT      O20530   4.008   3.433   1.668
 6763WAT     H120531   3.941   3.469   1.602
 6763WAT     H220532   4.046   3.509   1.722
 6764WAT      O20533   9.237   9.039   5.775
 6764WAT     H120534   9.285   9.104   5.716
 6764WAT     H220535   9.200   8.965   5.719
 6765WAT      O20536   1.387   4.723   8.725
 6765WAT     H120537   1.313   4.683   8.779
 6765WAT     H220538   1.473   4.716   8.775
 6766WAT      O20539   0.228   2.894   3.656
 6766WAT     H120540   0.168   2.813   3.662
 6766WAT     H220541   0.272   2.908   3.745
 6767WAT      O20542   4.866   2.909   8.920
 6767WAT     H120543   4.789   2.847   8.934
 6767WAT     H220544   4.835   2.989   8.868
 6768WAT      O20545   0.253   2.584   1.007
 6768WAT     H120546   0.246   2.633   0.920
 6768WAT     H220547   0.196   2.502   1.003
 6769WAT      O20548   6.853   6.004   5.269
 6769WAT     H120549   6.818   5.987   5.361
 6769WAT     H220550   6.794   6.071   5.222
 6770WAT      O20551   9.384   0.082   1.322
 6770WAT     H120552   9.341   0.017   1.385
 6770WAT     H220553   9.335   0.081   1.234
 6771WAT      O20554   2.738   3.420   4.269
 6771WAT     H120555   2.653   3.435   4.219
 6771WAT     H220556   2.781   3.336   4.237
 6772WAT      O20557   8.315   6.840   0.550
 6772WAT     H120558   8.248   6.907   0.519
 6772WAT     H220559   8.301   6.822   0.648
 6773WAT      O20560   1.411   7.577   7.481
 6773WAT     H120561   1.439   7.601   7.388
 6773WAT     H220562   1.315   7.602   7.494
 6774WAT      O20563   1.225   3.435   6.069
 6774WAT     H120564   1.275   3.350   6.052
 6774WAT     H220565   1.290   3.511   6.074
 6775WAT      O20566   4.942   6.976   5.997
 6775WAT     H120567   5.025   7.009   5.953
 6775WAT     H220568   4.864   7.031   5.967
 6776WAT      O20569   8.075   7.438   4.479
 6776WAT     H120570   8.091   7.521   4.533
 6776WAT     H220571   8.136   7.365   4.510
 6777WAT      O20572   4.283   1.180   3.108
 6777WAT     H120573   4.326   1.142   3.190
 6777WAT     H220574   4.348   1.179   3.032
 6778WAT      O20575   7.233   7.836   6.244
 6778WAT     H120576   7.240   7.760   6.308
 6778WAT     H220577   7.194   7.803   6.158
 6779WAT      O20578   2.788   3.541   2.342
 6779WAT     H120579   2.745   3.571   2.427
 6779WAT     H220580   2.787   3.616   2.276
 6780WAT      O20581   3.355   8.015   8.840
 6780WAT     H120582   3.440   7.966   8.857
 6780WAT     H220583   3.372   8.092   8.779
 6781WAT      O20584   3.754   7.454   0.698
 6781WAT     H120585   3.679   7.462   0.633
 6781WAT     H220586   3.824   7.392   0.660
 6782WAT      O20587   4.779   1.050   7.220
 6782WAT     H120588   4.868   1.014   7.247
 6782WAT     H220589   4.720   1.055   7.300
 6783WAT      O20590   7.556   3.049   9.501
 6783WAT     H120591   7.612   3.058   9.419
 6783WAT     H220592   7.490   3.124   9.506
 6784WAT      O20593   6.336   3.733   9.025
 6784WAT     H120594   6.393   3.807   8.990
 6784WAT     H220595   6.249   3.771   9.058
 6785WAT      O20596   3.268   3.607   4.761
 6785WAT     H120597   3.210   3.605   4.679
 6785WAT     H220598   3.341   3.539   4.752
 6786WAT      O20599   6.423   7.022   3.197
 6786WAT     H120600   6.377   7.099   3.153
 6786WAT     H220601   6.464   6.963   3.126
 6787WAT      O20602   5.059   7.130   0.757
 6787WAT     H120603   5.036   7.094   0.667
 6787WAT     H220604   4.993   7.201   0.782
 6788WAT      O20605   3.048   6.893   4.397
 6788WAT     H120606   3.011   6.811   4.440
 6788WAT     H220607   3.117   6.867   4.329
 6789WAT      O20608   1.627   5.549   2.106
 6789WAT     H120609   1.680   5.633   2.116
 6789WAT     H220610   1.685   5.470   2.128
 6790WAT      O20611   3.286   1.481   5.996
 6790WAT     H120612   3.247   1.389   6.008
 6790WAT     H220613   3.312   1.494   5.901
 6791WAT      O20614   1.998   3.343   4.322
 6791WAT     H120615   1.988   3.254   4.278
 6791WAT     H220616   1.913   3.365   4.371
 6792WAT      O20617   4.634   5.317   0.680
 6792WAT     H120618   4.649   5.370   0.597
 6792WAT     H220619   4.554   5.353   0.729
 6793WAT      O20620   3.251   7.859   3.578
 6793WAT     H120621   3.301   7.778   3.546
 6793WAT     H220622   3.265   7.870   3.676
 6794WAT      O20623   8.714   2.966   3.329
 6794WAT     H120624   8.661   2.987   3.411
 6794WAT     H220625   8.674   2.887   3.283
 6795WAT      O20626   1.686   5.201   1.501
 6795WAT     H120627   1.770   5.221   1.450
 6795WAT     H220628   1.654   5.285   1.546
 6796WAT      O20629   9.685   2.153   9.714
 6796WAT     H120630   9.608   2.100   9.748
 6796WAT     H220631   9.652   2.227   9.655
 6797WAT      O20632   4.515   1.741   9.516
 6797WAT     H120633   4.588   1.804   9.541
 6797WAT     H220634   4.552   1.669   9.457
 6798WAT      O20635   9.083   7.013   5.516
 6798WAT     H120636   9.063   7.075   5.441
 6798WAT     H220637   9.174   7.031   5.552
 6799WAT      O20638   5.248   9.493   7.004
 6799WAT     H120639   5.239   9.410   7.059
 6799WAT     H220640   5.304   9.559   7.052
 6800WAT      O20641   8.455   2.002   7.112
 6800WAT     H120642   8.424   2.078   7.168
 6800WAT     H220643   8.422   1.915   7.150
 6801WAT      O20644   5.650   7.703   5.596
 6801WAT     H120645   5.604   7.619   5.568
 6801WAT     H220646   5.737   7.680   5.640
 6802WAT      O20647   9.333   8.023   7.386
 6802WAT     H120648   9.421   7.995   7.348
 6802WAT     H220649   9.348   8.094   7.455
 6803WAT      O20650   1.471   8.014   3.323
 6803WAT     H120651   1.515   8.093   3.364
 6803WAT     H220652   1.423   8.041   3.240
 6804WAT      O20653   5.860   8.737   6.798
 6804WAT     H120654   5.789   8.778   6.741
 6804WAT     H220655   5.820   8.666   6.856
 6805WAT      O20656   2.040   7.633   8.283
 6805WAT     H120657   2.061   7.699   8.211
 6805WAT     H220658   2.035   7.681   8.371
 6806WAT      O20659   9.433   9.049   3.737
 6806WAT     H120660   9.498   8.989   3.689
 6806WAT     H220661   9.449   9.144   3.711
 6807WAT      O20662   3.885   0.207   2.837
 6807WAT     H120663   3.876   0.258   2.752
 6807WAT     H220664   3.809   0.230   2.898
 6808WAT      O20665   0.848   0.737   7.854
 6808WAT     H120666   0.808   0.775   7.771
 6808WAT     H220667   0.914   0.667   7.830
 6809WAT      O20668   7.045   1.662   8.592
 6809WAT     H120669   7.043   1.641   8.494
 6809WAT     H220670   7.070   1.758   8.604
 6810WAT      O20671   2.474   8.765   9.557
 6810WAT     H120672   2.438   8.696   9.494
 6810WAT     H220673   2.398   8.809   9.604
 6811WAT      O20674   6.008   6.630   8.818
 6811WAT     H120675   5.976   6.708   8.872
 6811WAT     H220676   6.038   6.662   8.729
 6812WAT      O20677   5.188   9.239   9.202
 6812WAT     H120678   5.229   9.252   9.292
 6812WAT     H220679   5.089   9.246   9.208
 6813WAT      O20680   8.561   1.528   4.714
 6813WAT     H120681   8.599   1.610   4.757
 6813WAT     H220682   8.602   1.447   4.755
 6814WAT      O20683   4.710   4.653   1.828
 6814WAT     H120684   4.621   4.647   1.873
 6814WAT     H220685   4.782   4.630   1.893
 6815WAT      O20686   7.611   5.323   5.013
 6815WAT     H120687   7.634   5.324   4.915
 6815WAT     H220688   7.616   5.415   5.050
 6816WAT      O20689   2.152   6.448   9.632
 6816WAT     H120690   2.147   6.533   9.580
 6816WAT     H220691   2.112   6.374   9.579
 6817WAT      O20692   2.862   8.307   2.093
 6817WAT     H120693   2.938   8.269   2.041
 6817WAT     H220694   2.881   8.403   2.114
 6818WAT      O20695   8.526   6.331   1.072
 6818WAT     H120696   8.484   6.337   0.981
 6818WAT     H220697   8.573   6.416   1.093
 6819WAT      O20698   9.686   1.462   7.196
 6819WAT     H120699   9.620   1.441   7.269
 6819WAT     H220700   9.776   1.479   7.237
 6820WAT      O20701   2.230   5.854   3.651
 6820WAT     H120702   2.231   5.788   3.575
 6820WAT     H220703   2.249   5.807   3.737
 6821WAT      O20704   8.588   8.090   1.346
 6821WAT     H120705   8.532   8.050   1.274
 6821WAT     H220706   8.670   8.132   1.306
 6822WAT      O20707   6.490   2.425   5.375
 6822WAT     H120708   6.521   2.517   5.352
 6822WAT     H220709   6.419   2.397   5.311
 6823WAT      O20710   3.402   5.427   1.656
 6823WAT     H120711   3.316   5.468   1.687
 6823WAT     H220712   3.403   5.330   1.678
 6824WAT      O20713   7.709   3.932   1.107
 6824WAT     H120714   7.782   3.864   1.118
 6824WAT     H220715   7.626   3.886   1.074
 6825WAT      O20716   4.623   0.237   8.422
 6825WAT     H120717   4.552   0.284   8.370
 6825WAT     H220718   4.627   0.274   8.514
 6826WAT      O20719   4.307   8.426   6.874
 6826WAT     H120720   4.228   8.470   6.916
 6826WAT     H220721   4.307   8.445   6.776
 6827WAT      O20722   0.171   1.203   3.815
 6827WAT     H120723   0.202   1.233   3.725
 6827WAT     H220724   0.213   1.115   3.837
 6828WAT      O20725   3.225   7.880   7.158
 6828WAT     H120726   3.307   7.932   7.184
 6828WAT     H220727   3.243   7.829   7.074
 6829WAT      O20728   0.244   0.817   1.609
 6829WAT     H120729   0.330   0.769   1.592
 6829WAT     H220730   0.251   0.870   1.693
 6830WAT      O20731   0.183   2.522   4.342
 6830WAT     H120732   0.241   2.603   4.349
 6830WAT     H220733   0.184   2.472   4.428
 6831WAT      O20734   5.203   5.607   9.811
 6831WAT     H120735   5.254   5.521   9.811
 6831WAT     H220736   5.147   5.613   9.729
 6832WAT      O20737   9.262   1.705   3.332
 6832WAT     H120738   9.313   1.764   3.269
 6832WAT     H220739   9.167   1.699   3.302
 6833WAT      O20740   7.190   9.055   2.772
 6833WAT     H120741   7.135   9.110   2.708
 6833WAT     H220742   7.237   8.983   2.722
 6834WAT      O20743   0.908   6.959   9.244
 6834WAT     H120744   0.966   7.028   9.200
 6834WAT     H220745   0.901   6.978   9.342
 6835WAT      O20746   0.188   6.019   9.626
 6835WAT     H120747   0.190   6.084   9.702
 6835WAT     H220748   0.278   6.018   9.582
 6836WAT      O20749   1.802   1.671   8.695
 6836WAT     H120750   1.742   1.632   8.765
 6836WAT     H220751   1.880   1.609   8.680
 6837WAT      O20752   1.445   8.019   6.520
 6837WAT     H120753   1.497   8.104   6.512
 6837WAT     H220754   1.484   7.962   6.593
 6838WAT      O20755   3.798   2.251   4.170
 6838WAT     H120756   3.858   2.187   4.124
 6838WAT     H220757   3.809   2.342   4.131
 6839WAT      O20758   2.779   7.882   2.702
 6839WAT     H120759   2.728   7.947   2.645
 6839WAT     H220760   2.733   7.793   2.701
 6840WAT      O20761   8.752   3.204   4.798
 6840WAT     H120762   8.817   3.132   4.822
 6840WAT     H220763   8.659   3.169   4.806
 6841WAT      O20764   6.553   4.836   2.796
 6841WAT     H120765   6.499   4.888   2.862
 6841WAT     H220766   6.556   4.885   2.709
 6842WAT      O20767   7.400   0.929   7.618
 6842WAT     H120768   7.491   0.963   7.595
 6842WAT     H220769   7.404   0.830   7.633
 6843WAT      O20770   1.289   5.815   6.186
 6843WAT     H120771   1.271   5.752   6.110
 6843WAT     H220772   1.375   5.789   6.230
 6844WAT      O20773   0.930   9.841   5.005
 6844WAT     H120774   0.896   9.798   4.921
 6844WAT     H220775   0.930   9.774   5.079
 6845WAT      O20776   8.621   1.639   0.946
 6845WAT     H120777   8.575   1.551   0.962
 6845WAT     H220778   8.712   1.637   0.988
 6846WAT      O20779   6.780   7.459   1.566
 6846WAT     H120780   6.709   7.399   1.605
 6846WAT     H220781   6.836   7.496   1.640
 6847WAT      O20782   4.857   6.788   5.273
 6847WAT     H120783   4.932   6.810   5.335
 6847WAT     H220784   4.807   6.709   5.308
 6848WAT      O20785   6.881   8.610   9.646
 6848WAT     H120786   6.809   8.666   9.605
 6848WAT     H220787   6.965   8.664   9.654
 6849WAT      O20788   6.076   9.195   7.600
 6849WAT     H120789   5.977   9.197   7.617
 6849WAT     H220790   6.116   9.117   7.649
 6850WAT      O20791   6.327   6.760   2.642
 6850WAT     H120792   6.268   6.694   2.594
 6850WAT     H220793   6.335   6.843   2.587
 6851WAT      O20794   6.177   3.937   3.609
 6851WAT     H120795   6.166   3.905   3.703
 6851WAT     H220796   6.153   3.864   3.546
 6852WAT      O20797   7.866   3.644   5.833
 6852WAT     H120798   7.772   3.673   5.817
 6852WAT     H220799   7.922   3.666   5.754
 6853WAT      O20800   9.314   3.828   9.593
 6853WAT     H120801   9.294   3.792   9.502
 6853WAT     H220802   9.405   3.871   9.592
 6854WAT      O20803   1.689   1.056   5.218
 6854WAT     H120804   1.606   1.103   5.248
 6854WAT     H220805   1.673   0.957   5.217
 6855WAT      O20806   4.483   5.215   6.143
 6855WAT     H120807   4.571   5.238   6.103
 6855WAT     H220808   4.496   5.184   6.237
 6856WAT      O20809   7.517   8.249   4.439
 6856WAT     H120810   7.537   8.347   4.444
 6856WAT     H220811   7.440   8.233   4.378
 6857WAT      O20812   5.647   6.190   9.345
 6857WAT     H120813   5.674   6.258   9.276
 6857WAT     H220814   5.696   6.209   9.430
 6858WAT      O20815   6.925   9.432   1.570
 6858WAT     H120816   7.012   9.454   1.615
 6858WAT     H220817   6.936   9.437   1.471
 6859WAT      O20818   0.139   3.009   2.148
 6859WAT     H120819   0.050   3.005   2.192
 6859WAT     H220820   0.191   3.087   2.184
 6860WAT      O20821   7.122   5.027   4.392
 6860WAT     H120822   7.038   5.052   4.441
 6860WAT     H220823   7.201   5.042   4.453
 6861WAT      O20824   4.552   4.327   8.950
 6861WAT     H120825   4.649   4.347   8.966
 6861WAT     H220826   4.497   4.408   8.974
 6862WAT      O20827   2.578   3.972   3.269
 6862WAT     H120828   2.484   3.941   3.251
 6862WAT     H220829   2.602   3.950   3.363
 6863WAT      O20830   9.552   7.355   2.513
 6863WAT     H120831   9.522   7.449   2.531
 6863WAT     H220832   9.652   7.350   2.523
 6864WAT      O20833   7.427   5.165   1.112
 6864WAT     H120834   7.428   5.177   1.212
 6864WAT     H220835   7.459   5.073   1.090
 6865WAT      O20836   2.856   4.357   9.553
 6865WAT     H120837   2.877   4.375   9.457
 6865WAT     H220838   2.935   4.379   9.610
 6866WAT      O20839   2.611   0.593   5.046
 6866WAT     H120840   2.607   0.657   4.969
 6866WAT     H220841   2.522   0.549   5.057
 6867WAT      O20842   1.500   9.820   0.692
 6867WAT     H120843   1.452   9.818   0.604
 6867WAT     H220844   1.498   9.913   0.729
 6868WAT      O20845   9.654   1.965   3.594
 6868WAT     H120846   9.704   2.028   3.535
 6868WAT     H220847   9.556   1.987   3.591
 6869WAT      O20848   4.247   8.784   9.623
 6869WAT     H120849   4.239   8.763   9.721
 6869WAT     H220850   4.324   8.733   9.585
 6870WAT      O20851   6.817   7.386   9.275
 6870WAT     H120852   6.825   7.465   9.335
 6870WAT     H220853   6.841   7.303   9.325
 6871WAT      O20854   4.082   4.145   2.109
 6871WAT     H120855   4.157   4.096   2.155
 6871WAT     H220856   4.093   4.136   2.010
 6872WAT      O20857   3.033   2.749   2.646
 6872WAT     H120858   3.016   2.677   2.714
 6872WAT     H220859   2.978   2.829   2.667
 6873WAT      O20860   3.422   6.631   3.719
 6873WAT     H120861   3.447   6.620   3.623
 6873WAT     H220862   3.353   6.562   3.744
 6874WAT      O20863   2.287   7.035   3.325
 6874WAT     H120864   2.192   7.021   3.351
 6874WAT     H220865   2.345   7.028   3.406
 6875WAT      O20866   8.936   2.966   0.292
 6875WAT     H120867   8.837   2.977   0.280
 6875WAT     H220868   8.955   2.945   0.388
 6876WAT      O20869   6.553   1.745   6.009
 6876WAT     H120870   6.504   1.792   6.082
 6876WAT     H220871   6.604   1.668   6.046
 6877WAT      O20872   0.116   4.212   8.692
 6877WAT     H120873   0.057   4.182   8.617
 6877WAT     H220874   0.067   4.201   8.779
 6878WAT      O20875   5.731   7.761   6.142
 6878WAT     H120876   5.648   7.736   6.192
 6878WAT     H220877   5.712   7.837   6.080
 6879WAT      O20878   5.241   1.708   1.540
 6879WAT     H120879   5.296   1.711   1.624
 6879WAT     H220880   5.168   1.641   1.551
 6880WAT      O20881   5.145   1.309   6.022
 6880WAT     H120882   5.178   1.294   5.928
 6880WAT     H220883   5.159   1.226   6.076
 6881WAT      O20884   7.531   1.492   7.865
 6881WAT     H120885   7.618   1.479   7.818
 6881WAT     H220886   7.505   1.407   7.911
 6882WAT      O20887   0.358   9.059   5.134
 6882WAT     H120888   0.373   9.067   5.232
 6882WAT     H220889   0.290   9.126   5.104
 6883WAT      O20890   5.492   6.455   9.620
 6883WAT     H120891   5.585   6.473   9.588
 6883WAT     H220892   5.428   6.464   9.544
 6884WAT      O20893   0.685   3.455   6.042
 6884WAT     H120894   0.640   3.442   6.130
 6884WAT     H220895   0.701   3.553   6.027
 6885WAT      O20896   2.210   2.464   4.918
 6885WAT     H120897   2.236   2.557   4.944
 6885WAT     H220898   2.291   2.405   4.922
 6886WAT      O20899   8.114   3.456   1.391
 6886WAT     H120900   8.159   3.385   1.446
 6886WAT     H220901   8.139   3.546   1.427
 6887WAT      O20902   0.828   3.666   6.644
 6887WAT     H120903   0.896   3.733   6.672
 6887WAT     H220904   0.873   3.583   6.611
 6888WAT      O20905   3.286   1.808   6.710
 6888WAT     H120906   3.356   1.801   6.639
 6888WAT     H220907   3.316   1.757   6.791
 6889WAT      O20908   7.229   3.057   8.011
 6889WAT     H120909   7.195   3.018   7.925
 6889WAT     H220910   7.243   2.983   8.077
 6890WAT      O20911   9.572   9.211   1.013
 6890WAT     H120912   9.632   9.131   1.008
 6890WAT     H220913   9.584   9.266   0.931
 6891WAT      O20914   5.625   0.078   4.947
 6891WAT     H120915   5.693   0.056   5.017
 6891WAT     H220916   5.663   0.147   4.885
 6892WAT      O20917   6.499   4.341   4.812
 6892WAT     H120918   6.448   4.277   4.869
 6892WAT     H220919   6.444   4.366   4.733
 6893WAT      O20920   7.708   9.085   0.433
 6893WAT     H120921   7.808   9.096   0.431
 6893WAT     H220922   7.682   9.034   0.515
 6894WAT      O20923   5.170   6.696   1.449
 6894WAT     H120924   5.092   6.664   1.502
 6894WAT     H220925   5.228   6.618   1.424
 6895WAT      O20926   0.441   9.536   3.726
 6895WAT     H120927   0.532   9.535   3.686
 6895WAT     H220928   0.404   9.443   3.727
 6896WAT      O20929   8.314   5.394   8.051
 6896WAT     H120930   8.301   5.436   8.141
 6896WAT     H220931   8.283   5.457   7.980
 6897WAT      O20932   8.487   1.084   3.543
 6897WAT     H120933   8.392   1.068   3.571
 6897WAT     H220934   8.497   1.178   3.512
 6898WAT      O20935   2.851   7.873   3.834
 6898WAT     H120936   2.923   7.942   3.830
 6898WAT     H220937   2.785   7.897   3.904
 6899WAT      O20938   3.019   5.361   8.033
 6899WAT     H120939   2.971   5.284   7.991
 6899WAT     H220940   3.049   5.335   8.125
 6900WAT      O20941   7.141   3.834   5.918
 6900WAT     H120942   7.194   3.803   5.998
 6900WAT     H220943   7.077   3.905   5.946
 6901WAT      O20944   0.907   6.012   7.464
 6901WAT     H120945   0.891   5.960   7.548
 6901WAT     H220946   0.905   5.949   7.386
 6902WAT      O20947   5.963   3.328   5.779
 6902WAT     H120948   6.061   3.314   5.788
 6902WAT     H220949   5.926   3.266   5.710
 6903WAT      O20950   5.546   6.091   6.034
 6903WAT     H120951   5.628   6.039   6.012
 6903WAT     H220952   5.482   6.032   6.083
 6904WAT      O20953   4.913   8.858   3.054
 6904WAT     H120954   4.840   8.926   3.063
 6904WAT     H220955   4.873   8.767   3.044
 6905WAT      O20956   6.778   8.574   6.011
 6905WAT     H120957   6.797   8.499   5.949
 6905WAT     H220958   6.755   8.537   6.102
 6906WAT      O20959   3.827   6.844   2.987
 6906WAT     H120960   3.826   6.937   2.950
 6906WAT     H220961   3.868   6.845   3.079
 6907WAT      O20962   2.272   1.013   6.755
 6907WAT     H120963   2.273   0.935   6.692
 6907WAT     H220964   2.326   1.087   6.716
 6908WAT      O20965   4.834   5.867   7.326
 6908WAT     H120966   4.883   5.952   7.346
 6908WAT     H220967   4.753   5.861   7.383
 6909WAT      O20968   7.824   1.718   2.992
 6909WAT     H120969   7.812   1.793   2.927
 6909WAT     H220970   7.741   1.663   2.995
 6910WAT      O20971   7.493   0.695   7.152
 6910WAT     H120972   7.554   0.661   7.224
 6910WAT     H220973   7.424   0.626   7.130
 6911WAT      O20974   8.172   2.604   0.084
 6911WAT     H120975   8.161   2.524   0.144
 6911WAT     H220976   8.171   2.687   0.139
 6912WAT      O20977   6.141   3.546   8.098
 6912WAT     H120978   6.194   3.464   8.075
 6912WAT     H220979   6.160   3.572   8.193
 6913WAT      O20980   0.864   4.927   3.248
 6913WAT     H120981   0.809   4.975   3.181
 6913WAT     H220982   0.830   4.833   3.259
 6914WAT      O20983   4.305   8.838   3.703
 6914WAT     H120984   4.247   8.761   3.726
 6914WAT     H220985   4.255   8.923   3.717
 6915WAT      O20986   8.033   6.425   5.690
 6915WAT     H120987   8.127   6.454   5.707
 6915WAT     H220988   7.970   6.496   5.722
 6916WAT      O20989   7.957   3.317   3.257
 6916WAT     H120990   7.889   3.387   3.236
 6916WAT     H220991   7.921   3.227   3.229
 6917WAT      O20992   8.199   6.668   0.336
 6917WAT     H120993   8.266   6.724   0.385
 6917WAT     H220994   8.216   6.571   0.355
 6918WAT      O20995   4.686   1.947   5.658
 6918WAT     H120996   4.721   1.890   5.733
 6918WAT     H220997   4.632   1.889   5.597
 6919WAT      O20998   3.740   9.769   9.152
 6919WAT     H120999   3.647   9.771   9.188
 6919WAT     H221000   3.777   9.862   9.149
 6920WAT      O21001   6.458   2.305   9.518
 6920WAT     H121002   6.524   2.340   9.451
 6920WAT     H221003   6.423   2.381   9.573
 6921WAT      O21004   9.013   5.180   1.065
 6921WAT     H121005   8.932   5.155   1.117
 6921WAT     H221006   9.081   5.220   1.126
 6922WAT      O21007   5.265   6.944   2.718
 6922WAT     H121008   5.189   6.880   2.726
 6922WAT     H221009   5.267   6.982   2.625
 6923WAT      O21010   4.192   8.261   3.326
 6923WAT     H121011   4.192   8.179   3.384
 6923WAT     H221012   4.218   8.340   3.381
 6924WAT      O21013   6.753   8.814   5.876
 6924WAT     H121014   6.774   8.886   5.942
 6924WAT     H221015   6.752   8.725   5.922
 6925WAT      O21016   3.630   8.409   9.856
 6925WAT     H121017   3.700   8.428   9.787
 6925WAT     H221018   3.568   8.487   9.863
 6926WAT      O21019   0.549   0.166   9.010
 6926WAT     H121020   0.647   0.149   9.009
 6926WAT     H221021   0.532   0.262   9.035
 6927WAT      O21022   1.044   5.581   2.233
 6927WAT     H121023   1.042   5.500   2.292
 6927WAT     H221024   1.126   5.578   2.176
 6928WAT      O21025   2.875   9.319   8.399
 6928WAT     H121026   2.787   9.274   8.391
 6928WAT     H221027   2.866   9.403   8.452
 6929WAT      O21028   3.437   0.600   8.687
 6929WAT     H121029   3.407   0.651   8.768
 6929WAT     H221030   3.530   0.627   8.663
 6930WAT      O21031   9.520   9.806   2.960
 6930WAT     H121032   9.441   9.749   2.937
 6930WAT     H221033   9.494   9.871   3.031
 6931WAT      O21034   3.053   4.754   1.544
 6931WAT     H121035   3.037   4.832   1.483
 6931WAT     H221036   3.048   4.669   1.492
 6932WAT      O21037   2.276   1.678   5.952
 6932WAT     H121038   2.362   1.704   5.996
 6932WAT     H221039   2.267   1.725   5.865
 6933WAT      O21040   1.966   7.202   3.081
 6933WAT     H121041   1.965   7.120   3.138
 6933WAT     H221042   1.874   7.239   3.074
 6934WAT      O21043   5.776   3.943   6.820
 6934WAT     H121044   5.850   4.003   6.849
 6934WAT     H221045   5.750   3.883   6.896
 6935WAT      O21046   8.165   2.576   2.398
 6935WAT     H121047   8.091   2.644   2.397
 6935WAT     H221048   8.209   2.576   2.488
 6936WAT      O21049   0.982   5.584   9.750
 6936WAT     H121050   0.947   5.632   9.831
 6936WAT     H221051   0.908   5.531   9.708
 6937WAT      O21052   8.235   7.729   7.105
 6937WAT     H121053   8.209   7.720   7.009
 6937WAT     H221054   8.221   7.642   7.152
 6938WAT      O21055   1.409   7.554   2.510
 6938WAT     H121056   1.409   7.633   2.449
 6938WAT     H221057   1.475   7.568   2.584
 6939WAT      O21058   0.430   4.089   7.822
 6939WAT     H121059   0.523   4.098   7.858
 6939WAT     H221060   0.365   4.118   7.892
 6940WAT      O21061   8.421   6.527   5.159
 6940WAT     H121062   8.452   6.432   5.155
 6940WAT     H221063   8.471   6.581   5.091
 6941WAT      O21064   8.368   4.761   4.866
 6941WAT     H121065   8.308   4.712   4.929
 6941WAT     H221066   8.369   4.714   4.777
 6942WAT      O21067   2.806   9.136   4.533
 6942WAT     H121068   2.796   9.053   4.587
 6942WAT     H221069   2.903   9.158   4.524
 6943WAT      O21070   9.016   8.599   4.631
 6943WAT     H121071   9.089   8.534   4.654
 6943WAT     H221072   9.005   8.665   4.705
 6944WAT      O21073   8.886   0.183   7.807
 6944WAT     H121074   8.850   0.251   7.743
 6944WAT     H221075   8.879   0.092   7.766
 6945WAT      O21076   6.072   5.998   4.269
 6945WAT     H121077   5.974   5.986   4.255
 6945WAT     H221078   6.095   5.975   4.364
 6946WAT      O21079   0.675   9.436   7.102
 6946WAT     H121080   0.753   9.465   7.157
 6946WAT     H221081   0.590   9.471   7.142
 6947WAT      O21082   1.991   2.281   0.177
 6947WAT     H121083   2.050   2.336   0.237
 6947WAT     H221084   2.031   2.190   0.167
 6948WAT      O21085   0.649   6.435   0.321
 6948WAT     H121086   0.603   6.347   0.329
 6948WAT     H221087   0.726   6.426   0.258
 6949WAT      O21088   6.249   0.779   5.623
 6949WAT     H121089   6.164   0.728   5.609
 6949WAT     H221090   6.230   0.864   5.671
 6950WAT      O21091   5.192   7.534   7.055
 6950WAT     H121092   5.217   7.486   6.970
 6950WAT     H221093   5.109   7.493   7.093
 6951WAT      O21094   4.515   5.798   0.810
 6951WAT     H121095   4.439   5.733   0.819
 6951WAT     H221096   4.587   5.757   0.755
 6952WAT      O21097   1.425   0.161   4.544
 6952WAT     H121098   1.499   0.185   4.606
 6952WAT     H221099   1.459   0.159   4.450
 6953WAT      O21100   0.452   4.583   2.024
 6953WAT     H121101   0.537   4.568   1.973
 6953WAT     H221102   0.463   4.660   2.086
 6954WAT      O21103   6.089   9.296   5.201
 6954WAT     H121104   6.052   9.258   5.116
 6954WAT     H221105   6.090   9.396   5.195
 6955WAT      O21106   2.846   5.643   3.321
 6955WAT     H121107   2.939   5.621   3.349
 6955WAT     H221108   2.807   5.711   3.383
 6956WAT      O21109   9.451   9.662   8.477
 6956WAT     H121110   9.389   9.612   8.417
 6956WAT     H221111   9.533   9.689   8.426
 6957WAT      O21112   1.596   1.466   2.033
 6957WAT     H121113   1.658   1.491   1.958
 6957WAT     H221114   1.592   1.541   2.099
 6958WAT      O21115   3.511   3.559   6.463
 6958WAT     H121116   3.458   3.475   6.469
 6958WAT     H221117   3.608   3.539   6.477
 6959WAT      O21118   9.811   4.376   8.895
 6959WAT     H121119   9.783   4.408   8.804
 6959WAT     H221120   9.805   4.277   8.899
 6960WAT      O21121   4.205   3.504   8.208
 6960WAT     H121122   4.121   3.519   8.260
 6960WAT     H221123   4.189   3.438   8.135
 6961WAT      O21124   7.323   8.580   9.080
 6961WAT     H121125   7.251   8.527   9.126
 6961WAT     H221126   7.291   8.610   8.991
 6962WAT      O21127   5.201   0.153   9.496
 6962WAT     H121128   5.113   0.159   9.448
 6962WAT     H221129   5.274   0.133   9.430
 6963WAT      O21130   4.685   5.846   1.347
 6963WAT     H121131   4.676   5.831   1.248
 6963WAT     H221132   4.765   5.796   1.381
 6964WAT      O21133   5.172   4.205   5.752
 6964WAT     H121134   5.228   4.212   5.668
 6964WAT     H221135   5.206   4.271   5.819
 6965WAT      O21136   3.074   9.238   5.309
 6965WAT     H121137   2.976   9.243   5.289
 6965WAT     H221138   3.122   9.305   5.252
 6966WAT      O21139   2.797   8.064   9.613
 6966WAT     H121140   2.883   8.069   9.563
 6966WAT     H221141   2.790   7.976   9.660
 6967WAT      O21142   5.999   6.029   9.006
 6967WAT     H121143   5.908   6.070   9.009
 6967WAT     H221144   6.004   5.956   9.074
 6968WAT      O21145   8.366   0.215   5.854
 6968WAT     H121146   8.367   0.145   5.783
 6968WAT     H221147   8.382   0.172   5.943
 6969WAT      O21148   1.978   6.410   9.082
 6969WAT     H121149   1.941   6.444   8.995
 6969WAT     H221150   1.948   6.469   9.157
 6970WAT      O21151   2.762   9.267   0.440
 6970WAT     H121152   2.831   9.194   0.445
 6970WAT     H221153   2.684   9.234   0.386
 6971WAT      O21154   4.130   9.307   7.165
 6971WAT     H121155   4.214   9.351   7.132
 6971WAT     H221156   4.051   9.352   7.124
 6972WAT      O21157   0.919   5.755   8.722
 6972WAT     H121158   0.906   5.760   8.821
 6972WAT     H221159   1.004   5.801   8.697
 6973WAT      O21160   1.427   5.546   1.474
 6973WAT     H121161   1.343   5.496   1.458
 6973WAT     H221162   1.429   5.628   1.416
 6974WAT      O21163   2.785   1.856   5.075
 6974WAT     H121164   2.791   1.787   5.004
 6974WAT     H221165   2.700   1.844   5.127
 6975WAT      O21166   3.896   5.548   7.025
 6975WAT     H121167   3.962   5.538   7.100
 6975WAT     H221168   3.804   5.556   7.062
 6976WAT      O21169   1.602   4.625   9.632
 6976WAT     H121170   1.507   4.628   9.662
 6976WAT     H221171   1.617   4.545   9.575
 6977WAT      O21172   8.940   0.934   1.950
 6977WAT     H121173   8.937   0.929   2.050
 6977WAT     H221174   8.853   0.901   1.913
 6978WAT      O21175   0.783   4.076   9.578
 6978WAT     H121176   0.711   4.024   9.623
 6978WAT     H221177   0.825   4.139   9.643
 6979WAT      O21178   7.632   8.260   3.472
 6979WAT     H121179   7.631   8.323   3.549
 6979WAT     H221180   7.607   8.168   3.504
 6980WAT      O21181   3.049   6.122   7.587
 6980WAT     H121182   3.015   6.049   7.645
 6980WAT     H221183   3.053   6.208   7.640
 6981WAT      O21184   9.265   7.688   1.975
 6981WAT     H121185   9.359   7.714   1.952
 6981WAT     H221186   9.230   7.624   1.907
 6982WAT      O21187   6.056   6.925   2.192
 6982WAT     H121188   6.115   6.910   2.113
 6982WAT     H221189   5.966   6.886   2.174
 6983WAT      O21190   1.399   2.519   1.419
 6983WAT     H121191   1.439   2.431   1.394
 6983WAT     H221192   1.301   2.518   1.398
 6984WAT      O21193   3.637   1.559   1.170
 6984WAT     H121194   3.615   1.620   1.246
 6984WAT     H221195   3.564   1.491   1.159
 6985WAT      O21196   6.432   6.326   1.894
 6985WAT     H121197   6.355   6.362   1.842
 6985WAT     H221198   6.399   6.280   1.976
 6986WAT      O21199   8.747   5.488   5.891
 6986WAT     H121200   8.764   5.523   5.800
 6986WAT     H221201   8.758   5.388   5.891
 6987WAT      O21202   0.669   2.539   8.403
 6987WAT     H121203   0.676   2.578   8.311
 6987WAT     H221204   0.740   2.470   8.416
 6988WAT      O21205   6.104   1.481   1.177
 6988WAT     H121206   6.134   1.509   1.268
 6988WAT     H221207   6.107   1.382   1.169
 6989WAT      O21208   0.626   4.139   8.250
 6989WAT     H121209   0.655   4.182   8.335
 6989WAT     H221210   0.530   4.160   8.233
 6990WAT      O21211   1.231   1.624   4.123
 6990WAT     H121212   1.314   1.677   4.109
 6990WAT     H221213   1.236   1.579   4.212
 6991WAT      O21214   3.204   2.384   6.079
 6991WAT     H121215   3.209   2.348   6.173
 6991WAT     H221216   3.135   2.332   6.028
 6992WAT      O21217   1.345   9.782   4.868
 6992WAT     H121218   1.287   9.821   4.797
 6992WAT     H221219   1.380   9.855   4.927
 6993WAT      O21220   4.103   6.498   2.429
 6993WAT     H121221   4.026   6.547   2.471
 6993WAT     H221222   4.188   6.543   2.455
 6994WAT      O21223   7.707   8.868   4.957
 6994WAT     H121224   7.739   8.963   4.965
 6994WAT     H221225   7.657   8.857   4.871
 6995WAT      O21226   9.592   3.640   3.961
 6995WAT     H121227   9.672   3.580   3.973
 6995WAT     H221228   9.564   3.676   4.050
 6996WAT      O21229   2.614   6.302   4.227
 6996WAT     H121230   2.602   6.292   4.326
 6996WAT     H221231   2.526   6.294   4.181
 6997WAT      O21232   0.289   9.295   4.314
 6997WAT     H121233   0.259   9.390   4.301
 6997WAT     H221234   0.358   9.273   4.244
 6998WAT      O21235   2.492   8.822   6.349
 6998WAT     H121236   2.571   8.762   6.339
 6998WAT     H221237   2.503   8.879   6.431
 6999WAT      O21238   4.469   8.962   4.682
 6999WAT     H121239   4.538   8.904   4.724
 6999WAT     H221240   4.497   8.985   4.589
 7000WAT      O21241   9.464   9.738   7.287
 7000WAT     H121242   9.392   9.797   7.249
 7000WAT     H221243   9.424   9.676   7.355
 7001WAT      O21244   3.479   0.978   1.258
 7001WAT     H121245   3.422   0.937   1.328
 7001WAT     H221246   3.540   1.046   1.300
 7002WAT      O21247   4.656   5.061   0.429
 7002WAT     H121248   4.679   5.046   0.525
 7002WAT     H221249   4.568   5.108   0.422
 7003WAT      O21250   9.236   3.962   7.705
 7003WAT     H121251   9.316   3.912   7.738
 7003WAT     H221252   9.240   4.056   7.738
 7004WAT      O21253   8.816   0.473   8.762
 7004WAT     H121254   8.721   0.470   8.793
 7004WAT     H221255   8.818   0.491   8.664
 7005WAT      O21256   4.037   3.590   5.354
 7005WAT     H121257   4.003   3.562   5.444
 7005WAT     H221258   3.963   3.635   5.303
 7006WAT      O21259   2.907   3.917   5.915
 7006WAT     H121260   2.971   3.987   5.883
 7006WAT     H221261   2.932   3.889   6.008
 7007WAT      O21262   6.011   6.078   6.874
 7007WAT     H121263   6.028   6.176   6.879
 7007WAT     H221264   5.944   6.052   6.944
 7008WAT      O21265   5.995   2.022   0.155
 7008WAT     H121266   5.902   2.052   0.133
 7008WAT     H221267   6.024   2.064   0.241
 7009WAT      O21268   4.023   8.286   3.707
 7009WAT     H121269   3.995   8.378   3.681
 7009WAT     H221270   4.081   8.248   3.635
 7010WAT      O21271   6.861   3.316   5.257
 7010WAT     H121272   6.838   3.399   5.205
 7010WAT     H221273   6.885   3.243   5.193
 7011WAT      O21274   4.139   2.296   0.611
 7011WAT     H121275   4.063   2.351   0.576
 7011WAT     H221276   4.144   2.304   0.710
 7012WAT      O21277   8.709   7.436   0.298
 7012WAT     H121278   8.784   7.499   0.276
 7012WAT     H221279   8.673   7.458   0.388
 7013WAT      O21280   6.463   0.335   3.170
 7013WAT     H121281   6.467   0.261   3.103
 7013WAT     H221282   6.448   0.297   3.262
 7014WAT      O21283   7.434   2.943   1.439
 7014WAT     H121284   7.452   2.944   1.341
 7014WAT     H221285   7.382   3.025   1.465
 7015WAT      O21286   6.364   2.537   6.956
 7015WAT     H121287   6.288   2.536   6.890
 7015WAT     H221288   6.327   2.523   7.048
 7016WAT      O21289   8.700   6.763   4.363
 7016WAT     H121290   8.681   6.669   4.334
 7016WAT     H221291   8.757   6.761   4.445
 7017WAT      O21292   8.878   3.818   0.664
 7017WAT     H121293   8.951   3.762   0.625
 7017WAT     H221294   8.847   3.777   0.750
 7018WAT      O21295   8.288   3.822   3.092
 7018WAT     H121296   8.331   3.736   3.120
 7018WAT     H221297   8.215   3.846   3.156
 7019WAT      O21298   2.050   8.872   5.851
 7019WAT     H121299   2.133   8.919   5.879
 7019WAT     H221300   1.985   8.869   5.927
 7020WAT      O21301   2.535   6.131   5.300
 7020WAT     H121302   2.441   6.164   5.301
 7020WAT     H221303   2.550   6.074   5.220
 7021WAT      O21304   8.768   0.385   3.639
 7021WAT     H121305   8.678   0.364   3.600
 7021WAT     H221306   8.809   0.301   3.675
 7022WAT      O21307   7.783   5.931   6.899
 7022WAT     H121308   7.858   5.890   6.847
 7022WAT     H221309   7.736   5.861   6.951
 7023WAT      O21310   4.906   3.966   9.611
 7023WAT     H121311   4.891   3.919   9.525
 7023WAT     H221312   5.001   3.999   9.615
 7024WAT      O21313   9.296   8.131   4.086
 7024WAT     H121314   9.378   8.087   4.120
 7024WAT     H221315   9.253   8.074   4.016
 7025WAT      O21316   8.828   7.846   5.520
 7025WAT     H121317   8.877   7.760   5.525
 7025WAT     H221318   8.761   7.843   5.446
 7026WAT      O21319   9.681   6.151   2.841
 7026WAT     H121320   9.691   6.095   2.758
 7026WAT     H221321   9.730   6.238   2.829
 7027WAT      O21322   0.510   8.443   9.759
 7027WAT     H121323   0.426   8.416   9.806
 7027WAT     H221324   0.495   8.443   9.660
 7028WAT      O21325   9.854   2.582   1.928
 7028WAT     H121326   9.894   2.588   2.020
 7028WAT     H221327   9.762   2.544   1.935
 7029WAT      O21328   1.576   3.430   6.722
 7029WAT     H121329   1.489   3.413   6.769
 7029WAT     H221330   1.650   3.433   6.789
 7030WAT      O21331   2.558   3.175   7.271
 7030WAT     H121332   2.606   3.101   7.224
 7030WAT     H221333   2.588   3.263   7.234
 7031WAT      O21334   8.049   8.077   9.237
 7031WAT     H121335   8.137   8.042   9.267
 7031WAT     H221336   7.980   8.059   9.306
 7032WAT      O21337   5.003   0.070   5.111
 7032WAT     H121338   4.987   0.117   5.025
 7032WAT     H221339   4.963   0.123   5.186
 7033WAT      O21340   3.129   0.370   8.469
 7033WAT     H121341   3.125   0.320   8.382
 7033WAT     H221342   3.170   0.461   8.453
 7034WAT      O21343   0.750   6.522   1.692
 7034WAT     H121344   0.776   6.442   1.746
 7034WAT     H221345   0.661   6.506   1.650
 7035WAT      O21346   2.426   5.622   5.730
 7035WAT     H121347   2.337   5.581   5.752
 7035WAT     H221348   2.427   5.650   5.634
 7036WAT      O21349   7.495   9.564   0.325
 7036WAT     H121350   7.415   9.621   0.341
 7036WAT     H221351   7.496   9.534   0.229
 7037WAT      O21352   4.814   6.106   5.284
 7037WAT     H121353   4.742   6.060   5.336
 7037WAT     H221354   4.801   6.205   5.290
 7038WAT      O21355   0.963   3.937   0.916
 7038WAT     H121356   1.002   3.888   0.994
 7038WAT     H221357   0.987   3.889   0.831
 7039WAT      O21358   3.841   5.537   5.992
 7039WAT     H121359   3.815   5.622   6.038
 7039WAT     H221360   3.867   5.558   5.897
 7040WAT      O21361   1.749   6.641   3.278
 7040WAT     H121362   1.828   6.668   3.333
 7040WAT     H221363   1.683   6.592   3.335
 7041WAT      O21364   9.677   1.409   0.882
 7041WAT     H121365   9.691   1.366   0.972
 7041WAT     H221366   9.729   1.360   0.813
 7042WAT      O21367   4.404   0.570   5.575
 7042WAT     H121368   4.391   0.486   5.627
 7042WAT     H221369   4.501   0.581   5.552
 7043WAT      O21370   8.993   2.650   6.726
 7043WAT     H121371   9.052   2.687   6.655
 7043WAT     H221372   9.002   2.550   6.728
 7044WAT      O21373   0.071   9.425   5.365
 7044WAT     H121374   0.041   9.518   5.346
 7044WAT     H221375   0.109   9.384   5.282
 7045WAT      O21376   9.701   7.097   7.959
 7045WAT     H121377   9.733   7.043   7.881
 7045WAT     H221378   9.746   7.186   7.959
 7046WAT      O21379   6.056   2.300   0.222
 7046WAT     H121380   5.992   2.345   0.160
 7046WAT     H221381   6.005   2.248   0.291
 7047WAT      O21382   3.916   9.129   0.152
 7047WAT     H121383   3.963   9.150   0.238
 7047WAT     H221384   3.834   9.076   0.171
 7048WAT      O21385   3.509   1.346   7.631
 7048WAT     H121386   3.579   1.418   7.630
 7048WAT     H221387   3.546   1.265   7.677
 7049WAT      O21388   4.761   7.716   9.577
 7049WAT     H121389   4.693   7.646   9.554
 7049WAT     H221390   4.728   7.805   9.548
 7050WAT      O21391   4.789   1.794   0.602
 7050WAT     H121392   4.873   1.762   0.558
 7050WAT     H221393   4.802   1.887   0.634
 7051WAT      O21394   1.403   9.405   8.418
 7051WAT     H121395   1.329   9.391   8.484
 7051WAT     H221396   1.429   9.317   8.378
 7052WAT      O21397   3.932   8.657   3.498
 7052WAT     H121398   3.835   8.644   3.514
 7052WAT     H221399   3.948   8.680   3.402
 7053WAT      O21400   1.448   1.224   3.787
 7053WAT     H121401   1.518   1.179   3.843
 7053WAT     H221402   1.370   1.248   3.845
 7054WAT      O21403   0.368   6.419   3.303
 7054WAT     H121404   0.348   6.503   3.354
 7054WAT     H221405   0.313   6.344   3.340
 7055WAT      O21406   3.109   1.879   3.815
 7055WAT     H121407   3.079   1.970   3.845
 7055WAT     H221408   3.197   1.858   3.857
 7056WAT      O21409   1.492   6.319   9.706
 7056WAT     H121410   1.480   6.418   9.705
 7056WAT     H221411   1.440   6.279   9.781
 7057WAT      O21412   4.234   0.914   1.086
 7057WAT     H121413   4.277   0.893   0.998
 7057WAT     H221414   4.172   0.839   1.111
 7058WAT      O21415   7.843   0.742   5.378
 7058WAT     H121416   7.862   0.659   5.326
 7058WAT     H221417   7.850   0.723   5.475
 7059WAT      O21418   9.214   2.583   0.934
 7059WAT     H121419   9.169   2.496   0.916
 7059WAT     H221420   9.290   2.570   0.997
 7060WAT      O21421   1.084   8.258   0.384
 7060WAT     H121422   1.167   8.214   0.350
 7060WAT     H221423   1.013   8.258   0.313
 7061WAT      O21424   7.191   6.592   3.754
 7061WAT     H121425   7.284   6.618   3.782
 7061WAT     H221426   7.155   6.663   3.693
 7062WAT      O21427   7.600   6.294   6.337
 7062WAT     H121428   7.688   6.253   6.312
 7062WAT     H221429   7.573   6.360   6.266
 7063WAT      O21430   0.629   2.066   8.058
 7063WAT     H121431   0.600   2.012   8.137
 7063WAT     H221432   0.728   2.057   8.047
 7064WAT      O21433   6.714   2.936   9.400
 7064WAT     H121434   6.782   3.006   9.422
 7064WAT     H221435   6.624   2.979   9.391
 7065WAT      O21436   5.785   4.353   0.655
 7065WAT     H121437   5.836   4.392   0.578
 7065WAT     H221438   5.843   4.352   0.736
 7066WAT      O21439   6.304   4.172   2.838
 7066WAT     H121440   6.303   4.272   2.850
 7066WAT     H221441   6.365   4.131   2.906
 7067WAT      O21442   7.121   3.795   2.008
 7067WAT     H121443   7.195   3.758   1.952
 7067WAT     H221444   7.151   3.881   2.050
 7068WAT      O21445   5.818   8.904   6.442
 7068WAT     H121446   5.866   8.889   6.356
 7068WAT     H221447   5.831   8.998   6.472
 7069WAT      O21448   2.229   2.089   6.671
 7069WAT     H121449   2.142   2.127   6.703
 7069WAT     H221450   2.258   2.138   6.589
 7070WAT      O21451   5.407   5.689   7.791
 7070WAT     H121452   5.458   5.775   7.788
 7070WAT     H221453   5.316   5.702   7.752
 7071WAT      O21454   8.010   7.332   1.717
 7071WAT     H121455   8.039   7.367   1.806
 7071WAT     H221456   8.042   7.393   1.645
 7072WAT      O21457   8.295   1.231   3.954
 7072WAT     H121458   8.280   1.327   3.975
 7072WAT     H221459   8.357   1.191   4.021
 7073WAT      O21460   7.040   5.098   9.178
 7073WAT     H121461   7.039   5.003   9.147
 7073WAT     H221462   6.997   5.156   9.109
 7074WAT      O21463   2.068   4.280   6.171
 7074WAT     H121464   2.113   4.198   6.134
 7074WAT     H221465   2.129   4.325   6.236
 7075WAT      O21466   2.618   7.720   1.403
 7075WAT     H121467   2.688   7.690   1.467
 7075WAT     H221468   2.541   7.761   1.453
 7076WAT      O21469   1.906   0.593   1.219
 7076WAT     H121470   1.847   0.528   1.171
 7076WAT     H221471   1.875   0.601   1.314
 7077WAT      O21472   8.079   6.623   2.990
 7077WAT     H121473   8.174   6.636   3.020
 7077WAT     H221474   8.026   6.704   3.015
 7078WAT      O21475   8.621   6.931   0.369
 7078WAT     H121476   8.650   6.990   0.445
 7078WAT     H221477   8.545   6.975   0.321
 7079WAT      O21478   9.229   7.431   4.309
 7079WAT     H121479   9.177   7.516   4.318
 7079WAT     H221480   9.259   7.420   4.214
 7080WAT      O21481   5.882   1.949   7.451
 7080WAT     H121482   5.848   1.874   7.394
 7080WAT     H221483   5.866   1.927   7.547
 7081WAT      O21484   7.153   3.202   9.874
 7081WAT     H121485   7.239   3.235   9.837
 7081WAT     H221486   7.116   3.130   9.814
 7082WAT      O21487   1.690   1.556   1.395
 7082WAT     H121488   1.669   1.463   1.366
 7082WAT     H221489   1.756   1.596   1.331
 7083WAT      O21490   0.032   8.880   6.819
 7083WAT     H121491  -0.026   8.946   6.867
 7083WAT     H221492   0.128   8.906   6.828
 7084WAT      O21493   6.739   8.886   1.690
 7084WAT     H121494   6.818   8.935   1.654
 7084WAT     H221495   6.680   8.858   1.614
 7085WAT      O21496   6.554   1.525   2.203
 7085WAT     H121497   6.586   1.539   2.109
 7085WAT     H221498   6.633   1.510   2.263
 7086WAT      O21499   2.378   9.168   4.291
 7086WAT     H121500   2.357   9.167   4.193
 7086WAT     H221501   2.476   9.155   4.304
 7087WAT      O21502   4.530   3.940   6.460
 7087WAT     H121503   4.570   3.859   6.502
 7087WAT     H221504   4.466   3.983   6.524
 7088WAT      O21505   6.310   9.042   7.800
 7088WAT     H121506   6.257   9.090   7.870
 7088WAT     H221507   6.364   8.969   7.844
 7089WAT      O21508   2.290   6.086   1.069
 7089WAT     H121509   2.216   6.132   1.118
 7089WAT     H221510   2.331   6.150   1.003
 7090WAT      O21511   7.623   0.038   0.519
 7090WAT     H121512   7.588   0.131   0.533
 7090WAT     H221513   7.554  -0.028   0.549
 7091WAT      O21514   8.929   6.952   5.788
 7091WAT     H121515   9.028   6.970   5.795
 7091WAT     H221516   8.902   6.954   5.691
 7092WAT      O21517   8.405   5.808   7.641
 7092WAT     H121518   8.328   5.860   7.679
 7092WAT     H221519   8.389   5.711   7.655
 7093WAT      O21520   2.485   6.881   5.596
 7093WAT     H121521   2.558   6.819   5.568
 7093WAT     H221522   2.439   6.843   5.677
 7094WAT      O21523   4.682   8.785   4.783
 7094WAT     H121524   4.769   8.833   4.774
 7094WAT     H221525   4.669   8.756   4.878
 7095WAT      O21526   5.196   4.591   5.657
 7095WAT     H121527   5.157   4.522   5.596
 7095WAT     H221528   5.193   4.558   5.751
 7096WAT      O21529   2.645   2.263   4.380
 7096WAT     H121530   2.618   2.233   4.288
 7096WAT     H221531   2.660   2.362   4.379
 7097WAT      O21532   9.584   6.300   9.218
 7097WAT     H121533   9.528   6.333   9.294
 7097WAT     H221534   9.661   6.362   9.204
 7098WAT      O21535   7.440   5.688   4.633
 7098WAT     H121536   7.362   5.626   4.620
 7098WAT     H221537   7.471   5.681   4.728
 7099WAT      O21538   5.160   4.914   9.001
 7099WAT     H121539   5.167   4.868   9.090
 7099WAT     H221540   5.223   4.992   9.000
 7100WAT      O21541   5.365   2.455   0.053
 7100WAT     H121542   5.443   2.517   0.067
 7100WAT     H221543   5.280   2.507   0.060
 7101WAT      O21544   4.336   1.540   2.804
 7101WAT     H121545   4.332   1.628   2.757
 7101WAT     H221546   4.367   1.470   2.740
 7102WAT      O21547   1.560   4.713   2.095
 7102WAT     H121548   1.579   4.634   2.154
 7102WAT     H221549   1.551   4.681   2.001
 7103WAT      O21550   5.633   1.926   8.708
 7103WAT     H121551   5.681   1.844   8.678
 7103WAT     H221552   5.600   1.977   8.628
 7104WAT      O21553   7.379   4.740   5.758
 7104WAT     H121554   7.287   4.773   5.779
 7104WAT     H221555   7.426   4.718   5.843
 7105WAT      O21556   5.020   3.600   2.763
 7105WAT     H121557   5.024   3.673   2.831
 7105WAT     H221558   4.994   3.639   2.674
 7106WAT      O21559   7.446   3.205   9.845
 7106WAT     H121560   7.506   3.141   9.893
 7106WAT     H221561   7.460   3.297   9.883
 7107WAT      O21562   9.292   6.095   0.204
 7107WAT     H121563   9.301   6.013   0.147
 7107WAT     H221564   9.215   6.084   0.266
 7108WAT      O21565   2.221   5.271   5.121
 7108WAT     H121566   2.250   5.177   5.139
 7108WAT     H221567   2.302   5.330   5.116
 7109WAT      O21568   5.342   0.174   5.061
 7109WAT     H121569   5.436   0.145   5.042
 7109WAT     H221570   5.283   0.093   5.064
 7110WAT      O21571   2.907   6.849   2.574
 7110WAT     H121572   2.926   6.855   2.671
 7110WAT     H221573   2.958   6.773   2.534
 7111WAT      O21574   7.292   3.007   7.137
 7111WAT     H121575   7.198   3.003   7.105
 7111WAT     H221576   7.354   3.009   7.059
 7112WAT      O21577   4.212   2.023   0.637
 7112WAT     H121578   4.309   2.024   0.664
 7112WAT     H221579   4.172   2.113   0.655
 7113WAT      O21580   7.718   1.407   2.234
 7113WAT     H121581   7.653   1.454   2.175
 7113WAT     H221582   7.745   1.468   2.309
 7114WAT      O21583   5.385   2.072   4.219
 7114WAT     H121584   5.473   2.116   4.238
 7114WAT     H221585   5.329   2.133   4.163
 7115WAT      O21586   9.521   7.681   1.195
 7115WAT     H121587   9.431   7.682   1.238
 7115WAT     H221588   9.511   7.657   1.098
 7116WAT      O21589   4.697   4.633   9.204
 7116WAT     H121590   4.675   4.657   9.299
 7116WAT     H221591   4.781   4.578   9.203
 7117WAT      O21592   9.022   5.104   6.381
 7117WAT     H121593   9.121   5.119   6.380
 7117WAT     H221594   8.978   5.171   6.323
 7118WAT      O21595   2.917   5.132   7.340
 7118WAT     H121596   2.969   5.085   7.268
 7118WAT     H221597   2.861   5.066   7.390
 7119WAT      O21598   0.263   2.092   5.057
 7119WAT     H121599   0.244   2.038   5.140
 7119WAT     H221600   0.177   2.108   5.008
 7120WAT      O21601   0.959   3.269   5.618
 7120WAT     H121602   0.967   3.328   5.537
 7120WAT     H221603   0.982   3.175   5.593
 7121WAT      O21604   3.542   3.040   8.373
 7121WAT     H121605   3.469   3.015   8.436
 7121WAT     H221606   3.535   3.137   8.350
 7122WAT      O21607   0.875   1.787   9.759
 7122WAT     H121608   0.891   1.878   9.721
 7122WAT     H221609   0.840   1.726   9.688
 7123WAT      O21610   1.652   9.716   8.121
 7123WAT     H121611   1.564   9.703   8.167
 7123WAT     H221612   1.636   9.754   8.030
 7124WAT      O21613   9.364   6.976   6.153
 7124WAT     H121614   9.293   7.041   6.129
 7124WAT     H221615   9.389   6.987   6.249
 7125WAT      O21616   5.696   7.560   2.786
 7125WAT     H121617   5.659   7.524   2.872
 7125WAT     H221618   5.720   7.656   2.797
 7126WAT      O21619   8.365   3.392   4.999
 7126WAT     H121620   8.268   3.374   5.012
 7126WAT     H221621   8.377   3.475   4.944
 7127WAT      O21622   5.455   2.773   8.535
 7127WAT     H121623   5.545   2.811   8.511
 7127WAT     H221624   5.458   2.739   8.629
 7128WAT      O21625   8.079   2.893   5.376
 7128WAT     H121626   8.161   2.911   5.430
 7128WAT     H221627   8.048   2.800   5.392
 7129WAT      O21628   5.776   6.237   9.840
 7129WAT     H121629   5.832   6.186   9.906
 7129WAT     H221630   5.681   6.210   9.849
 7130WAT      O21631   6.065   5.434   1.509
 7130WAT     H121632   6.089   5.507   1.445
 7130WAT     H221633   6.146   5.377   1.525
 7131WAT      O21634   9.299   7.304   6.408
 7131WAT     H121635   9.203   7.311   6.382
 7131WAT     H221636   9.305   7.263   6.499
 7132WAT      O21637   5.576   3.176   5.002
 7132WAT     H121638   5.596   3.214   5.092
 7132WAT     H221639   5.514   3.098   5.012
 7133WAT      O21640   0.236   4.524   3.025
 7133WAT     H121641   0.166   4.522   3.096
 7133WAT     H221642   0.196   4.559   2.940
 7134WAT      O21643   7.133   5.483   1.873
 7134WAT     H121644   7.216   5.515   1.918
 7134WAT     H221645   7.152   5.464   1.777
 7135WAT      O21646   4.573   0.527   1.164
 7135WAT     H121647   4.558   0.472   1.082
 7135WAT     H221648   4.486   0.569   1.193
 7136WAT      O21649   3.121   0.305   8.197
 7136WAT     H121650   3.167   0.299   8.109
 7136WAT     H221651   3.057   0.382   8.196
 7137WAT      O21652   0.720   4.087   8.656
 7137WAT     H121653   0.818   4.093   8.635
 7137WAT     H221654   0.672   4.164   8.614
 7138WAT      O21655   8.599   1.763   4.840
 7138WAT     H121656   8.599   1.741   4.937
 7138WAT     H221657   8.505   1.763   4.805
 7139WAT      O21658   9.865   0.924   6.033
 7139WAT     H121659   9.867   0.974   6.120
 7139WAT     H221660   9.906   0.980   5.961
 7140WAT      O21661   9.615   5.757   4.630
 7140WAT     H121662   9.587   5.664   4.608
 7140WAT     H221663   9.700   5.778   4.583
 7141WAT      O21664   4.996   5.775   8.331
 7141WAT     H121665   4.954   5.847   8.386
 7141WAT     H221666   4.931   5.701   8.318
 7142WAT      O21667   7.008   4.913   7.262
 7142WAT     H121668   7.041   4.931   7.170
 7142WAT     H221669   7.084   4.918   7.326
 7143WAT      O21670   1.292   1.712   0.684
 7143WAT     H121671   1.272   1.752   0.595
 7143WAT     H221672   1.312   1.785   0.750
 7144WAT      O21673   0.474   3.881   0.360
 7144WAT     H121674   0.571   3.883   0.385
 7144WAT     H221675   0.420   3.927   0.430
 7145WAT      O21676   8.497   8.608   8.661
 7145WAT     H121677   8.453   8.547   8.595
 7145WAT     H221678   8.435   8.624   8.738
 7146WAT      O21679   6.627   7.012   4.193
 7146WAT     H121680   6.671   6.931   4.233
 7146WAT     H221681   6.646   7.015   4.095
 7147WAT      O21682   8.826   8.642   8.329
 7147WAT     H121683   8.808   8.591   8.245
 7147WAT     H221684   8.767   8.722   8.332
 7148WAT      O21685   7.205   5.970   8.472
 7148WAT     H121686   7.236   6.028   8.548
 7148WAT     H221687   7.277   5.904   8.449
 7149WAT      O21688   6.947   8.174   6.368
 7149WAT     H121689   6.897   8.183   6.454
 7149WAT     H221690   7.025   8.112   6.382
 7150WAT      O21691   1.531   8.495   4.259
 7150WAT     H121692   1.552   8.538   4.347
 7150WAT     H221693   1.613   8.450   4.224
 7151WAT      O21694   0.058   6.741   1.324
 7151WAT     H121695   0.057   6.795   1.240
 7151WAT     H221696  -0.034   6.741   1.365
 7152WAT      O21697   8.808   1.820   8.467
 7152WAT     H121698   8.820   1.819   8.367
 7152WAT     H221699   8.717   1.855   8.489
 7153WAT      O21700   3.778   0.110   5.837
 7153WAT     H121701   3.716   0.064   5.772
 7153WAT     H221702   3.777   0.061   5.924
 7154WAT      O21703   1.490   8.435   4.966
 7154WAT     H121704   1.577   8.436   4.917
 7154WAT     H221705   1.438   8.354   4.940
 7155WAT      O21706   6.165   2.794   9.747
 7155WAT     H121707   6.220   2.757   9.822
 7155WAT     H221708   6.188   2.890   9.733
 7156WAT      O21709   1.929   8.838   2.124
 7156WAT     H121710   2.005   8.863   2.064
 7156WAT     H221711   1.903   8.916   2.180
 7157WAT      O21712   3.329   2.554   7.633
 7157WAT     H121713   3.289   2.483   7.575
 7157WAT     H221714   3.258   2.618   7.662
 7158WAT      O21715   6.624   2.447   2.186
 7158WAT     H121716   6.606   2.522   2.123
 7158WAT     H221717   6.570   2.460   2.269
 7159WAT      O21718   8.809   5.516   3.902
 7159WAT     H121719   8.876   5.580   3.865
 7159WAT     H221720   8.855   5.452   3.964
 7160WAT      O21721   7.542   4.930   8.431
 7160WAT     H121722   7.523   5.024   8.404
 7160WAT     H221723   7.463   4.872   8.407
 7161WAT      O21724   0.306   2.864   5.671
 7161WAT     H121725   0.400   2.895   5.663
 7161WAT     H221726   0.296   2.776   5.625
 7162WAT      O21727   0.059   2.217   8.338
 7162WAT     H121728  -0.033   2.239   8.371
 7162WAT     H221729   0.123   2.286   8.371
 7163WAT      O21730   8.152   5.586   1.529
 7163WAT     H121731   8.064   5.540   1.540
 7163WAT     H221732   8.206   5.574   1.612
 7164WAT      O21733   7.857   6.707   5.307
 7164WAT     H121734   7.873   6.784   5.245
 7164WAT     H221735   7.935   6.645   5.304
 7165WAT      O21736   5.339   7.147   4.302
 7165WAT     H121737   5.377   7.182   4.387
 7165WAT     H221738   5.411   7.105   4.247
 7166WAT      O21739   1.797   1.070   2.478
 7166WAT     H121740   1.790   1.007   2.401
 7166WAT     H221741   1.884   1.056   2.525
 7167WAT      O21742   3.993   3.007   4.425
 7167WAT     H121743   4.016   3.062   4.505
 7167WAT     H221744   4.060   2.934   4.413
 7168WAT      O21745   2.138   8.513   4.490
 7168WAT     H121746   2.179   8.592   4.444
 7168WAT     H221747   2.101   8.449   4.422
 7169WAT      O21748   7.165   5.416   1.618
 7169WAT     H121749   7.230   5.471   1.566
 7169WAT     H221750   7.129   5.343   1.559
 7170WAT      O21751   4.377   1.321   7.013
 7170WAT     H121752   4.364   1.411   7.054
 7170WAT     H221753   4.288   1.274   7.005
 7171WAT      O21754   9.735   2.854   8.955
 7171WAT     H121755   9.735   2.780   9.022
 7171WAT     H221756   9.824   2.899   8.955
 7172WAT      O21757   6.029   8.570   9.181
 7172WAT     H121758   5.989   8.479   9.168
 7172WAT     H221759   5.998   8.608   9.268
 7173WAT      O21760   5.934   8.881   2.882
 7173WAT     H121761   5.959   8.786   2.870
 7173WAT     H221762   5.906   8.921   2.795
 7174WAT      O21763   2.943   1.437   4.764
 7174WAT     H121764   3.023   1.472   4.716
 7174WAT     H221765   2.937   1.338   4.753
 7175WAT      O21766   8.528   5.400   7.032
 7175WAT     H121767   8.515   5.301   7.021
 7175WAT     H221768   8.602   5.431   6.972
 7176WAT      O21769   1.146   8.675   9.090
 7176WAT     H121770   1.168   8.710   9.181
 7176WAT     H221771   1.133   8.576   9.094
 7177WAT      O21772   1.577   9.095   4.353
 7177WAT     H121773   1.498   9.153   4.370
 7177WAT     H221774   1.561   9.004   4.391
 7178WAT      O21775   0.535   2.233   9.554
 7178WAT     H121776   0.459   2.297   9.544
 7178WAT     H221777   0.532   2.166   9.481
 7179WAT      O21778   3.670   0.072   0.715
 7179WAT     H121779   3.639  -0.021   0.734
 7179WAT     H221780   3.593   0.135   0.725
 7180WAT      O21781   7.802   8.361   4.792
 7180WAT     H121782   7.803   8.456   4.822
 7180WAT     H221783   7.781   8.302   4.870
 7181WAT      O21784   1.271   4.599   0.127
 7181WAT     H121785   1.280   4.568   0.222
 7181WAT     H221786   1.312   4.690   0.118
 7182WAT      O21787   8.922   1.178   1.700
 7182WAT     H121788   8.929   1.179   1.800
 7182WAT     H221789   8.978   1.252   1.663
 7183WAT      O21790   5.859   3.512   6.684
 7183WAT     H121791   5.813   3.446   6.624
 7183WAT     H221792   5.958   3.503   6.672
 7184WAT      O21793   4.213   8.328   6.060
 7184WAT     H121794   4.182   8.244   6.015
 7184WAT     H221795   4.146   8.400   6.046
 7185WAT      O21796   9.473   9.527   1.386
 7185WAT     H121797   9.494   9.430   1.379
 7185WAT     H221798   9.375   9.539   1.404
 7186WAT      O21799   7.130   8.994   3.647
 7186WAT     H121800   7.098   9.053   3.722
 7186WAT     H221801   7.051   8.960   3.596
 7187WAT      O21802   1.348   2.953   3.912
 7187WAT     H121803   1.348   2.910   4.002
 7187WAT     H221804   1.436   2.997   3.896
 7188WAT      O21805   9.703   1.792   6.665
 7188WAT     H121806   9.638   1.719   6.685
 7188WAT     H221807   9.659   1.881   6.681
 7189WAT      O21808   7.782   2.052   5.601
 7189WAT     H121809   7.692   2.052   5.643
 7189WAT     H221810   7.815   1.958   5.593
 7190WAT      O21811   3.272   8.816   3.206
 7190WAT     H121812   3.368   8.805   3.233
 7190WAT     H221813   3.267   8.822   3.106
 7191WAT      O21814   0.491   1.995   1.586
 7191WAT     H121815   0.494   2.094   1.569
 7191WAT     H221816   0.569   1.951   1.541
 7192WAT      O21817   5.139   1.968   9.668
 7192WAT     H121818   5.155   2.015   9.582
 7192WAT     H221819   5.180   1.877   9.664
 7193WAT      O21820   6.657   1.196   3.153
 7193WAT     H121821   6.747   1.231   3.180
 7193WAT     H221822   6.591   1.213   3.226
 7194WAT      O21823   0.384   7.340   3.276
 7194WAT     H121824   0.378   7.248   3.236
 7194WAT     H221825   0.409   7.405   3.205
 7195WAT      O21826   6.936   2.029   8.228
 7195WAT     H121827   6.942   2.049   8.326
 7195WAT     H221828   6.992   2.094   8.178
 7196WAT      O21829   1.188   7.003   4.344
 7196WAT     H121830   1.175   7.096   4.379
 7196WAT     H221831   1.178   7.004   4.244
 7197WAT      O21832   5.858   2.013   5.417
 7197WAT     H121833   5.783   1.950   5.403
 7197WAT     H221834   5.921   1.976   5.486
 7198WAT      O21835   6.279   2.559   7.888
 7198WAT     H121836   6.290   2.629   7.817
 7198WAT     H221837   6.251   2.602   7.974
 7199WAT      O21838   1.281   2.604   9.643
 7199WAT     H121839   1.320   2.656   9.568
 7199WAT     H221840   1.308   2.508   9.636
 7200WAT      O21841   3.132   3.550   4.106
 7200WAT     H121842   3.187   3.538   4.188
 7200WAT     H221843   3.178   3.613   4.043
 7201WAT      O21844   4.950   6.424   8.790
 7201WAT     H121845   5.026   6.419   8.855
 7201WAT     H221846   4.939   6.336   8.745
 7202WAT      O21847   4.844   9.809   9.591
 7202WAT     H121848   4.911   9.763   9.532
 7202WAT     H221849   4.842   9.764   9.680
 7203WAT      O21850   5.084   9.148   8.776
 7203WAT     H121851   5.015   9.097   8.825
 7203WAT     H221852   5.146   9.192   8.841
 7204WAT      O21853   7.261   9.636   8.431
 7204WAT     H121854   7.205   9.689   8.367
 7204WAT     H221855   7.327   9.697   8.475
 7205WAT      O21856   2.207   5.765   1.401
 7205WAT     H121857   2.292   5.805   1.366
 7205WAT     H221858   2.183   5.685   1.345
 7206WAT      O21859   6.481   3.316   8.907
 7206WAT     H121860   6.510   3.276   8.821
 7206WAT     H221861   6.401   3.375   8.891
 7207WAT      O21862   4.714   7.400   8.486
 7207WAT     H121863   4.625   7.354   8.488
 7207WAT     H221864   4.764   7.379   8.570
 7208WAT      O21865   9.549   4.589   5.237
 7208WAT     H121866   9.477   4.523   5.255
 7208WAT     H221867   9.522   4.649   5.162
 7209WAT      O21868   4.456   6.322   5.521
 7209WAT     H121869   4.436   6.416   5.551
 7209WAT     H221870   4.554   6.304   5.530
 7210WAT      O21871   1.269   8.829   5.095
 7210WAT     H121872   1.268   8.927   5.076
 7210WAT     H221873   1.177   8.799   5.121
 7211WAT      O21874   5.642   3.616   1.369
 7211WAT     H121875   5.651   3.708   1.406
 7211WAT     H221876   5.556   3.609   1.318
 7212WAT      O21877   7.292   1.878   2.403
 7212WAT     H121878   7.196   1.851   2.413
 7212WAT     H221879   7.313   1.952   2.468
 7213WAT      O21880   3.775   2.514   7.051
 7213WAT     H121881   3.684   2.552   7.065
 7213WAT     H221882   3.825   2.568   6.983
 7214WAT      O21883   9.220   8.257   5.428
 7214WAT     H121884   9.247   8.186   5.363
 7214WAT     H221885   9.173   8.330   5.380
 7215WAT      O21886   5.233   5.178   3.358
 7215WAT     H121887   5.153   5.237   3.342
 7215WAT     H221888   5.307   5.233   3.398
 7216WAT      O21889   0.347   2.309   2.212
 7216WAT     H121890   0.259   2.284   2.171
 7216WAT     H221891   0.421   2.290   2.147
 7217WAT      O21892   8.979   1.511   7.640
 7217WAT     H121893   9.007   1.549   7.552
 7217WAT     H221894   9.049   1.447   7.672
 7218WAT      O21895   7.497   8.243   0.605
 7218WAT     H121896   7.454   8.162   0.643
 7218WAT     H221897   7.595   8.226   0.591
 7219WAT      O21898   2.348   6.324   3.540
 7219WAT     H121899   2.256   6.292   3.562
 7219WAT     H221900   2.413   6.286   3.605
 7220WAT      O21901   5.068   7.476   4.584
 7220WAT     H121902   5.149   7.513   4.629
 7220WAT     H221903   5.081   7.478   4.485
 7221WAT      O21904   6.939   9.406   8.878
 7221WAT     H121905   7.000   9.343   8.925
 7221WAT     H221906   6.951   9.498   8.913
 7222WAT      O21907   0.472   4.549   4.599
 7222WAT     H121908   0.489   4.607   4.518
 7222WAT     H221909   0.487   4.603   4.682
 7223WAT      O21910   6.451   6.514   4.838
 7223WAT     H121911   6.483   6.596   4.790
 7223WAT     H221912   6.508   6.436   4.813
 7224WAT      O21913   4.614   7.564   3.591
 7224WAT     H121914   4.631   7.576   3.493
 7224WAT     H221915   4.524   7.601   3.614
 7225WAT      O21916   1.301   5.825   7.018
 7225WAT     H121917   1.314   5.924   7.011
 7225WAT     H221918   1.390   5.780   7.025
 7226WAT      O21919   8.388   9.176   7.794
 7226WAT     H121920   8.488   9.181   7.790
 7226WAT     H221921   8.358   9.087   7.760
 7227WAT      O21922   2.691   3.873   2.776
 7227WAT     H121923   2.623   3.800   2.776
 7227WAT     H221924   2.759   3.855   2.848
 7228WAT      O21925   4.614   9.416   1.365
 7228WAT     H121926   4.635   9.512   1.382
 7228WAT     H221927   4.692   9.360   1.389
 7229WAT      O21928   7.337   5.567   7.333
 7229WAT     H121929   7.255   5.522   7.368
 7229WAT     H221930   7.313   5.628   7.258
 7230WAT      O21931   7.915   6.430   3.115
 7230WAT     H121932   7.968   6.492   3.057
 7230WAT     H221933   7.963   6.417   3.201
 7231WAT      O21934   0.010   7.987   5.561
 7231WAT     H121935  -0.002   7.892   5.592
 7231WAT     H221936  -0.032   8.049   5.626
 7232WAT      O21937   2.388   2.751   2.854
 7232WAT     H121938   2.361   2.734   2.759
 7232WAT     H221939   2.466   2.813   2.856
 7233WAT      O21940   2.589   1.475   7.033
 7233WAT     H121941   2.533   1.541   6.984
 7233WAT     H221942   2.563   1.474   7.130
 7234WAT      O21943   4.329   5.953   5.418
 7234WAT     H121944   4.347   5.858   5.391
 7234WAT     H221945   4.329   5.959   5.518
 7235WAT      O21946   0.728   8.350   8.733
 7235WAT     H121947   0.730   8.410   8.812
 7235WAT     H221948   0.821   8.336   8.699
 7236WAT      O21949   0.124   3.483   7.332
 7236WAT     H121950   0.059   3.430   7.386
 7236WAT     H221951   0.076   3.557   7.285
 7237WAT      O21952   0.905   4.594   1.336
 7237WAT     H121953   0.957   4.616   1.419
 7237WAT     H221954   0.878   4.498   1.338
 7238WAT      O21955   6.614   9.551   5.034
 7238WAT     H121956   6.591   9.454   5.037
 7238WAT     H221957   6.581   9.595   5.118
 7239WAT      O21958   6.393   5.181   2.352
 7239WAT     H121959   6.321   5.206   2.417
 7239WAT     H221960   6.390   5.082   2.335
 7240WAT      O21961   3.585   5.664   2.422
 7240WAT     H121962   3.505   5.662   2.362
 7240WAT     H221963   3.659   5.713   2.377
 7241WAT      O21964   6.275   0.426   8.118
 7241WAT     H121965   6.261   0.449   8.214
 7241WAT     H221966   6.190   0.389   8.080
 7242WAT      O21967   7.467   5.947   5.625
 7242WAT     H121968   7.460   5.861   5.676
 7242WAT     H221969   7.500   5.929   5.533
 7243WAT      O21970   9.762   2.798   2.491
 7243WAT     H121971   9.673   2.785   2.535
 7243WAT     H221972   9.782   2.720   2.432
 7244WAT      O21973   9.724   9.158   4.763
 7244WAT     H121974   9.708   9.060   4.747
 7244WAT     H221975   9.822   9.176   4.763
 7245WAT      O21976   6.209   1.644   5.140
 7245WAT     H121977   6.150   1.718   5.109
 7245WAT     H221978   6.156   1.579   5.195
 7246WAT      O21979   2.900   6.328   8.449
 7246WAT     H121980   2.973   6.275   8.495
 7246WAT     H221981   2.820   6.269   8.438
 7247WAT      O21982   6.627   0.433   4.063
 7247WAT     H121983   6.606   0.386   3.977
 7247WAT     H221984   6.558   0.502   4.082
 7248WAT      O21985   7.525   1.482   4.156
 7248WAT     H121986   7.568   1.563   4.115
 7248WAT     H221987   7.513   1.412   4.086
 7249WAT      O21988   2.450   5.190   3.248
 7249WAT     H121989   2.506   5.186   3.165
 7249WAT     H221990   2.368   5.134   3.235
 7250WAT      O21991   3.556   4.683   3.409
 7250WAT     H121992   3.575   4.781   3.409
 7250WAT     H221993   3.504   4.659   3.327
 7251WAT      O21994   3.837   1.070   2.547
 7251WAT     H121995   3.937   1.065   2.551
 7251WAT     H221996   3.798   0.996   2.602
 7252WAT      O21997   3.321   4.112   2.379
 7252WAT     H121998   3.307   4.211   2.369
 7252WAT     H221999   3.271   4.064   2.308
 7253WAT      O22000   9.045   8.661   2.293
 7253WAT     H122001   8.995   8.599   2.353
 7253WAT     H222002   8.988   8.740   2.270
 7254WAT      O22003   2.838   0.725   2.508
 7254WAT     H122004   2.914   0.788   2.525
 7254WAT     H222005   2.869   0.631   2.517
 7255WAT      O22006   1.812   2.162   4.039
 7255WAT     H122007   1.769   2.169   3.949
 7255WAT     H222008   1.901   2.207   4.037
 7256WAT      O22009   2.586   2.627   1.359
 7256WAT     H122010   2.534   2.592   1.281
 7256WAT     H222011   2.665   2.568   1.375
 7257WAT      O22012   5.768   4.562   1.281
 7257WAT     H122013   5.696   4.564   1.211
 7257WAT     H222014   5.809   4.653   1.289
 7258WAT      O22015   3.180   5.182   5.598
 7258WAT     H122016   3.103   5.178   5.535
 7258WAT     H222017   3.213   5.090   5.617
 7259WAT      O22018   0.084   7.773   6.924
 7259WAT     H122019   0.102   7.701   6.857
 7259WAT     H222020   0.023   7.738   6.995
 7260WAT      O22021   4.790   5.740   6.278
 7260WAT     H122022   4.884   5.716   6.300
 7260WAT     H222023   4.772   5.720   6.182
 7261WAT      O22024   3.914   9.025   4.542
 7261WAT     H122025   3.836   9.016   4.479
 7261WAT     H222026   3.883   9.009   4.635
 7262WAT      O22027   3.236   7.072   1.786
 7262WAT     H122028   3.152   7.076   1.838
 7262WAT     H222029   3.245   7.155   1.730
 7263WAT      O22030   3.130   0.321   0.616
 7263WAT     H122031   3.201   0.251   0.624
 7263WAT     H222032   3.067   0.297   0.541
 7264WAT      O22033   7.958   7.546   8.659
 7264WAT     H122034   7.930   7.481   8.730
 7264WAT     H222035   7.962   7.638   8.698
 7265WAT      O22036   1.693   3.980   6.333
 7265WAT     H122037   1.626   4.021   6.271
 7265WAT     H222038   1.649   3.957   6.420
 7266WAT      O22039   8.043   2.942   6.522
 7266WAT     H122040   8.090   2.873   6.578
 7266WAT     H222041   8.109   3.013   6.496
 7267WAT      O22042   5.253   9.553   0.640
 7267WAT     H122043   5.305   9.621   0.588
 7267WAT     H222044   5.285   9.552   0.735
 7268WAT      O22045   3.710   2.987   4.442
 7268WAT     H122046   3.809   2.978   4.454
 7268WAT     H222047   3.675   3.056   4.506
 7269WAT      O22048   0.775   7.872   7.027
 7269WAT     H122049   0.741   7.825   7.109
 7269WAT     H222050   0.784   7.807   6.952
 7270WAT      O22051   0.637   0.862   3.545
 7270WAT     H122052   0.588   0.837   3.461
 7270WAT     H222053   0.713   0.923   3.523
 7271WAT      O22054   5.593   4.235   8.420
 7271WAT     H122055   5.625   4.318   8.373
 7271WAT     H222056   5.508   4.204   8.378
 7272WAT      O22057   0.419   5.172   6.541
 7272WAT     H122058   0.365   5.255   6.528
 7272WAT     H222059   0.513   5.198   6.565
 7273WAT      O22060   9.050   2.787   2.325
 7273WAT     H122061   8.998   2.720   2.378
 7273WAT     H222062   9.022   2.879   2.352
 7274WAT      O22063   6.188   4.319   1.107
 7274WAT     H122064   6.116   4.328   1.176
 7274WAT     H222065   6.170   4.384   1.032
 7275WAT      O22066   0.156   0.304   7.017
 7275WAT     H122067   0.162   0.363   6.937
 7275WAT     H222068   0.190   0.213   6.994
 7276WAT      O22069   0.536   2.996   5.585
 7276WAT     H122070   0.588   3.080   5.600
 7276WAT     H222071   0.497   2.997   5.493
 7277WAT      O22072   0.669   4.434   1.534
 7277WAT     H122073   0.606   4.492   1.481
 7277WAT     H222074   0.733   4.389   1.472
 7278WAT      O22075   3.017   3.131   8.008
 7278WAT     H122076   3.093   3.187   8.040
 7278WAT     H222077   3.037   3.098   7.915
 7279WAT      O22078   5.138   9.158   8.341
 7279WAT     H122079   5.080   9.225   8.295
 7279WAT     H222080   5.091   9.070   8.346
 7280WAT      O22081   1.986   0.285   2.045
 7280WAT     H122082   1.894   0.286   2.006
 7280WAT     H222083   1.994   0.356   2.115
 7281WAT      O22084   4.646   8.795   9.130
 7281WAT     H122085   4.626   8.890   9.157
 7281WAT     H222086   4.578   8.764   9.064
 7282WAT      O22087   8.092   8.062   4.524
 7282WAT     H122088   8.122   8.106   4.439
 7282WAT     H222089   7.993   8.048   4.521
 7283WAT      O22090   7.593   6.023   2.675
 7283WAT     H122091   7.498   5.999   2.697
 7283WAT     H222092   7.595   6.108   2.623
 7284WAT      O22093   4.756   7.693   6.991
 7284WAT     H122094   4.675   7.652   6.948
 7284WAT     H222095   4.784   7.774   6.939
 7285WAT      O22096   7.625   3.263   4.949
 7285WAT     H122097   7.638   3.199   5.025
 7285WAT     H222098   7.533   3.303   4.954
 7286WAT      O22099   1.933   4.748   2.173
 7286WAT     H122100   1.908   4.656   2.142
 7286WAT     H222101   1.999   4.788   2.110
 7287WAT      O22102   1.802   9.045   8.268
 7287WAT     H122103   1.750   9.036   8.183
 7287WAT     H222104   1.819   8.955   8.307
 7288WAT      O22105   7.232   1.025   1.749
 7288WAT     H122106   7.223   1.044   1.846
 7288WAT     H222107   7.312   0.966   1.734
 7289WAT      O22108   4.502   1.464   7.269
 7289WAT     H122109   4.449   1.407   7.332
 7289WAT     H222110   4.515   1.415   7.183
 7290WAT      O22111   3.656   9.178   9.801
 7290WAT     H122112   3.731   9.237   9.773
 7290WAT     H222113   3.596   9.161   9.723
 7291WAT      O22114   1.976   6.719   4.404
 7291WAT     H122115   1.940   6.648   4.464
 7291WAT     H222116   2.068   6.745   4.434
 7292WAT      O22117   4.509   3.242   6.718
 7292WAT     H122118   4.525   3.144   6.709
 7292WAT     H222119   4.438   3.259   6.787
 7293WAT      O22120   7.223   5.739   8.926
 7293WAT     H122121   7.125   5.740   8.945
 7293WAT     H222122   7.266   5.666   8.979
 7294WAT      O22123   7.425   5.693   5.729
 7294WAT     H122124   7.325   5.689   5.722
 7294WAT     H222125   7.463   5.601   5.719
 7295WAT      O22126   2.615   0.807   4.589
 7295WAT     H122127   2.523   0.823   4.553
 7295WAT     H222128   2.646   0.716   4.562
 7296WAT      O22129   8.221   8.402   1.792
 7296WAT     H122130   8.290   8.455   1.743
 7296WAT     H222131   8.201   8.445   1.880
 7297WAT      O22132   3.178   8.535   2.014
 7297WAT     H122133   3.228   8.615   1.980
 7297WAT     H222134   3.159   8.473   1.939
 7298WAT      O22135   3.994   3.045   9.166
 7298WAT     H122136   4.016   2.962   9.217
 7298WAT     H222137   4.042   3.123   9.207
 7299WAT      O22138   6.026   7.500   3.934
 7299WAT     H122139   6.090   7.558   3.986
 7299WAT     H222140   5.997   7.549   3.852
 7300WAT      O22141   9.459   1.471   7.357
 7300WAT     H122142   9.369   1.446   7.320
 7300WAT     H222143   9.453   1.559   7.403
 7301WAT      O22144   7.049   3.312   7.896
 7301WAT     H122145   7.139   3.269   7.900
 7301WAT     H222146   7.005   3.307   7.985
 7302WAT      O22147   4.261   3.976   1.861
 7302WAT     H122148   4.272   3.911   1.786
 7302WAT     H222149   4.350   4.017   1.883
 7303WAT      O22150   1.796   9.446   2.124
 7303WAT     H122151   1.736   9.471   2.047
 7303WAT     H222152   1.798   9.522   2.189
 7304WAT      O22153   7.691   2.068   6.507
 7304WAT     H122154   7.677   2.154   6.458
 7304WAT     H222155   7.709   1.995   6.441
 7305WAT      O22156   1.076   2.217   3.671
 7305WAT     H122157   1.101   2.240   3.577
 7305WAT     H222158   1.159   2.206   3.725
 7306WAT      O22159   0.235   7.570   6.423
 7306WAT     H122160   0.170   7.496   6.408
 7306WAT     H222161   0.328   7.538   6.407
 7307WAT      O22162   6.367   9.748   8.218
 7307WAT     H122163   6.379   9.846   8.199
 7307WAT     H222164   6.418   9.724   8.300
 7308WAT      O22165   8.322   9.296   2.052
 7308WAT     H122166   8.368   9.275   1.966
 7308WAT     H222167   8.375   9.260   2.128
 7309WAT      O22168   7.819   1.842   0.478
 7309WAT     H122169   7.838   1.905   0.403
 7309WAT     H222170   7.896   1.842   0.542
 7310WAT      O22171   3.475   7.164   0.249
 7310WAT     H122172   3.504   7.072   0.221
 7310WAT     H222173   3.550   7.210   0.296
 7311WAT      O22174   5.345   4.650   7.874
 7311WAT     H122175   5.365   4.555   7.851
 7311WAT     H222176   5.408   4.680   7.946
 7312WAT      O22177   1.128   9.545   2.316
 7312WAT     H122178   1.221   9.557   2.280
 7312WAT     H222179   1.063   9.540   2.240
 7313WAT      O22180   5.443   1.347   8.603
 7313WAT     H122181   5.402   1.295   8.677
 7313WAT     H222182   5.391   1.331   8.519
 7314WAT      O22183   5.490   0.171   2.741
 7314WAT     H122184   5.436   0.106   2.795
 7314WAT     H222185   5.443   0.259   2.739
 7315WAT      O22186   9.489   9.519   8.721
 7315WAT     H122187   9.501   9.583   8.645
 7315WAT     H222188   9.479   9.571   8.806
 7316WAT      O22189   7.054   9.118   9.026
 7316WAT     H122190   7.127   9.173   8.985
 7316WAT     H222191   7.088   9.076   9.111
 7317WAT      O22192   1.509   1.208   3.514
 7317WAT     H122193   1.500   1.199   3.613
 7317WAT     H222194   1.418   1.220   3.474
 7318WAT      O22195   0.428   9.325   2.411
 7318WAT     H122196   0.428   9.268   2.493
 7318WAT     H222197   0.377   9.279   2.338
 7319WAT      O22198   4.840   6.099   1.927
 7319WAT     H122199   4.760   6.063   1.975
 7319WAT     H222200   4.860   6.042   1.848
 7320WAT      O22201   8.661   6.833   5.839
 7320WAT     H122202   8.637   6.816   5.744
 7320WAT     H222203   8.754   6.869   5.844
 7321WAT      O22204   2.970   1.631   9.434
 7321WAT     H122205   3.019   1.582   9.506
 7321WAT     H222206   2.996   1.594   9.345
 7322WAT      O22207   2.560   3.089   5.966
 7322WAT     H122208   2.570   3.186   5.944
 7322WAT     H222209   2.650   3.047   5.975
 7323WAT      O22210   8.002   0.519   2.800
 7323WAT     H122211   8.070   0.550   2.867
 7323WAT     H222212   7.960   0.599   2.757
 7324WAT      O22213   7.562   3.873   1.573
 7324WAT     H122214   7.468   3.886   1.606
 7324WAT     H222215   7.562   3.808   1.497
 7325WAT      O22216   2.790   3.626   1.747
 7325WAT     H122217   2.720   3.696   1.735
 7325WAT     H222218   2.862   3.639   1.679
 7326WAT      O22219   7.618   7.857   4.713
 7326WAT     H122220   7.666   7.773   4.739
 7326WAT     H222221   7.664   7.936   4.755
 7327WAT      O22222   1.665   6.467   7.790
 7327WAT     H122223   1.577   6.489   7.747
 7327WAT     H222224   1.716   6.404   7.732
 7328WAT      O22225   5.677   9.082   4.531
 7328WAT     H122226   5.680   9.047   4.437
 7328WAT     H222227   5.585   9.114   4.551
 7329WAT      O22228   0.734   7.148   2.673
 7329WAT     H122229   0.796   7.199   2.734
 7329WAT     H222230   0.670   7.211   2.630
 7330WAT      O22231   7.518   0.673   2.039
 7330WAT     H122232   7.445   0.644   1.977
 7330WAT     H222233   7.491   0.757   2.085
 7331WAT      O22234   0.054   6.313   6.664
 7331WAT     H122235   0.134   6.254   6.680
 7331WAT     H222236  -0.013   6.264   6.609
 7332WAT      O22237   9.689   9.153   2.835
 7332WAT     H122238   9.596   9.180   2.810
 7332WAT     H222239   9.722   9.084   2.770
 7333WAT      O22240   1.028   7.101   2.183
 7333WAT     H122241   1.093   7.168   2.218
 7333WAT     H222242   1.078   7.029   2.134
 7334WAT      O22243   5.380   8.360   0.393
 7334WAT     H122244   5.421   8.329   0.479
 7334WAT     H222245   5.452   8.385   0.328
 7335WAT      O22246   2.379   9.678   8.586
 7335WAT     H122247   2.423   9.593   8.615
 7335WAT     H222248   2.284   9.660   8.560
 7336WAT      O22249   9.488   3.949   2.394
 7336WAT     H122250   9.449   3.972   2.483
 7336WAT     H222251   9.419   3.907   2.337
 7337WAT      O22252   0.960   6.198   5.254
 7337WAT     H122253   0.992   6.130   5.188
 7337WAT     H222254   0.946   6.155   5.343
 7338WAT      O22255   6.478   0.013   7.766
 7338WAT     H122256   6.429  -0.020   7.685
 7338WAT     H222257   6.513  -0.066   7.817
 7339WAT      O22258   3.593   3.970   0.558
 7339WAT     H122259   3.561   3.885   0.515
 7339WAT     H222260   3.693   3.970   0.563
 7340WAT      O22261   8.799   2.242   8.349
 7340WAT     H122262   8.855   2.321   8.323
 7340WAT     H222263   8.857   2.173   8.393
 7341WAT      O22264   4.100   8.646   1.258
 7341WAT     H122265   4.098   8.619   1.162
 7341WAT     H222266   4.195   8.656   1.288
 7342WAT      O22267   4.541   0.804   1.561
 7342WAT     H122268   4.497   0.851   1.484
 7342WAT     H222269   4.640   0.822   1.559
 7343WAT      O22270   5.636   8.089   6.870
 7343WAT     H122271   5.578   8.057   6.944
 7343WAT     H222272   5.677   8.011   6.823
 7344WAT      O22273   0.787   0.351   1.545
 7344WAT     H122274   0.809   0.322   1.452
 7344WAT     H222275   0.782   0.271   1.605
 7345WAT      O22276   3.936   2.345   7.740
 7345WAT     H122277   3.947   2.418   7.672
 7345WAT     H222278   4.022   2.294   7.748
 7346WAT      O22279   7.724   7.326   0.042
 7346WAT     H122280   7.776   7.242   0.027
 7346WAT     H222281   7.784   7.405   0.031
 7347WAT      O22282   0.464   5.669   2.084
 7347WAT     H122283   0.520   5.709   2.156
 7347WAT     H222284   0.482   5.570   2.080
 7348WAT      O22285   2.359   1.865   9.867
 7348WAT     H122286   2.364   1.767   9.887
 7348WAT     H222287   2.342   1.878   9.769
 7349WAT      O22288   5.575   9.074   8.263
 7349WAT     H122289   5.521   9.039   8.340
 7349WAT     H222290   5.632   9.000   8.227
 7350WAT      O22291   2.824   8.732   5.460
 7350WAT     H122292   2.846   8.727   5.558
 7350WAT     H222293   2.736   8.688   5.444
 7351WAT      O22294   5.697   9.364   0.775
 7351WAT     H122295   5.778   9.395   0.726
 7351WAT     H222296   5.650   9.442   0.816
 7352WAT      O22297   7.006   1.159   9.801
 7352WAT     H122298   7.101   1.142   9.825
 7352WAT     H222299   6.958   1.071   9.791
 7353WAT      O22300   5.259   4.683   8.562
 7353WAT     H122301   5.204   4.748   8.614
 7353WAT     H222302   5.305   4.730   8.487
 7354WAT      O22303   6.287   2.744   7.716
 7354WAT     H122304   6.343   2.704   7.644
 7354WAT     H222305   6.242   2.827   7.681
 7355WAT      O22306   3.822   2.704   6.685
 7355WAT     H122307   3.849   2.734   6.594
 7355WAT     H222308   3.755   2.767   6.723
 7356WAT      O22309   2.769   8.162   5.010
 7356WAT     H122310   2.844   8.113   4.966
 7356WAT     H222311   2.725   8.103   5.078
 7357WAT      O22312   2.705   5.795   5.802
 7357WAT     H122313   2.616   5.749   5.796
 7357WAT     H222314   2.775   5.728   5.828
 7358WAT      O22315   6.444   0.187   7.410
 7358WAT     H122316   6.518   0.166   7.475
 7358WAT     H222317   6.437   0.286   7.398
 7359WAT      O22318   5.205   5.142   9.287
 7359WAT     H122319   5.296   5.179   9.305
 7359WAT     H222320   5.141   5.218   9.272
 7360WAT      O22321   4.757   9.482   4.250
 7360WAT     H122322   4.737   9.484   4.348
 7360WAT     H222323   4.852   9.509   4.235
 7361WAT      O22324   1.263   6.801   7.575
 7361WAT     H122325   1.329   6.859   7.528
 7361WAT     H222326   1.188   6.857   7.611
 7362WAT      O22327   9.437   9.353   3.610
 7362WAT     H122328   9.473   9.446   3.620
 7362WAT     H222329   9.345   9.357   3.570
 7363WAT      O22330   3.284   0.795   5.696
 7363WAT     H122331   3.235   0.848   5.627
 7363WAT     H222332   3.379   0.824   5.699
 7364WAT      O22333   2.888   9.536   9.241
 7364WAT     H122334   2.874   9.631   9.268
 7364WAT     H222335   2.806   9.501   9.196
 7365WAT      O22336   0.185   9.629   1.943
 7365WAT     H122337   0.085   9.628   1.951
 7365WAT     H222338   0.224   9.675   2.022
 7366WAT      O22339   9.259   4.774   7.331
 7366WAT     H122340   9.327   4.841   7.300
 7366WAT     H222341   9.251   4.701   7.263
 7367WAT      O22342   4.419   1.823   8.613
 7367WAT     H122343   4.340   1.868   8.655
 7367WAT     H222344   4.396   1.799   8.518
 7368WAT      O22345   8.781   6.278   7.605
 7368WAT     H122346   8.774   6.232   7.694
 7368WAT     H222347   8.725   6.231   7.538
 7369WAT      O22348   7.742   5.558   3.678
 7369WAT     H122349   7.753   5.578   3.775
 7369WAT     H222350   7.795   5.476   3.655
 7370WAT      O22351   3.453   2.755   0.787
 7370WAT     H122352   3.491   2.818   0.855
 7370WAT     H222353   3.397   2.805   0.722
 7371WAT      O22354   9.438   0.405   3.247
 7371WAT     H122355   9.464   0.439   3.337
 7371WAT     H222356   9.345   0.370   3.250
 7372WAT      O22357   7.899   6.614   8.627
 7372WAT     H122358   7.966   6.619   8.553
 7372WAT     H222359   7.878   6.518   8.647
 7373WAT      O22360   7.195   2.132   0.609
 7373WAT     H122361   7.159   2.152   0.519
 7373WAT     H222362   7.247   2.046   0.606
 7374WAT      O22363   8.270   2.745   3.625
 7374WAT     H122364   8.290   2.798   3.543
 7374WAT     H222365   8.254   2.649   3.600
 7375WAT      O22366   2.822   3.445   0.371
 7375WAT     H122367   2.883   3.469   0.295
 7375WAT     H222368   2.743   3.395   0.336
 7376WAT      O22369   9.141   6.899   6.951
 7376WAT     H122370   9.199   6.897   7.033
 7376WAT     H222371   9.139   6.809   6.908
 7377WAT      O22372   4.253   9.145   4.282
 7377WAT     H122373   4.326   9.080   4.302
 7377WAT     H222374   4.236   9.201   4.363
 7378WAT      O22375   3.022   8.025   0.224
 7378WAT     H122376   3.069   8.010   0.311
 7378WAT     H222377   3.079   8.084   0.166
 7379WAT      O22378   9.396   6.198   3.994
 7379WAT     H122379   9.478   6.237   3.952
 7379WAT     H222380   9.317   6.217   3.935
 7380WAT      O22381   2.441   4.424   9.383
 7380WAT     H122382   2.403   4.506   9.342
 7380WAT     H222383   2.455   4.354   9.313
 7381WAT      O22384   4.232   4.074   3.176
 7381WAT     H122385   4.285   3.996   3.208
 7381WAT     H222386   4.232   4.146   3.245
 7382WAT      O22387   6.894   3.094   3.335
 7382WAT     H122388   6.931   3.085   3.242
 7382WAT     H222389   6.904   3.188   3.365
 7383WAT      O22390   8.556   5.088   0.778
 7383WAT     H122391   8.581   5.157   0.848
 7383WAT     H222392   8.563   4.997   0.818
 7384WAT      O22393   0.414   3.514   7.002
 7384WAT     H122394   0.379   3.421   7.017
 7384WAT     H222395   0.427   3.559   7.091
 7385WAT      O22396   0.263   5.938   5.772
 7385WAT     H122397   0.296   5.982   5.689
 7385WAT     H222398   0.340   5.920   5.833
 7386WAT      O22399   1.957   0.243   5.297
 7386WAT     H122400   2.054   0.251   5.319
 7386WAT     H222401   1.904   0.305   5.355
 7387WAT      O22402   0.885   5.350   4.979
 7387WAT     H122403   0.889   5.417   5.053
 7387WAT     H222404   0.974   5.346   4.933
 7388WAT      O22405   7.152   8.145   6.006
 7388WAT     H122406   7.093   8.068   5.980
 7388WAT     H222407   7.231   8.147   5.945
 7389WAT      O22408   5.878   4.304   6.621
 7389WAT     H122409   5.905   4.365   6.545
 7389WAT     H222410   5.821   4.230   6.585
 7390WAT      O22411   2.461   5.973   6.804
 7390WAT     H122412   2.517   5.939   6.880
 7390WAT     H222413   2.442   6.070   6.818
 7391WAT      O22414   8.767   7.790   2.712
 7391WAT     H122415   8.725   7.699   2.717
 7391WAT     H222416   8.840   7.796   2.780
 7392WAT      O22417   9.382   3.391   4.898
 7392WAT     H122418   9.305   3.339   4.860
 7392WAT     H222419   9.435   3.430   4.823
 7393WAT      O22420   2.808   2.089   1.947
 7393WAT     H122421   2.784   2.170   1.894
 7393WAT     H222422   2.731   2.063   2.006
 7394WAT      O22423   4.620   0.673   6.335
 7394WAT     H122424   4.605   0.594   6.393
 7394WAT     H222425   4.538   0.691   6.280
 7395WAT      O22426   8.880   8.480   1.769
 7395WAT     H122427   8.912   8.465   1.863
 7395WAT     H222428   8.906   8.572   1.740
 7396WAT      O22429   7.496   9.108   6.558
 7396WAT     H122430   7.577   9.099   6.617
 7396WAT     H222431   7.520   9.156   6.475
 7397WAT      O22432   2.774   1.130   4.278
 7397WAT     H122433   2.872   1.134   4.259
 7397WAT     H222434   2.728   1.084   4.202
 7398WAT      O22435   4.687   1.988   1.059
 7398WAT     H122436   4.752   1.928   1.106
 7398WAT     H222437   4.594   1.954   1.073
 7399WAT      O22438   5.170   3.889   5.431
 7399WAT     H122439   5.088   3.933   5.394
 7399WAT     H222440   5.205   3.823   5.364
 7400WAT      O22441   5.045   1.655   8.753
 7400WAT     H122442   5.081   1.593   8.683
 7400WAT     H222443   5.090   1.744   8.745
 7401WAT      O22444   3.504   8.001   6.498
 7401WAT     H122445   3.475   7.911   6.530
 7401WAT     H222446   3.425   8.051   6.461
 7402WAT      O22447   1.296   7.588   4.793
 7402WAT     H122448   1.237   7.639   4.731
 7402WAT     H222449   1.390   7.620   4.784
 7403WAT      O22450   5.340   1.045   0.651
 7403WAT     H122451   5.352   1.106   0.573
 7403WAT     H222452   5.243   1.025   0.664
 7404WAT      O22453   7.939   3.270   0.406
 7404WAT     H122454   7.969   3.362   0.433
 7404WAT     H222455   8.018   3.209   0.403
 7405WAT      O22456   1.138   8.265   6.188
 7405WAT     H122457   1.087   8.226   6.111
 7405WAT     H222458   1.151   8.194   6.258
 7406WAT      O22459   2.264   5.056   7.290
 7406WAT     H122460   2.197   5.008   7.233
 7406WAT     H222461   2.269   5.152   7.262
 7407WAT      O22462   4.765   2.291   8.617
 7407WAT     H122463   4.734   2.249   8.702
 7407WAT     H222464   4.863   2.274   8.605
 7408WAT      O22465   1.049   9.689   9.093
 7408WAT     H122466   0.962   9.642   9.076
 7408WAT     H222467   1.121   9.622   9.105
 7409WAT      O22468   7.037   2.572   7.268
 7409WAT     H122469   6.985   2.607   7.346
 7409WAT     H222470   6.974   2.532   7.201
 7410WAT      O22471   0.589   6.736   7.845
 7410WAT     H122472   0.650   6.658   7.830
 7410WAT     H222473   0.503   6.720   7.796
 7411WAT      O22474   5.703   3.955   3.437
 7411WAT     H122475   5.740   3.899   3.363
 7411WAT     H222476   5.765   4.031   3.455
 7412WAT      O22477   3.900   8.089   2.873
 7412WAT     H122478   3.942   8.180   2.881
 7412WAT     H222479   3.836   8.088   2.796
 7413WAT      O22480   4.209   6.250   2.500
 7413WAT     H122481   4.141   6.321   2.486
 7413WAT     H222482   4.164   6.162   2.514
 7414WAT      O22483   5.359   2.731   2.494
 7414WAT     H122484   5.396   2.720   2.402
 7414WAT     H222485   5.270   2.778   2.488
 7415WAT      O22486   8.476   1.635   9.418
 7415WAT     H122487   8.471   1.649   9.517
 7415WAT     H222488   8.571   1.645   9.388
 7416WAT      O22489   8.780   1.607   4.394
 7416WAT     H122490   8.797   1.695   4.348
 7416WAT     H222491   8.682   1.591   4.400
 7417WAT      O22492   3.401   6.034   7.303
 7417WAT     H122493   3.418   5.958   7.365
 7417WAT     H222494   3.474   6.102   7.312
 7418WAT      O22495   6.752   0.346   0.438
 7418WAT     H122496   6.799   0.409   0.500
 7418WAT     H222497   6.712   0.398   0.362
 7419WAT      O22498   9.094   4.209   2.294
 7419WAT     H122499   9.117   4.145   2.366
 7419WAT     H222500   9.115   4.303   2.323
 7420WAT      O22501   9.368   4.642   5.508
 7420WAT     H122502   9.336   4.603   5.422
 7420WAT     H222503   9.351   4.577   5.582
 7421WAT      O22504   6.433   6.526   1.085
 7421WAT     H122505   6.443   6.531   0.986
 7421WAT     H222506   6.348   6.480   1.108
 7422WAT      O22507   2.208   4.645   5.786
 7422WAT     H122508   2.225   4.741   5.807
 7422WAT     H222509   2.115   4.621   5.811
 7423WAT      O22510   1.588   7.257   3.509
 7423WAT     H122511   1.665   7.265   3.572
 7423WAT     H222512   1.505   7.288   3.553
 7424WAT      O22513   8.263   9.819   6.126
 7424WAT     H122514   8.340   9.818   6.062
 7424WAT     H222515   8.178   9.804   6.076
 7425WAT      O22516   6.372   3.984   7.891
 7425WAT     H122517   6.318   3.902   7.911
 7425WAT     H222518   6.394   3.986   7.793
 7426WAT      O22519   2.316   7.375   2.521
 7426WAT     H122520   2.366   7.301   2.566
 7426WAT     H222521   2.235   7.339   2.476
 7427WAT      O22522   3.484   8.648   4.844
 7427WAT     H122523   3.458   8.702   4.924
 7427WAT     H222524   3.516   8.558   4.873
 7428WAT      O22525   7.744   9.591   8.574
 7428WAT     H122526   7.836   9.610   8.608
 7428WAT     H222527   7.683   9.574   8.652
 7429WAT      O22528   8.952   1.583   4.843
 7429WAT     H122529   8.890   1.524   4.895
 7429WAT     H222530   8.912   1.674   4.835
 7430WAT      O22531   6.455   7.235   4.641
 7430WAT     H122532   6.376   7.178   4.617
 7430WAT     H222533   6.514   7.245   4.562
 7431WAT      O22534   7.448   1.303   1.386
 7431WAT     H122535   7.516   1.296   1.313
 7431WAT     H222536   7.404   1.214   1.399
 7432WAT      O22537   8.027   0.603   9.528
 7432WAT     H122538   8.032   0.659   9.611
 7432WAT     H222539   7.993   0.511   9.552
 7433WAT      O22540   3.936   3.797   6.563
 7433WAT     H122541   3.898   3.847   6.485
 7433WAT     H222542   4.031   3.773   6.545
 7434WAT      O22543   3.270   7.395   2.910
 7434WAT     H122544   3.212   7.336   2.854
 7434WAT     H222545   3.221   7.480   2.932
 7435WAT      O22546   6.628   3.784   8.961
 7435WAT     H122547   6.712   3.836   8.945
 7435WAT     H222548   6.644   3.688   8.938
 7436WAT      O22549   7.816   1.270   0.935
 7436WAT     H122550   7.890   1.330   0.904
 7436WAT     H222551   7.754   1.251   0.859
 7437WAT      O22552   9.259   2.637   8.495
 7437WAT     H122553   9.207   2.676   8.571
 7437WAT     H222554   9.257   2.537   8.501
 7438WAT      O22555   5.100   4.218   2.011
 7438WAT     H122556   5.058   4.213   1.921
 7438WAT     H222557   5.100   4.127   2.054
 7439WAT      O22558   9.659   3.794   3.563
 7439WAT     H122559   9.607   3.726   3.616
 7439WAT     H222560   9.660   3.881   3.612
 7440WAT      O22561   3.394   5.974   8.111
 7440WAT     H122562   3.296   5.977   8.127
 7440WAT     H222563   3.415   6.004   8.018
 7441WAT      O22564   4.370   4.084   1.055
 7441WAT     H122565   4.459   4.127   1.072
 7441WAT     H222566   4.349   4.088   0.958
 7442WAT      O22567   3.121   5.971   4.517
 7442WAT     H122568   3.112   6.013   4.426
 7442WAT     H222569   3.038   5.989   4.571
 7443WAT      O22570   2.710   6.677   4.430
 7443WAT     H122571   2.710   6.774   4.404
 7443WAT     H222572   2.618   6.651   4.460
 7444WAT      O22573   6.820   9.045   5.484
 7444WAT     H122574   6.839   8.973   5.550
 7444WAT     H222575   6.904   9.070   5.437
 7445WAT      O22576   6.873   5.928   7.617
 7445WAT     H122577   6.879   5.852   7.552
 7445WAT     H222578   6.891   5.894   7.709
 7446WAT      O22579   9.257   5.126   3.290
 7446WAT     H122580   9.346   5.096   3.256
 7446WAT     H222581   9.186   5.064   3.257
 7447WAT      O22582   2.788   7.312   5.458
 7447WAT     H122583   2.864   7.288   5.518
 7447WAT     H222584   2.819   7.314   5.363
 7448WAT      O22585   5.969   7.075   4.926
 7448WAT     H122586   5.972   7.175   4.929
 7448WAT     H222587   5.874   7.044   4.926
 7449WAT      O22588   1.200   6.194   0.376
 7449WAT     H122589   1.221   6.190   0.473
 7449WAT     H222590   1.212   6.287   0.343
 7450WAT      O22591   6.498   9.301   6.793
 7450WAT     H122592   6.564   9.341   6.856
 7450WAT     H222593   6.407   9.340   6.810
 7451WAT      O22594   3.197   5.177   1.123
 7451WAT     H122595   3.209   5.104   1.055
 7451WAT     H222596   3.283   5.193   1.170
 7452WAT      O22597   7.002   4.439   8.092
 7452WAT     H122598   6.916   4.389   8.103
 7452WAT     H222599   7.016   4.499   8.170
 7453WAT      O22600   5.299   5.677   8.947
 7453WAT     H122601   5.380   5.656   9.003
 7453WAT     H222602   5.261   5.765   8.976
 7454WAT      O22603   9.370   8.548   2.680
 7454WAT     H122604   9.439   8.476   2.683
 7454WAT     H222605   9.281   8.508   2.662
 7455WAT      O22606   8.005   0.878   9.367
 7455WAT     H122607   7.943   0.955   9.353
 7455WAT     H222608   7.960   0.806   9.420
 7456WAT      O22609   0.334   4.355   9.616
 7456WAT     H122610   0.258   4.318   9.668
 7456WAT     H222611   0.328   4.323   9.521
 7457WAT      O22612   7.370   3.217   9.573
 7457WAT     H122613   7.340   3.313   9.570
 7457WAT     H222614   7.395   3.193   9.667
 7458WAT      O22615   9.349   0.722   0.848
 7458WAT     H122616   9.428   0.665   0.825
 7458WAT     H222617   9.266   0.665   0.847
 7459WAT      O22618   8.951   5.085   0.817
 7459WAT     H122619   8.995   5.137   0.890
 7459WAT     H222620   8.880   5.026   0.856
 7460WAT      O22621   2.099   8.660   0.497
 7460WAT     H122622   2.197   8.649   0.481
 7460WAT     H222623   2.048   8.609   0.428
 7461WAT      O22624   9.139   8.502   5.285
 7461WAT     H122625   9.045   8.534   5.273
 7461WAT     H222626   9.186   8.561   5.351
 7462WAT      O22627   3.842   5.448   2.675
 7462WAT     H122628   3.849   5.425   2.772
 7462WAT     H222629   3.803   5.371   2.625
 7463WAT      O22630   5.407   0.464   8.275
 7463WAT     H122631   5.430   0.374   8.239
 7463WAT     H222632   5.312   0.487   8.252
 7464WAT      O22633   2.482   0.734   1.362
 7464WAT     H122634   2.446   0.766   1.450
 7464WAT     H222635   2.417   0.756   1.289
 7465WAT      O22636   5.313   4.667   5.409
 7465WAT     H122637   5.232   4.683   5.353
 7465WAT     H222638   5.285   4.653   5.504
 7466WAT      O22639   0.519   3.547   9.154
 7466WAT     H122640   0.488   3.473   9.213
 7466WAT     H222641   0.571   3.613   9.207
 7467WAT      O22642   8.058   4.494   2.301
 7467WAT     H122643   8.071   4.521   2.397
 7467WAT     H222644   8.118   4.548   2.243
 7468WAT      O22645   5.928   2.874   0.704
 7468WAT     H122646   5.944   2.779   0.732
 7468WAT     H222647   6.010   2.910   0.660
 7469WAT      O22648   3.669   5.390   2.078
 7469WAT     H122649   3.582   5.380   2.126
 7469WAT     H222650   3.740   5.419   2.142
 7470WAT      O22651   4.679   4.262   9.416
 7470WAT     H122652   4.651   4.332   9.481
 7470WAT     H222653   4.604   4.242   9.354
 7471WAT      O22654   3.267   0.527   5.100
 7471WAT     H122655   3.177   0.570   5.108
 7471WAT     H222656   3.283   0.501   5.005
 7472WAT      O22657   7.087   9.351   3.599
 7472WAT     H122658   7.065   9.391   3.688
 7472WAT     H222659   7.178   9.310   3.603
 7473WAT      O22660   5.354   0.577   4.239
 7473WAT     H122661   5.343   0.478   4.232
 7473WAT     H222662   5.419   0.609   4.170
 7474WAT      O22663   2.625   2.797   1.946
 7474WAT     H122664   2.611   2.749   1.859
 7474WAT     H222665   2.722   2.791   1.971
 7475WAT      O22666   7.910   5.912   1.800
 7475WAT     H122667   7.951   5.821   1.806
 7475WAT     H222668   7.886   5.931   1.705
 7476WAT      O22669   9.507   2.393   9.554
 7476WAT     H122670   9.425   2.395   9.497
 7476WAT     H222671   9.588   2.411   9.498
 7477WAT      O22672   7.382   8.539   1.965
 7477WAT     H122673   7.387   8.546   2.064
 7477WAT     H222674   7.308   8.477   1.940
 7478WAT      O22675   1.002   0.590   6.441
 7478WAT     H122676   0.933   0.620   6.507
 7478WAT     H222677   1.021   0.664   6.377
 7479WAT      O22678   0.243   3.365   4.295
 7479WAT     H122679   0.234   3.464   4.282
 7479WAT     H222680   0.203   3.339   4.382
 7480WAT      O22681   3.044   3.577   0.261
 7480WAT     H122682   3.090   3.606   0.177
 7480WAT     H222683   3.091   3.497   0.299
 7481WAT      O22684   2.216   1.238   7.099
 7481WAT     H122685   2.303   1.190   7.106
 7481WAT     H222686   2.156   1.191   7.034
 7482WAT      O22687   6.239   4.549   4.427
 7482WAT     H122688   6.300   4.544   4.349
 7482WAT     H222689   6.144   4.546   4.396
 7483WAT      O22690   0.178   4.243   0.615
 7483WAT     H122691   0.084   4.270   0.598
 7483WAT     H222692   0.220   4.304   0.683
 7484WAT      O22693   3.059   8.047   6.902
 7484WAT     H122694   3.031   7.953   6.920
 7484WAT     H222695   3.156   8.049   6.877
 7485WAT      O22696   5.787   0.235   1.240
 7485WAT     H122697   5.816   0.305   1.175
 7485WAT     H222698   5.707   0.268   1.290
 7486WAT      O22699   0.142   0.656   9.135
 7486WAT     H122700   0.143   0.597   9.215
 7486WAT     H222701   0.048   0.668   9.103
 7487WAT      O22702   6.254   9.167   8.245
 7487WAT     H122703   6.309   9.088   8.216
 7487WAT     H222704   6.240   9.163   8.344
 7488WAT      O22705   5.686   7.495   7.105
 7488WAT     H122706   5.629   7.433   7.050
 7488WAT     H222707   5.646   7.505   7.196
 7489WAT      O22708   1.289   9.493   2.713
 7489WAT     H122709   1.336   9.499   2.801
 7489WAT     H222710   1.353   9.460   2.644
 7490WAT      O22711   8.138   3.946   6.111
 7490WAT     H122712   8.046   3.921   6.079
 7490WAT     H222713   8.129   4.012   6.185
 7491WAT      O22714   9.785   8.522   7.926
 7491WAT     H122715   9.697   8.517   7.972
 7491WAT     H222716   9.838   8.599   7.962
 7492WAT      O22717   4.549   7.866   1.281
 7492WAT     H122718   4.473   7.842   1.341
 7492WAT     H222719   4.583   7.958   1.305
 7493WAT      O22720   4.538   0.272   6.232
 7493WAT     H122721   4.602   0.259   6.156
 7493WAT     H222722   4.590   0.287   6.317
 7494WAT      O22723   4.537   5.322   6.682
 7494WAT     H122724   4.505   5.398   6.624
 7494WAT     H222725   4.460   5.264   6.707
 7495WAT      O22726   7.832   5.980   7.657
 7495WAT     H122727   7.866   6.072   7.680
 7495WAT     H222728   7.861   5.957   7.564
 7496WAT      O22729   0.191   2.216   9.645
 7496WAT     H122730   0.179   2.175   9.555
 7496WAT     H222731   0.232   2.307   9.635
 7497WAT      O22732   8.318   8.619   2.250
 7497WAT     H122733   8.388   8.632   2.179
 7497WAT     H222734   8.273   8.531   2.236
 7498WAT      O22735   4.811   1.621   0.263
 7498WAT     H122736   4.783   1.651   0.172
 7498WAT     H222737   4.740   1.562   0.302
 7499WAT      O22738   8.605   4.828   0.841
 7499WAT     H122739   8.637   4.761   0.774
 7499WAT     H222740   8.683   4.860   0.895
 7500WAT      O22741   5.591   6.581   0.973
 7500WAT     H122742   5.606   6.617   1.066
 7500WAT     H222743   5.669   6.524   0.947
 7501WAT      O22744   1.173   6.612   8.057
 7501WAT     H122745   1.132   6.702   8.061
 7501WAT     H222746   1.271   6.619   8.075
 7502WAT      O22747   1.894   9.409   7.643
 7502WAT     H122748   1.865   9.489   7.696
 7502WAT     H222749   1.971   9.365   7.688
 7503WAT      O22750   6.610   0.191   7.014
 7503WAT     H122751   6.698   0.183   7.061
 7503WAT     H222752   6.536   0.163   7.076
 7504WAT      O22753   1.524   2.774   6.609
 7504WAT     H122754   1.596   2.842   6.618
 7504WAT     H222755   1.441   2.807   6.654
 7505WAT      O22756   0.133   8.608   7.375
 7505WAT     H122757   0.089   8.633   7.461
 7505WAT     H222758   0.232   8.598   7.390
 7506WAT      O22759   0.402   1.458   5.746
 7506WAT     H122760   0.406   1.383   5.811
 7506WAT     H222761   0.313   1.458   5.700
 7507WAT      O22762   6.470   1.852   5.059
 7507WAT     H122763   6.398   1.921   5.063
 7507WAT     H222764   6.461   1.790   5.138
 7508WAT      O22765   2.622   4.255   3.199
 7508WAT     H122766   2.620   4.157   3.180
 7508WAT     H222767   2.671   4.271   3.285
 7509WAT      O22768   2.978   0.944   7.286
 7509WAT     H122769   3.044   0.964   7.213
 7509WAT     H222770   2.921   0.866   7.260
 7510WAT      O22771   9.282   6.709   0.833
 7510WAT     H122772   9.206   6.774   0.825
 7510WAT     H222773   9.302   6.693   0.929
 7511WAT      O22774   9.577   9.487   4.421
 7511WAT     H122775   9.652   9.489   4.355
 7511WAT     H222776   9.535   9.577   4.428
 7512WAT      O22777   2.338   2.785   6.324
 7512WAT     H122778   2.425   2.776   6.275
 7512WAT     H222779   2.346   2.858   6.392
 7513WAT      O22780   1.483   6.739   5.891
 7513WAT     H122781   1.409   6.711   5.951
 7513WAT     H222782   1.481   6.685   5.807
 7514WAT      O22783   4.549   3.799   1.267
 7514WAT     H122784   4.527   3.883   1.316
 7514WAT     H222785   4.484   3.728   1.292
 7515WAT      O22786   8.618   7.163   0.914
 7515WAT     H122787   8.581   7.217   0.838
 7515WAT     H222788   8.549   7.155   0.986
 7516WAT      O22789   4.061   0.438   8.552
 7516WAT     H122790   4.147   0.458   8.506
 7516WAT     H222791   4.077   0.370   8.624
 7517WAT      O22792   3.917   7.449   2.626
 7517WAT     H122793   3.931   7.537   2.581
 7517WAT     H222794   3.936   7.375   2.562
 7518WAT      O22795   5.507   6.786   5.126
 7518WAT     H122796   5.414   6.822   5.132
 7518WAT     H222797   5.517   6.734   5.041
 7519WAT      O22798   8.857   0.613   0.867
 7519WAT     H122799   8.894   0.657   0.949
 7519WAT     H222800   8.860   0.677   0.791
 7520WAT      O22801   4.242   7.065   9.523
 7520WAT     H122802   4.217   7.161   9.509
 7520WAT     H222803   4.215   7.011   9.443
 7521WAT      O22804   4.542   9.473   0.211
 7521WAT     H122805   4.538   9.558   0.263
 7521WAT     H222806   4.603   9.409   0.257
 7522WAT      O22807   0.540   4.956   9.367
 7522WAT     H122808   0.571   4.871   9.409
 7522WAT     H222809   0.533   5.028   9.437
 7523WAT      O22810   2.174   3.422   6.460
 7523WAT     H122811   2.122   3.507   6.459
 7523WAT     H222812   2.266   3.439   6.426
 7524WAT      O22813   9.714   9.674   3.150
 7524WAT     H122814   9.807   9.641   3.135
 7524WAT     H222815   9.669   9.689   3.061
 7525WAT      O22816   5.369   7.426   1.907
 7525WAT     H122817   5.328   7.349   1.859
 7525WAT     H222818   5.390   7.399   2.001
 7526WAT      O22819   7.930   2.377   6.299
 7526WAT     H122820   7.933   2.420   6.209
 7526WAT     H222821   8.021   2.344   6.323
 7527WAT      O22822   7.940   8.945   8.320
 7527WAT     H122823   8.036   8.921   8.304
 7527WAT     H222824   7.894   8.957   8.232
 7528WAT      O22825   4.797   3.309   0.760
 7528WAT     H122826   4.807   3.381   0.692
 7528WAT     H222827   4.888   3.280   0.790
 7529WAT      O22828   9.090   9.089   9.036
 7529WAT     H122829   9.119   9.105   9.131
 7529WAT     H222830   9.003   9.135   9.020
 7530WAT      O22831   7.828   9.411   1.101
 7530WAT     H122832   7.851   9.482   1.168
 7530WAT     H222833   7.824   9.322   1.147
 7531WAT      O22834   4.151   7.418   6.096
 7531WAT     H122835   4.067   7.472   6.096
 7531WAT     H222836   4.207   7.442   6.018
 7532WAT      O22837   7.239   8.914   2.303
 7532WAT     H122838   7.179   8.852   2.251
 7532WAT     H222839   7.217   9.008   2.280
 7533WAT      O22840   8.930   1.863   0.125
 7533WAT     H122841   9.005   1.871   0.059
 7533WAT     H222842   8.857   1.808   0.086
 7534WAT      O22843   1.666   0.195   7.055
 7534WAT     H122844   1.595   0.149   7.109
 7534WAT     H222845   1.708   0.266   7.111
 7535WAT      O22846   5.324   5.111   0.400
 7535WAT     H122847   5.359   5.059   0.478
 7535WAT     H222848   5.364   5.202   0.400
 7536WAT      O22849   0.118   1.798   5.871
 7536WAT     H122850   0.213   1.783   5.847
 7536WAT     H222851   0.073   1.710   5.886
 7537WAT      O22852   3.337   2.023   5.010
 7537WAT     H122853   3.345   1.925   4.991
 7537WAT     H222854   3.417   2.054   5.061
 7538WAT      O22855   8.195   7.231   2.039
 7538WAT     H122856   8.168   7.258   2.132
 7538WAT     H222857   8.145   7.148   2.013
 7539WAT      O22858   1.508   9.455   9.235
 7539WAT     H122859   1.525   9.449   9.333
 7539WAT     H222860   1.427   9.511   9.218
 7540WAT      O22861   3.433   2.404   4.216
 7540WAT     H122862   3.336   2.417   4.195
 7540WAT     H222863   3.447   2.313   4.254
 7541WAT      O22864   5.407   0.202   5.831
 7541WAT     H122865   5.485   0.163   5.879
 7541WAT     H222866   5.358   0.265   5.892
 7542WAT      O22867   7.780   6.133   4.019
 7542WAT     H122868   7.687   6.122   4.052
 7542WAT     H222869   7.844   6.089   4.083
 7543WAT      O22870   2.760   5.378   3.506
 7543WAT     H122871   2.789   5.299   3.451
 7543WAT     H222872   2.675   5.415   3.468
 7544WAT      O22873   3.061   9.300   2.879
 7544WAT     H122874   3.036   9.285   2.975
 7544WAT     H222875   3.091   9.214   2.839
 7545WAT      O22876   9.621   9.334   9.407
 7545WAT     H122877   9.654   9.366   9.318
 7545WAT     H222878   9.697   9.291   9.457
 7546WAT      O22879   2.240   6.722   4.777
 7546WAT     H122880   2.215   6.818   4.765
 7546WAT     H222881   2.328   6.716   4.826
 7547WAT      O22882   4.748   6.276   0.636
 7547WAT     H122883   4.847   6.288   0.651
 7547WAT     H222884   4.734   6.201   0.571
 7548WAT      O22885   6.370   9.493   9.640
 7548WAT     H122886   6.449   9.541   9.676
 7548WAT     H222887   6.373   9.397   9.667
 7549WAT      O22888   0.933   8.280   1.527
 7549WAT     H122889   0.980   8.366   1.547
 7549WAT     H222890   0.941   8.218   1.605
 7550WAT      O22891   3.306   3.212   0.155
 7550WAT     H122892   3.391   3.169   0.184
 7550WAT     H222893   3.285   3.288   0.217
 7551WAT      O22894   3.733   0.932   9.182
 7551WAT     H122895   3.636   0.940   9.205
 7551WAT     H222896   3.754   0.991   9.104
 7552WAT      O22897   7.571   6.069   8.000
 7552WAT     H122898   7.589   6.018   7.916
 7552WAT     H222899   7.649   6.127   8.022
 7553WAT      O22900   9.517   1.926   7.388
 7553WAT     H122901   9.531   1.950   7.292
 7553WAT     H222902   9.461   1.997   7.432
 7554WAT      O22903   2.158   8.517   5.957
 7554WAT     H122904   2.131   8.512   5.861
 7554WAT     H222905   2.109   8.446   6.009
 7555WAT      O22906   4.604   6.036   2.024
 7555WAT     H122907   4.530   5.979   2.059
 7555WAT     H222908   4.566   6.117   1.979
 7556WAT      O22909   7.765   3.791   2.852
 7556WAT     H122910   7.865   3.781   2.852
 7556WAT     H222911   7.731   3.784   2.946
 7557WAT      O22912   5.991   3.453   3.674
 7557WAT     H122913   5.984   3.537   3.728
 7557WAT     H222914   5.909   3.441   3.618
 7558WAT      O22915   5.894   8.605   6.106
 7558WAT     H122916   5.854   8.524   6.063
 7558WAT     H222917   5.863   8.612   6.200
 7559WAT      O22918   2.059   8.313   7.042
 7559WAT     H122919   2.149   8.272   7.061
 7559WAT     H222920   2.047   8.394   7.098
 7560WAT      O22921   3.874   9.591   3.263
 7560WAT     H122922   3.803   9.662   3.266
 7560WAT     H222923   3.843   9.511   3.314
 7561WAT      O22924   9.775   9.134   3.923
 7561WAT     H122925   9.793   9.163   4.017
 7561WAT     H222926   9.735   9.210   3.872
 7562WAT      O22927   6.335   9.782   1.205
 7562WAT     H122928   6.272   9.843   1.254
 7562WAT     H222929   6.415   9.764   1.263
 7563WAT      O22930   1.400   3.651   9.761
 7563WAT     H122931   1.373   3.711   9.837
 7563WAT     H222932   1.320   3.626   9.708
 7564WAT      O22933   6.926   3.521   1.179
 7564WAT     H122934   6.988   3.496   1.253
 7564WAT     H222935   6.860   3.589   1.213
 7565WAT      O22936   2.478   3.019   0.006
 7565WAT     H122937   2.484   2.949  -0.065
 7565WAT     H222938   2.562   3.073   0.007
 7566WAT      O22939   1.152   4.883   4.899
 7566WAT     H122940   1.162   4.787   4.872
 7566WAT     H222941   1.198   4.897   4.987
 7567WAT      O22942   0.612   2.794   2.622
 7567WAT     H122943   0.685   2.768   2.558
 7567WAT     H222944   0.651   2.848   2.697
 7568WAT      O22945   5.347   6.787   8.327
 7568WAT     H122946   5.248   6.776   8.332
 7568WAT     H222947   5.390   6.697   8.317
 7569WAT      O22948   7.861   6.752   4.207
 7569WAT     H122949   7.829   6.659   4.227
 7569WAT     H222950   7.787   6.817   4.226
 7570WAT      O22951   6.221   8.272   9.459
 7570WAT     H122952   6.263   8.182   9.470
 7570WAT     H222953   6.122   8.261   9.449
 7571WAT      O22954   1.532   1.369   5.926
 7571WAT     H122955   1.603   1.335   5.987
 7571WAT     H222956   1.442   1.340   5.960
 7572WAT      O22957   5.677   2.094   6.833
 7572WAT     H122958   5.625   2.081   6.918
 7572WAT     H222959   5.636   2.168   6.780
 7573WAT      O22960   3.627   1.026   3.565
 7573WAT     H122961   3.554   1.006   3.499
 7573WAT     H222962   3.711   1.049   3.515
 7574WAT      O22963   6.306   0.039   6.271
 7574WAT     H122964   6.370  -0.023   6.316
 7574WAT     H222965   6.258  -0.011   6.198
 7575WAT      O22966   9.435   9.816   0.041
 7575WAT     H122967   9.515   9.834   0.098
 7575WAT     H222968   9.417   9.718   0.040
 7576WAT      O22969   9.685   5.048   5.230
 7576WAT     H122970   9.730   5.046   5.319
 7576WAT     H222971   9.587   5.028   5.242
 7577WAT      O22972   7.470   5.622   3.062
 7577WAT     H122973   7.536   5.575   3.003
 7577WAT     H222974   7.438   5.559   3.133
 7578WAT      O22975   0.751   3.514   2.396
 7578WAT     H122976   0.822   3.464   2.347
 7578WAT     H222977   0.668   3.459   2.400
 7579WAT      O22978   1.462   2.438   8.995
 7579WAT     H122979   1.478   2.392   9.082
 7579WAT     H222980   1.549   2.469   8.957
 7580WAT      O22981   2.987   4.703   6.333
 7580WAT     H122982   3.035   4.642   6.397
 7580WAT     H222983   3.006   4.674   6.239
 7581WAT      O22984   4.321   1.297   1.262
 7581WAT     H122985   4.262   1.300   1.181
 7581WAT     H222986   4.395   1.231   1.247
 7582WAT      O22987   1.286   5.939   8.931
 7582WAT     H122988   1.375   5.925   8.889
 7582WAT     H222989   1.291   6.014   8.998
 7583WAT      O22990   2.505   7.416   0.792
 7583WAT     H122991   2.497   7.349   0.866
 7583WAT     H222992   2.439   7.395   0.721
 7584WAT      O22993   8.239   0.372   4.549
 7584WAT     H122994   8.299   0.366   4.629
 7584WAT     H222995   8.152   0.326   4.568
 7585WAT      O22996   0.383   5.083   3.728
 7585WAT     H122997   0.429   5.154   3.782
 7585WAT     H222998   0.443   5.003   3.721
 7586WAT      O22999   2.613   3.186   2.672
 7586WAT     H123000   2.566   3.273   2.659
 7586WAT     H223001   2.615   3.137   2.585
 7587WAT      O23002   2.000   1.246   6.136
 7587WAT     H123003   2.059   1.215   6.061
 7587WAT     H223004   1.971   1.340   6.119
 7588WAT      O23005   8.879   4.907   9.055
 7588WAT     H123006   8.892   4.809   9.073
 7588WAT     H223007   8.968   4.950   9.038
 7589WAT      O23008   8.848   8.452   6.661
 7589WAT     H123009   8.930   8.394   6.655
 7589WAT     H223010   8.836   8.484   6.755
 7590WAT      O23011   4.580   8.909   6.446
 7590WAT     H123012   4.604   8.830   6.390
 7590WAT     H223013   4.655   8.975   6.444
 7591WAT      O23014   8.385   6.705   3.723
 7591WAT     H123015   8.292   6.692   3.757
 7591WAT     H223016   8.410   6.802   3.730
 7592WAT      O23017   8.109   9.544   2.312
 7592WAT     H123018   8.127   9.503   2.222
 7592WAT     H223019   8.114   9.644   2.304
 7593WAT      O23020   1.200   2.476   5.614
 7593WAT     H123021   1.249   2.543   5.558
 7593WAT     H223022   1.180   2.395   5.559
 7594WAT      O23023   8.189   8.916   2.916
 7594WAT     H123024   8.206   8.832   2.968
 7594WAT     H223025   8.276   8.960   2.893
 7595WAT      O23026   9.627   3.930   9.825
 7595WAT     H123027   9.642   3.834   9.846
 7595WAT     H223028   9.698   3.986   9.869
 7596WAT      O23029   4.343   0.971   4.897
 7596WAT     H123030   4.355   0.937   4.804
 7596WAT     H223031   4.261   1.028   4.901
 7597WAT      O23032   0.851   0.140   6.993
 7597WAT     H123033   0.849   0.236   6.965
 7597WAT     H223034   0.851   0.135   7.093
 7598WAT      O23035   3.629   2.874   4.093
 7598WAT     H123036   3.712   2.828   4.124
 7598WAT     H223037   3.638   2.973   4.107
 7599WAT      O23038   0.499   1.002   8.573
 7599WAT     H123039   0.511   0.910   8.609
 7599WAT     H223040   0.537   1.007   8.481
 7600WAT      O23041   8.080   2.329   5.137
 7600WAT     H123042   8.007   2.346   5.203
 7600WAT     H223043   8.168   2.328   5.184
 7601WAT      O23044   0.172   4.911   0.763
 7601WAT     H123045   0.155   4.816   0.788
 7601WAT     H223046   0.264   4.938   0.791
 7602WAT      O23047   5.977   0.740   3.127
 7602WAT     H123048   5.886   0.704   3.105
 7602WAT     H223049   6.022   0.770   3.042
 7603WAT      O23050   2.270   1.468   1.170
 7603WAT     H123051   2.339   1.401   1.198
 7603WAT     H223052   2.193   1.466   1.234
 7604WAT      O23053   4.870   3.482   8.494
 7604WAT     H123054   4.772   3.496   8.498
 7604WAT     H223055   4.910   3.541   8.423
 7605WAT      O23056   7.598   2.615   0.787
 7605WAT     H123057   7.582   2.644   0.882
 7605WAT     H223058   7.531   2.546   0.761
 7606WAT      O23059   3.216   9.250   8.182
 7606WAT     H123060   3.133   9.292   8.145
 7606WAT     H223061   3.194   9.160   8.221
 7607WAT      O23062   4.770   0.159   3.365
 7607WAT     H123063   4.738   0.119   3.450
 7607WAT     H223064   4.823   0.242   3.385
 7608WAT      O23065   7.913   3.958   7.829
 7608WAT     H123066   7.861   3.947   7.914
 7608WAT     H223067   7.982   3.886   7.823
 7609WAT      O23068   3.782   0.840   5.081
 7609WAT     H123069   3.782   0.929   5.126
 7609WAT     H223070   3.831   0.773   5.138
 7610WAT      O23071   9.463   0.136   6.454
 7610WAT     H123072   9.547   0.177   6.489
 7610WAT     H223073   9.398   0.209   6.431
 7611WAT      O23074   3.024   7.188   4.645
 7611WAT     H123075   2.932   7.151   4.631
 7611WAT     H223076   3.087   7.148   4.578
 7612WAT      O23077   4.454   3.086   8.387
 7612WAT     H123078   4.461   3.015   8.457
 7612WAT     H223079   4.529   3.151   8.398
 7613WAT      O23080   1.219   5.435   5.833
 7613WAT     H123081   1.241   5.463   5.740
 7613WAT     H223082   1.163   5.352   5.831
 7614WAT      O23083   8.752   9.451   8.779
 7614WAT     H123084   8.675   9.402   8.819
 7614WAT     H223085   8.803   9.498   8.851
 7615WAT      O23086   2.231   4.287   0.156
 7615WAT     H123087   2.190   4.199   0.179
 7615WAT     H223088   2.331   4.278   0.153
 7616WAT      O23089   0.923   3.982   5.898
 7616WAT     H123090   0.849   4.026   5.846
 7616WAT     H223091   0.952   3.899   5.851
 7617WAT      O23092   0.757   3.514   9.725
 7617WAT     H123093   0.664   3.544   9.744
 7617WAT     H223094   0.800   3.576   9.659
 7618WAT      O23095   0.683   4.190   1.671
 7618WAT     H123096   0.688   4.222   1.766
 7618WAT     H223097   0.706   4.266   1.610
 7619WAT      O23098   4.761   3.645   5.285
 7619WAT     H123099   4.836   3.583   5.311
 7619WAT     H223100   4.773   3.673   5.190
 7620WAT      O23101   4.899   6.512   0.289
 7620WAT     H123102   4.960   6.473   0.358
 7620WAT     H223103   4.936   6.496   0.198
 7621WAT      O23104   1.549   6.377   9.084
 7621WAT     H123105   1.577   6.281   9.090
 7621WAT     H223106   1.589   6.427   9.161
 7622WAT      O23107   9.631   0.574   8.428
 7622WAT     H123108   9.664   0.660   8.388
 7622WAT     H223109   9.610   0.589   8.525
 7623WAT      O23110   4.208   0.474   7.866
 7623WAT     H123111   4.281   0.409   7.841
 7623WAT     H223112   4.128   0.457   7.809
 7624WAT      O23113   9.286   3.148   4.110
 7624WAT     H123114   9.369   3.147   4.165
 7624WAT     H223115   9.211   3.186   4.164
 7625WAT      O23116   6.168   9.201   9.107
 7625WAT     H123117   6.237   9.230   9.041
 7625WAT     H223118   6.084   9.176   9.059
 7626WAT      O23119   9.219   3.512   3.825
 7626WAT     H123120   9.144   3.476   3.770
 7626WAT     H223121   9.217   3.470   3.916
 7627WAT      O23122   6.070   4.563   7.806
 7627WAT     H123123   6.080   4.662   7.810
 7627WAT     H223124   6.159   4.522   7.788
 7628WAT      O23125   3.417   6.444   0.647
 7628WAT     H123126   3.448   6.391   0.726
 7628WAT     H223127   3.332   6.404   0.612
 7629WAT      O23128   6.524   4.856   2.514
 7629WAT     H123129   6.620   4.869   2.490
 7629WAT     H223130   6.491   4.769   2.475
 7630WAT      O23131   1.319   0.363   9.599
 7630WAT     H123132   1.396   0.423   9.623
 7630WAT     H223133   1.267   0.343   9.682
 7631WAT      O23134   6.400   5.031   4.546
 7631WAT     H123135   6.461   4.954   4.525
 7631WAT     H223136   6.369   5.073   4.461
 7632WAT      O23137   8.013   6.417   8.345
 7632WAT     H123138   8.015   6.444   8.248
 7632WAT     H223139   8.086   6.464   8.394
 7633WAT      O23140   2.142   0.079   0.470
 7633WAT     H123141   2.135   0.165   0.521
 7633WAT     H223142   2.139   0.098   0.372
 7634WAT      O23143   0.473   9.622   1.827
 7634WAT     H123144   0.528   9.656   1.751
 7634WAT     H223145   0.378   9.609   1.795
 7635WAT      O23146   0.397   4.333   7.550
 7635WAT     H123147   0.337   4.258   7.577
 7635WAT     H223148   0.468   4.346   7.619
 7636WAT      O23149   8.711   7.298   7.859
 7636WAT     H123150   8.780   7.234   7.825
 7636WAT     H223151   8.635   7.247   7.898
 7637WAT      O23152   8.178   6.808   0.089
 7637WAT     H123153   8.250   6.803   0.020
 7637WAT     H223154   8.199   6.744   0.164
 7638WAT      O23155   2.682   0.356   3.593
 7638WAT     H123156   2.781   0.368   3.593
 7638WAT     H223157   2.660   0.261   3.574
 7639WAT      O23158   3.312   8.316   4.568
 7639WAT     H123159   3.319   8.305   4.469
 7639WAT     H223160   3.321   8.413   4.592
 7640WAT      O23161   3.685   5.728   9.002
 7640WAT     H123162   3.684   5.764   8.909
 7640WAT     H223163   3.686   5.804   9.067
 7641WAT      O23164   4.851   8.176   2.377
 7641WAT     H123165   4.894   8.229   2.304
 7641WAT     H223166   4.766   8.136   2.344
 7642WAT      O23167   1.661   9.252   2.261
 7642WAT     H123168   1.695   9.260   2.355
 7642WAT     H223169   1.708   9.319   2.203
 7643WAT      O23170   3.890   4.497   4.191
 7643WAT     H123171   3.867   4.463   4.282
 7643WAT     H223172   3.941   4.426   4.142
 7644WAT      O23173   0.431   5.747   3.870
 7644WAT     H123174   0.362   5.780   3.934
 7644WAT     H223175   0.511   5.807   3.872
 7645WAT      O23176   8.384   2.732   2.084
 7645WAT     H123177   8.360   2.636   2.069
 7645WAT     H223178   8.442   2.741   2.164
 7646WAT      O23179   5.831   3.947   4.962
 7646WAT     H123180   5.840   3.982   4.869
 7646WAT     H223181   5.832   4.023   5.026
 7647WAT      O23182   1.228   2.307   0.125
 7647WAT     H123183   1.264   2.255   0.048
 7647WAT     H223184   1.252   2.262   0.211
 7648WAT      O23185   5.821   7.690   2.515
 7648WAT     H123186   5.741   7.638   2.485
 7648WAT     H223187   5.856   7.744   2.439
 7649WAT      O23188   3.491   3.378   8.025
 7649WAT     H123189   3.393   3.370   8.008
 7649WAT     H223190   3.538   3.297   7.990
 7650WAT      O23191   4.859   3.161   2.630
 7650WAT     H123192   4.866   3.131   2.725
 7650WAT     H223193   4.834   3.258   2.627
 7651WAT      O23194   3.975   9.265   5.086
 7651WAT     H123195   3.926   9.181   5.110
 7651WAT     H223196   3.943   9.299   4.998
 7652WAT      O23197   3.494   3.454   3.254
 7652WAT     H123198   3.467   3.545   3.223
 7652WAT     H223199   3.424   3.388   3.229
 7653WAT      O23200   8.304   4.442   8.906
 7653WAT     H123201   8.387   4.394   8.934
 7653WAT     H223202   8.307   4.460   8.807
 7654WAT      O23203   7.516   0.956   7.266
 7654WAT     H123204   7.532   0.860   7.247
 7654WAT     H223205   7.512   0.970   7.365
 7655WAT      O23206   4.892   5.478   1.522
 7655WAT     H123207   4.794   5.494   1.515
 7655WAT     H223208   4.910   5.414   1.596
 7656WAT      O23209   7.350   2.068   3.280
 7656WAT     H123210   7.421   2.000   3.261
 7656WAT     H223211   7.347   2.086   3.378
 7657WAT      O23212   0.111   7.570   1.580
 7657WAT     H123213   0.171   7.647   1.561
 7657WAT     H223214   0.163   7.484   1.574
 7658WAT      O23215   4.195   7.394   9.139
 7658WAT     H123216   4.157   7.470   9.086
 7658WAT     H223217   4.259   7.429   9.208
 7659WAT      O23218   6.739   3.376   5.631
 7659WAT     H123219   6.697   3.429   5.705
 7659WAT     H223220   6.823   3.333   5.665
 7660WAT      O23221   7.093   1.826   7.573
 7660WAT     H123222   7.020   1.887   7.543
 7660WAT     H223223   7.053   1.741   7.608
 7661WAT      O23224   5.201   1.087   6.156
 7661WAT     H123225   5.194   1.071   6.254
 7661WAT     H223226   5.130   1.035   6.109
 7662WAT      O23227   7.090   7.481   7.817
 7662WAT     H123228   7.103   7.545   7.741
 7662WAT     H223229   7.020   7.516   7.879
 7663WAT      O23230   3.450   2.612   5.011
 7663WAT     H123231   3.476   2.517   5.029
 7663WAT     H223232   3.529   2.662   4.977
 7664WAT      O23233   0.037   0.079   6.678
 7664WAT     H123234  -0.060   0.102   6.684
 7664WAT     H223235   0.091   0.150   6.724
 7665WAT      O23236   8.579   3.656   4.995
 7665WAT     H123237   8.594   3.557   4.997
 7665WAT     H223238   8.644   3.701   5.056
 7666WAT      O23239   0.253   8.138   1.450
 7666WAT     H123240   0.187   8.065   1.467
 7666WAT     H223241   0.272   8.144   1.352
 7667WAT      O23242   5.641   1.418   0.599
 7667WAT     H123243   5.693   1.343   0.640
 7667WAT     H223244   5.580   1.458   0.668
 7668WAT      O23245   3.537   7.396   1.730
 7668WAT     H123246   3.491   7.403   1.818
 7668WAT     H223247   3.491   7.456   1.664
 7669WAT      O23248   2.599   3.349   5.961
 7669WAT     H123249   2.517   3.406   5.953
 7669WAT     H223250   2.672   3.387   5.903
 7670WAT      O23251   7.169   0.074   8.579
 7670WAT     H123252   7.094   0.013   8.602
 7670WAT     H223253   7.162   0.102   8.483
 7671WAT      O23254   8.769   4.600   8.868
 7671WAT     H123255   8.780   4.624   8.965
 7671WAT     H223256   8.823   4.663   8.812
 7672WAT      O23257   3.740   3.983   2.865
 7672WAT     H123258   3.795   4.056   2.825
 7672WAT     H223259   3.799   3.923   2.919
 7673WAT      O23260   6.521   9.353   4.637
 7673WAT     H123261   6.425   9.353   4.665
 7673WAT     H223262   6.575   9.408   4.700
 7674WAT      O23263   1.089   4.555   9.538
 7674WAT     H123264   1.093   4.596   9.447
 7674WAT     H223265   1.011   4.593   9.588
 7675WAT      O23266   2.870   5.259   7.096
 7675WAT     H123267   2.905   5.232   7.186
 7675WAT     H223268   2.864   5.179   7.037
 7676WAT      O23269   0.158   0.698   5.879
 7676WAT     H123270   0.172   0.690   5.780
 7676WAT     H223271   0.071   0.654   5.904
 7677WAT      O23272   2.090   4.715   7.618
 7677WAT     H123273   2.121   4.810   7.615
 7677WAT     H223274   2.127   4.671   7.700
 7678WAT      O23275   0.363   9.558   4.072
 7678WAT     H123276   0.375   9.619   4.150
 7678WAT     H223277   0.446   9.505   4.059
 7679WAT      O23278   4.890   4.464   0.867
 7679WAT     H123279   4.923   4.509   0.784
 7679WAT     H223280   4.794   4.489   0.882
 7680WAT      O23281   3.942   8.015   9.407
 7680WAT     H123282   4.031   8.018   9.451
 7680WAT     H223283   3.932   8.094   9.346
 7681WAT      O23284   5.593   3.630   9.272
 7681WAT     H123285   5.603   3.712   9.329
 7681WAT     H223286   5.499   3.623   9.239
 7682WAT      O23287   7.284   2.057   3.842
 7682WAT     H123288   7.250   2.105   3.761
 7682WAT     H223289   7.335   1.976   3.814
 7683WAT      O23290   2.518   8.876   5.043
 7683WAT     H123291   2.499   8.936   4.966
 7683WAT     H223292   2.457   8.797   5.040
 7684WAT      O23293   9.578   3.661   0.636
 7684WAT     H123294   9.655   3.716   0.666
 7684WAT     H223295   9.589   3.567   0.668
 7685WAT      O23296   1.919   6.808   6.694
 7685WAT     H123297   1.867   6.724   6.704
 7685WAT     H223298   1.963   6.810   6.604
 7686WAT      O23299   6.042   0.390   3.555
 7686WAT     H123300   5.964   0.450   3.539
 7686WAT     H223301   6.126   0.437   3.530
 7687WAT      O23302   1.759   4.642   0.683
 7687WAT     H123303   1.787   4.611   0.774
 7687WAT     H223304   1.661   4.661   0.683
 7688WAT      O23305   6.148   5.327   5.911
 7688WAT     H123306   6.118   5.281   5.994
 7688WAT     H223307   6.238   5.368   5.927
 7689WAT      O23308   4.723   5.782   4.238
 7689WAT     H123309   4.663   5.711   4.275
 7689WAT     H223310   4.669   5.847   4.184
 7690WAT      O23311   4.180   0.644   5.704
 7690WAT     H123312   4.146   0.737   5.693
 7690WAT     H223313   4.273   0.638   5.668
 7691WAT      O23314   5.297   7.052   3.650
 7691WAT     H123315   5.228   7.087   3.714
 7691WAT     H223316   5.283   7.093   3.560
 7692WAT      O23317   9.738   6.319   0.269
 7692WAT     H123318   9.818   6.379   0.272
 7692WAT     H223319   9.719   6.284   0.361
 7693WAT      O23320   2.212   7.813   8.118
 7693WAT     H123321   2.142   7.876   8.086
 7693WAT     H223322   2.198   7.722   8.078
 7694WAT      O23323   5.845   1.339   4.204
 7694WAT     H123324   5.843   1.268   4.274
 7694WAT     H223325   5.756   1.344   4.159
 7695WAT      O23326   5.250   8.532   9.282
 7695WAT     H123327   5.269   8.475   9.362
 7695WAT     H223328   5.183   8.486   9.223
 7696WAT      O23329   9.006   2.878   7.174
 7696WAT     H123330   8.957   2.791   7.174
 7696WAT     H223331   9.077   2.875   7.104
 7697WAT      O23332   8.701   3.710   0.864
 7697WAT     H123333   8.610   3.741   0.891
 7697WAT     H223334   8.698   3.614   0.836
 7698WAT      O23335   4.928   1.863   9.019
 7698WAT     H123336   4.847   1.897   8.971
 7698WAT     H223337   4.920   1.764   9.032
 7699WAT      O23338   1.271   5.222   0.007
 7699WAT     H123339   1.325   5.214  -0.077
 7699WAT     H223340   1.196   5.155   0.004
 7700WAT      O23341   0.594   4.176   7.267
 7700WAT     H123342   0.671   4.113   7.253
 7700WAT     H223343   0.555   4.162   7.358
 7701WAT      O23344   7.966   6.034   8.063
 7701WAT     H123345   7.910   6.117   8.053
 7701WAT     H223346   8.057   6.060   8.097
 7702WAT      O23347   8.685   1.092   2.209
 7702WAT     H123348   8.700   1.153   2.131
 7702WAT     H223349   8.765   1.093   2.268
 7703WAT      O23350   9.118   9.507   5.967
 7703WAT     H123351   9.202   9.452   5.961
 7703WAT     H223352   9.049   9.469   5.906
 7704WAT      O23353   9.543   6.414   8.038
 7704WAT     H123354   9.474   6.396   8.109
 7704WAT     H223355   9.604   6.486   8.070
 7705WAT      O23356   6.484   2.870   2.180
 7705WAT     H123357   6.528   2.920   2.105
 7705WAT     H223358   6.419   2.804   2.142
 7706WAT      O23359   4.728   3.741   2.099
 7706WAT     H123360   4.641   3.755   2.051
 7706WAT     H223361   4.802   3.739   2.032
 7707WAT      O23362   5.051   7.636   6.656
 7707WAT     H123363   5.144   7.618   6.687
 7707WAT     H223364   5.035   7.734   6.651
 7708WAT      O23365   4.738   3.900   2.496
 7708WAT     H123366   4.735   3.802   2.478
 7708WAT     H223367   4.645   3.936   2.501
 7709WAT      O23368   3.147   5.494   3.625
 7709WAT     H123369   3.220   5.479   3.558
 7709WAT     H223370   3.074   5.548   3.583
 7710WAT      O23371   5.135   8.435   6.524
 7710WAT     H123372   5.132   8.514   6.585
 7710WAT     H223373   5.054   8.378   6.539
 7711WAT      O23374   6.179   9.046   6.060
 7711WAT     H123375   6.168   8.954   6.022
 7711WAT     H223376   6.088   9.085   6.079
 7712WAT      O23377   3.924   6.000   9.650
 7712WAT     H123378   3.904   5.906   9.621
 7712WAT     H223379   4.023   6.012   9.658
 7713WAT      O23380   7.400   5.754   7.751
 7713WAT     H123381   7.448   5.668   7.734
 7713WAT     H223382   7.466   5.829   7.755
 7714WAT      O23383   3.177   7.288   6.011
 7714WAT     H123384   3.103   7.280   6.078
 7714WAT     H223385   3.138   7.290   5.919
 7715WAT      O23386   4.939   6.554   0.865
 7715WAT     H123387   4.944   6.463   0.905
 7715WAT     H223388   4.957   6.623   0.935
 7716WAT      O23389   9.825   7.832   5.255
 7716WAT     H123390   9.810   7.873   5.345
 7716WAT     H223391   9.875   7.896   5.197
 7717WAT      O23392   1.036   8.439   2.353
 7717WAT     H123393   1.026   8.410   2.258
 7717WAT     H223394   0.978   8.519   2.370
 7718WAT      O23395   9.373   3.684   5.252
 7718WAT     H123396   9.460   3.732   5.254
 7718WAT     H223397   9.317   3.715   5.330
 7719WAT      O23398   3.872   5.843   0.560
 7719WAT     H123399   3.778   5.871   0.583
 7719WAT     H223400   3.870   5.767   0.495
 7720WAT      O23401   0.919   8.260   3.614
 7720WAT     H123402   0.827   8.222   3.622
 7720WAT     H223403   0.985   8.185   3.603
 7721WAT      O23404   4.153   6.668   3.745
 7721WAT     H123405   4.110   6.635   3.661
 7721WAT     H223406   4.225   6.733   3.723
 7722WAT      O23407   7.982   1.433   0.729
 7722WAT     H123408   8.004   1.530   0.738
 7722WAT     H223409   8.037   1.393   0.655
 7723WAT      O23410   2.892   0.631   3.342
 7723WAT     H123411   2.873   0.606   3.437
 7723WAT     H223412   2.886   0.730   3.332
 7724WAT      O23413   5.670   1.130   0.860
 7724WAT     H123414   5.647   1.035   0.837
 7724WAT     H223415   5.741   1.163   0.796
 7725WAT      O23416   7.874   2.830   1.876
 7725WAT     H123417   7.870   2.911   1.819
 7725WAT     H223418   7.831   2.849   1.965
 7726WAT      O23419   2.697   0.905   6.089
 7726WAT     H123420   2.770   0.845   6.122
 7726WAT     H223421   2.612   0.883   6.136
 7727WAT      O23422   8.462   7.182   6.911
 7727WAT     H123423   8.496   7.195   6.818
 7727WAT     H223424   8.535   7.200   6.976
 7728WAT      O23425   4.070   0.084   5.759
 7728WAT     H123426   4.087   0.022   5.836
 7728WAT     H223427   3.971   0.094   5.746
 7729WAT      O23428   6.234   2.988   9.295
 7729WAT     H123429   6.188   3.051   9.357
 7729WAT     H223430   6.208   3.011   9.201
 7730WAT      O23431   2.523   8.914   0.823
 7730WAT     H123432   2.509   8.939   0.727
 7730WAT     H223433   2.434   8.910   0.870
 7731WAT      O23434   1.838   5.424   9.142
 7731WAT     H123435   1.863   5.483   9.066
 7731WAT     H223436   1.777   5.352   9.111
 7732WAT      O23437   8.980   7.553   2.857
 7732WAT     H123438   8.933   7.640   2.872
 7732WAT     H223439   9.049   7.564   2.785
 7733WAT      O23440   1.778   5.485   2.717
 7733WAT     H123441   1.702   5.542   2.749
 7733WAT     H223442   1.843   5.542   2.667
 7734WAT      O23443   9.791   7.932   8.311
 7734WAT     H123444   9.707   7.963   8.356
 7734WAT     H223445   9.861   7.915   8.381
 7735WAT      O23446   9.162   1.057   9.018
 7735WAT     H123447   9.074   1.036   8.976
 7735WAT     H223448   9.159   1.033   9.115
 7736WAT      O23449   7.947   7.151   9.045
 7736WAT     H123450   7.890   7.092   8.988
 7736WAT     H223451   8.003   7.210   8.986
 7737WAT      O23452   5.616   2.950   9.067
 7737WAT     H123453   5.602   3.048   9.062
 7737WAT     H223454   5.559   2.912   9.140
 7738WAT      O23455   6.004   1.211   3.740
 7738WAT     H123456   6.050   1.233   3.826
 7738WAT     H223457   5.998   1.294   3.684
 7739WAT      O23458   4.132   3.402   5.190
 7739WAT     H123459   4.110   3.474   5.256
 7739WAT     H223460   4.115   3.313   5.232
 7740WAT      O23461   8.762   1.227   6.759
 7740WAT     H123462   8.819   1.177   6.694
 7740WAT     H223463   8.671   1.243   6.720
 7741WAT      O23464   9.712   3.009   0.360
 7741WAT     H123465   9.766   2.935   0.401
 7741WAT     H223466   9.708   2.996   0.261
 7742WAT      O23467   9.421   2.710   6.229
 7742WAT     H123468   9.430   2.637   6.162
 7742WAT     H223469   9.445   2.676   6.320
 7743WAT      O23470   1.939   7.368   3.982
 7743WAT     H123471   2.019   7.405   4.028
 7743WAT     H223472   1.969   7.314   3.903
 7744WAT      O23473   7.348   1.138   4.559
 7744WAT     H123474   7.295   1.186   4.489
 7744WAT     H223475   7.297   1.059   4.591
 7745WAT      O23476   5.072   8.233   9.409
 7745WAT     H123477   5.062   8.183   9.495
 7745WAT     H223478   5.135   8.309   9.422
 7746WAT      O23479   3.887   2.026   0.740
 7746WAT     H123480   3.972   1.978   0.758
 7746WAT     H223481   3.868   2.025   0.641
 7747WAT      O23482   7.531   5.512   7.707
 7747WAT     H123483   7.582   5.561   7.636
 7747WAT     H223484   7.594   5.455   7.760
 7748WAT      O23485   9.670   0.566   5.040
 7748WAT     H123486   9.684   0.599   4.947
 7748WAT     H223487   9.747   0.593   5.098
 7749WAT      O23488   1.015   2.520   4.769
 7749WAT     H123489   0.937   2.539   4.829
 7749WAT     H223490   1.099   2.551   4.813
 7750WAT      O23491   7.493   8.123   7.737
 7750WAT     H123492   7.547   8.039   7.741
 7750WAT     H223493   7.413   8.109   7.679
 7751WAT      O23494   9.215   6.923   8.458
 7751WAT     H123495   9.247   6.837   8.418
 7751WAT     H223496   9.176   6.905   8.549
 7752WAT      O23497   8.945   4.011   0.286
 7752WAT     H123498   8.966   3.918   0.315
 7752WAT     H223499   8.952   4.017   0.186
 7753WAT      O23500   1.322   6.137   2.187
 7753WAT     H123501   1.338   6.041   2.164
 7753WAT     H223502   1.409   6.186   2.189
 7754WAT      O23503   4.686   4.605   1.382
 7754WAT     H123504   4.611   4.613   1.448
 7754WAT     H223505   4.773   4.625   1.428
 7755WAT      O23506   1.121   3.604   4.836
 7755WAT     H123507   1.115   3.529   4.901
 7755WAT     H223508   1.186   3.672   4.871
 7756WAT      O23509   7.695   3.424   9.822
 7756WAT     H123510   7.755   3.380   9.889
 7756WAT     H223511   7.607   3.444   9.864
 7757WAT      O23512   6.366   3.874   0.697
 7757WAT     H123513   6.288   3.842   0.642
 7757WAT     H223514   6.451   3.848   0.653
 7758WAT      O23515   3.079   9.731   8.860
 7758WAT     H123516   3.039   9.822   8.863
 7758WAT     H223517   3.153   9.725   8.927
 7759WAT      O23518   2.253   1.382   0.276
 7759WAT     H123519   2.176   1.322   0.295
 7759WAT     H223520   2.224   1.477   0.288
 7760WAT      O23521   5.500   6.723   6.490
 7760WAT     H123522   5.436   6.655   6.455
 7760WAT     H223523   5.461   6.815   6.479
 7761WAT      O23524   6.570   7.414   7.471
 7761WAT     H123525   6.563   7.334   7.411
 7761WAT     H223526   6.517   7.489   7.433
 7762WAT      O23527   8.762   7.688   2.296
 7762WAT     H123528   8.708   7.646   2.369
 7762WAT     H223529   8.791   7.617   2.231
 7763WAT      O23530   2.946   6.818   3.473
 7763WAT     H123531   2.866   6.803   3.531
 7763WAT     H223532   3.009   6.741   3.484
 7764WAT      O23533   8.689   4.828   8.470
 7764WAT     H123534   8.779   4.870   8.485
 7764WAT     H223535   8.679   4.806   8.373
 7765WAT      O23536   7.883   7.254   4.570
 7765WAT     H123537   7.869   7.241   4.668
 7765WAT     H223538   7.912   7.348   4.552
 7766WAT      O23539   9.422   5.610   9.214
 7766WAT     H123540   9.433   5.702   9.177
 7766WAT     H223541   9.341   5.567   9.173
 7767WAT      O23542   5.170   4.835   0.596
 7767WAT     H123543   5.128   4.839   0.505
 7767WAT     H223544   5.227   4.752   0.603
 7768WAT      O23545   9.058   2.491   3.026
 7768WAT     H123546   9.020   2.473   2.935
 7768WAT     H223547   9.007   2.564   3.070
 7769WAT      O23548   6.610   1.979   4.875
 7769WAT     H123549   6.550   1.929   4.938
 7769WAT     H223550   6.586   1.955   4.781
 7770WAT      O23551   4.324   9.462   8.229
 7770WAT     H123552   4.389   9.481   8.302
 7770WAT     H223553   4.350   9.378   8.181
 7771WAT      O23554   6.549   1.360   4.309
 7771WAT     H123555   6.499   1.393   4.229
 7771WAT     H223556   6.622   1.424   4.332
 7772WAT      O23557   9.316   7.265   8.240
 7772WAT     H123558   9.379   7.188   8.227
 7772WAT     H223559   9.223   7.231   8.250
 7773WAT      O23560   5.536   5.292   4.764
 7773WAT     H123561   5.544   5.204   4.719
 7773WAT     H223562   5.494   5.358   4.703
 7774WAT      O23563   5.458   1.328   2.738
 7774WAT     H123564   5.422   1.289   2.654
 7774WAT     H223565   5.498   1.256   2.794
 7775WAT      O23566   0.675   4.875   8.025
 7775WAT     H123567   0.735   4.795   8.028
 7775WAT     H223568   0.730   4.958   8.015
 7776WAT      O23569   9.450   5.693   1.316
 7776WAT     H123570   9.416   5.783   1.287
 7776WAT     H223571   9.489   5.700   1.408
 7777WAT      O23572   8.526   1.051   0.988
 7777WAT     H123573   8.514   1.131   0.929
 7777WAT     H223574   8.469   1.061   1.070
 7778WAT      O23575   8.864   6.717   7.878
 7778WAT     H123576   8.841   6.638   7.821
 7778WAT     H223577   8.798   6.790   7.862
 7779WAT      O23578   0.005   5.906   5.670
 7779WAT     H123579   0.093   5.909   5.718
 7779WAT     H223580  -0.067   5.933   5.734
 7780WAT      O23581   7.822   0.140   2.740
 7780WAT     H123582   7.818   0.043   2.764
 7780WAT     H223583   7.897   0.183   2.791
 7781WAT      O23584   6.784   6.697   7.740
 7781WAT     H123585   6.767   6.618   7.682
 7781WAT     H223586   6.879   6.695   7.773
 7782WAT      O23587   1.422   9.050   7.437
 7782WAT     H123588   1.490   8.993   7.483
 7782WAT     H223589   1.459   9.082   7.350
 7783WAT      O23590   3.191   7.499   8.425
 7783WAT     H123591   3.260   7.565   8.397
 7783WAT     H223592   3.119   7.545   8.477
 7784WAT      O23593   5.985   5.031   9.085
 7784WAT     H123594   5.960   4.970   9.009
 7784WAT     H223595   5.916   5.024   9.157
 7785WAT      O23596   8.934   4.642   4.447
 7785WAT     H123597   8.876   4.692   4.383
 7785WAT     H223598   9.019   4.692   4.463
 7786WAT      O23599   2.350   7.049   3.062
 7786WAT     H123600   2.271   7.027   3.005
 7786WAT     H223601   2.321   7.055   3.158
 7787WAT      O23602   0.793   5.196   6.381
 7787WAT     H123603   0.746   5.242   6.306
 7787WAT     H223604   0.734   5.196   6.462
 7788WAT      O23605   6.833   7.948   2.738
 7788WAT     H123606   6.918   7.905   2.767
 7788WAT     H223607   6.850   8.043   2.712
 7789WAT      O23608   0.178   1.692   3.879
 7789WAT     H123609   0.179   1.791   3.863
 7789WAT     H223610   0.236   1.670   3.957
 7790WAT      O23611   6.273   4.433   8.731
 7790WAT     H123612   6.353   4.378   8.707
 7790WAT     H223613   6.198   4.372   8.755
 7791WAT      O23614   9.359   6.480   1.513
 7791WAT     H123615   9.295   6.411   1.482
 7791WAT     H223616   9.377   6.545   1.438
 7792WAT      O23617   8.867   6.973   1.569
 7792WAT     H123618   8.805   6.907   1.527
 7792WAT     H223619   8.904   6.936   1.654
 7793WAT      O23620   3.490   3.300   8.357
 7793WAT     H123621   3.484   3.354   8.273
 7793WAT     H223622   3.465   3.357   8.435
 7794WAT      O23623   2.802   8.503   7.780
 7794WAT     H123624   2.853   8.423   7.748
 7794WAT     H223625   2.855   8.549   7.851
 7795WAT      O23626   2.043   4.972   0.040
 7795WAT     H123627   2.053   4.945  -0.056
 7795WAT     H223628   1.964   4.924   0.080
 7796WAT      O23629   0.071   3.601   8.853
 7796WAT     H123630  -0.002   3.580   8.917
 7796WAT     H223631   0.160   3.584   8.895
 7797WAT      O23632   7.689   0.888   0.253
 7797WAT     H123633   7.767   0.824   0.257
 7797WAT     H223634   7.659   0.910   0.346
 7798WAT      O23635   1.432   2.260   8.440
 7798WAT     H123636   1.348   2.220   8.478
 7798WAT     H223637   1.490   2.187   8.403
 7799WAT      O23638   4.003   8.688   5.299
 7799WAT     H123639   4.073   8.626   5.333
 7799WAT     H223640   4.046   8.772   5.266
 7800WAT      O23641   2.273   3.702   6.666
 7800WAT     H123642   2.359   3.723   6.620
 7800WAT     H223643   2.292   3.652   6.750
 7801WAT      O23644   3.750   8.100   1.507
 7801WAT     H123645   3.663   8.075   1.550
 7801WAT     H223646   3.812   8.136   1.577
 7802WAT      O23647   0.286   4.689   3.964
 7802WAT     H123648   0.357   4.674   3.895
 7802WAT     H223649   0.292   4.618   4.034
 7803WAT      O23650   5.660   3.366   5.882
 7803WAT     H123651   5.670   3.364   5.782
 7803WAT     H223652   5.742   3.406   5.923
 7804WAT      O23653   0.643   0.391   0.931
 7804WAT     H123654   0.579   0.467   0.926
 7804WAT     H223655   0.667   0.362   0.838
 7805WAT      O23656   7.343   7.696   8.471
 7805WAT     H123657   7.393   7.762   8.528
 7805WAT     H223658   7.398   7.673   8.391
 7806WAT      O23659   6.534   7.612   2.711
 7806WAT     H123660   6.589   7.582   2.790
 7806WAT     H223661   6.571   7.698   2.676
 7807WAT      O23662   4.225   8.389   0.793
 7807WAT     H123663   4.243   8.291   0.804
 7807WAT     H223664   4.218   8.411   0.696
 7808WAT      O23665   9.225   8.392   0.232
 7808WAT     H123666   9.192   8.483   0.206
 7808WAT     H223667   9.210   8.378   0.330
 7809WAT      O23668   4.889   0.983   0.005
 7809WAT     H123669   4.981   0.972   0.042
 7809WAT     H223670   4.859   0.898  -0.036
 7810WAT      O23671   0.233   6.531   8.956
 7810WAT     H123672   0.230   6.459   9.025
 7810WAT     H223673   0.144   6.538   8.910
 7811WAT      O23674   2.584   1.555   0.893
 7811WAT     H123675   2.514   1.488   0.919
 7811WAT     H223676   2.553   1.647   0.919
 7812WAT      O23677   2.685   2.088   8.302
 7812WAT     H123678   2.614   2.043   8.356
 7812WAT     H223679   2.735   2.020   8.249
 7813WAT      O23680   4.650   9.765   7.560
 7813WAT     H123681   4.640   9.671   7.593
 7813WAT     H223682   4.643   9.766   7.460
 7814WAT      O23683   5.729   1.650   0.750
 7814WAT     H123684   5.709   1.746   0.731
 7814WAT     H223685   5.701   1.594   0.673
 7815WAT      O23686   8.908   9.516   3.266
 7815WAT     H123687   8.866   9.607   3.256
 7815WAT     H223688   8.841   9.454   3.307
 7816WAT      O23689   7.927   0.049   8.010
 7816WAT     H123690   7.844   0.095   8.041
 7816WAT     H223691   7.929   0.046   7.910
 7817WAT      O23692   9.741   6.658   2.573
 7817WAT     H123693   9.694   6.585   2.622
 7817WAT     H223694   9.812   6.619   2.515
 7818WAT      O23695   1.654   8.506   8.696
 7818WAT     H123696   1.632   8.460   8.610
 7818WAT     H223697   1.656   8.438   8.770
 7819WAT      O23698   1.850   5.877   6.502
 7819WAT     H123699   1.897   5.951   6.549
 7819WAT     H223700   1.752   5.883   6.519
 7820WAT      O23701   1.964   2.350   9.255
 7820WAT     H123702   1.963   2.254   9.227
 7820WAT     H223703   2.043   2.367   9.313
 7821WAT      O23704   7.745   0.214   4.284
 7821WAT     H123705   7.677   0.172   4.344
 7821WAT     H223706   7.806   0.271   4.338
 7822WAT      O23707   8.012   6.356   0.359
 7822WAT     H123708   7.959   6.438   0.380
 7822WAT     H223709   7.988   6.284   0.424
 7823WAT      O23710   6.594   5.103   7.739
 7823WAT     H123711   6.630   5.040   7.808
 7823WAT     H223712   6.532   5.168   7.782
 7824WAT      O23713   2.005   0.594   2.960
 7824WAT     H123714   2.002   0.546   3.048
 7824WAT     H223715   1.912   0.601   2.923
 7825WAT      O23716   2.263   2.751   6.694
 7825WAT     H123717   2.352   2.784   6.725
 7825WAT     H223718   2.201   2.829   6.681
 7826WAT      O23719   2.609   4.321   2.746
 7826WAT     H123720   2.547   4.327   2.825
 7826WAT     H223721   2.699   4.289   2.775
 7827WAT      O23722   3.254   6.149   2.874
 7827WAT     H123723   3.321   6.078   2.852
 7827WAT     H223724   3.166   6.127   2.832
 7828WAT      O23725   0.616   6.000   6.652
 7828WAT     H123726   0.682   5.925   6.643
 7828WAT     H223727   0.561   6.006   6.569
 7829WAT      O23728   2.861   8.118   3.006
 7829WAT     H123729   2.896   8.080   3.092
 7829WAT     H223730   2.854   8.218   3.015
 7830WAT      O23731   3.248   0.500   4.002
 7830WAT     H123732   3.265   0.536   3.911
 7830WAT     H223733   3.209   0.408   3.994
 7831WAT      O23734   3.846   0.466   3.682
 7831WAT     H123735   3.893   0.483   3.595
 7831WAT     H223736   3.861   0.544   3.743
 7832WAT      O23737   6.199   3.192   2.237
 7832WAT     H123738   6.148   3.171   2.320
 7832WAT     H223739   6.137   3.236   2.171
 7833WAT      O23740   5.885   3.567   1.902
 7833WAT     H123741   5.863   3.618   1.985
 7833WAT     H223742   5.890   3.469   1.923
 7834WAT      O23743   7.177   9.313   4.786
 7834WAT     H123744   7.263   9.362   4.769
 7834WAT     H223745   7.193   9.240   4.853
 7835WAT      O23746   9.721   9.369   3.812
 7835WAT     H123747   9.673   9.425   3.880
 7835WAT     H223748   9.672   9.371   3.726
 7836WAT      O23749   0.497   7.544   1.544
 7836WAT     H123750   0.481   7.473   1.612
 7836WAT     H223751   0.417   7.604   1.538
 7837WAT      O23752   2.262   6.580   6.466
 7837WAT     H123753   2.266   6.484   6.495
 7837WAT     H223754   2.288   6.639   6.543
 7838WAT      O23755   2.797   0.639   4.277
 7838WAT     H123756   2.876   0.700   4.283
 7838WAT     H223757   2.816   0.567   4.210
 7839WAT      O23758   7.183   0.339   6.896
 7839WAT     H123759   7.154   0.294   6.981
 7839WAT     H223760   7.191   0.272   6.823
 7840WAT      O23761   6.692   0.163   5.748
 7840WAT     H123762   6.678   0.259   5.774
 7840WAT     H223763   6.788   0.139   5.761
 7841WAT      O23764   6.436   3.997   8.699
 7841WAT     H123765   6.416   3.999   8.797
 7841WAT     H223766   6.481   3.911   8.676
 7842WAT      O23767   8.633   2.557   5.269
 7842WAT     H123768   8.589   2.516   5.348
 7842WAT     H223769   8.684   2.638   5.298
 7843WAT      O23770   2.299   4.120   1.836
 7843WAT     H123771   2.380   4.063   1.828
 7843WAT     H223772   2.268   4.120   1.931
 7844WAT      O23773   7.396   1.186   4.926
 7844WAT     H123774   7.392   1.285   4.913
 7844WAT     H223775   7.356   1.141   4.846
 7845WAT      O23776   0.043   3.386   5.284
 7845WAT     H123777   0.125   3.364   5.336
 7845WAT     H223778  -0.000   3.302   5.252
 7846WAT      O23779   1.979   5.188   0.575
 7846WAT     H123780   2.077   5.195   0.594
 7846WAT     H223781   1.937   5.278   0.583
 7847WAT      O23782   6.515   2.299   4.980
 7847WAT     H123783   6.599   2.346   4.956
 7847WAT     H223784   6.502   2.221   4.920
 7848WAT      O23785   6.222   9.410   5.617
 7848WAT     H123786   6.191   9.320   5.587
 7848WAT     H223787   6.314   9.403   5.656
 7849WAT      O23788   6.898   1.855   2.026
 7849WAT     H123789   6.803   1.886   2.017
 7849WAT     H223790   6.960   1.933   2.013
 7850WAT      O23791   4.014   3.770   1.604
 7850WAT     H123792   4.064   3.855   1.622
 7850WAT     H223793   3.916   3.790   1.597
 7851WAT      O23794   2.125   2.001   8.341
 7851WAT     H123795   2.096   2.095   8.322
 7851WAT     H223796   2.046   1.939   8.333
 7852WAT      O23797   2.256   2.662   8.664
 7852WAT     H123798   2.164   2.633   8.640
 7852WAT     H223799   2.320   2.636   8.592
 7853WAT      O23800   2.776   9.716   1.421
 7853WAT     H123801   2.701   9.659   1.454
 7853WAT     H223802   2.783   9.708   1.322
 7854WAT      O23803   4.211   6.421   0.044
 7854WAT     H123804   4.307   6.417   0.016
 7854WAT     H223805   4.162   6.483  -0.017
 7855WAT      O23806   8.136   8.431   5.297
 7855WAT     H123807   8.178   8.378   5.371
 7855WAT     H223808   8.170   8.399   5.209
 7856WAT      O23809   2.576   2.651   3.239
 7856WAT     H123810   2.560   2.749   3.248
 7856WAT     H223811   2.622   2.632   3.153
 7857WAT      O23812   2.536   8.508   7.806
 7857WAT     H123813   2.634   8.517   7.824
 7857WAT     H223814   2.490   8.594   7.826
 7858WAT      O23815   5.387   4.475   2.390
 7858WAT     H123816   5.383   4.533   2.472
 7858WAT     H223817   5.300   4.482   2.341
 7859WAT      O23818   4.269   8.382   9.075
 7859WAT     H123819   4.246   8.287   9.098
 7859WAT     H223820   4.201   8.417   9.010
 7860WAT      O23821   1.795   2.852   4.692
 7860WAT     H123822   1.862   2.820   4.625
 7860WAT     H223823   1.748   2.773   4.732
 7861WAT      O23824   1.103   3.314   0.330
 7861WAT     H123825   1.183   3.270   0.372
 7861WAT     H223826   1.035   3.332   0.401
 7862WAT      O23827   5.447   8.730   7.508
 7862WAT     H123828   5.390   8.755   7.586
 7862WAT     H223829   5.519   8.799   7.497
 7863WAT      O23830   1.418   3.452   8.670
 7863WAT     H123831   1.468   3.407   8.744
 7863WAT     H223832   1.460   3.541   8.651
 7864WAT      O23833   2.629   6.226   0.171
 7864WAT     H123834   2.565   6.232   0.095
 7864WAT     H223835   2.720   6.253   0.140
 7865WAT      O23836   3.508   2.959   7.345
 7865WAT     H123837   3.530   3.029   7.413
 7865WAT     H223838   3.552   2.873   7.369
 7866WAT      O23839   4.656   3.774   6.819
 7866WAT     H123840   4.585   3.746   6.754
 7866WAT     H223841   4.687   3.866   6.796
 7867WAT      O23842   4.790   5.227   7.330
 7867WAT     H123843   4.798   5.202   7.426
 7867WAT     H223844   4.716   5.293   7.319
 7868WAT      O23845   5.357   9.260   3.377
 7868WAT     H123846   5.291   9.313   3.324
 7868WAT     H223847   5.325   9.166   3.386
 7869WAT      O23848   0.088   8.163   1.778
 7869WAT     H123849   0.020   8.236   1.788
 7869WAT     H223850   0.180   8.201   1.784
 7870WAT      O23851   8.150   6.559   7.736
 7870WAT     H123852   8.135   6.584   7.640
 7870WAT     H223853   8.077   6.497   7.766
 7871WAT      O23854   1.957   3.562   3.153
 7871WAT     H123855   1.873   3.510   3.134
 7871WAT     H223856   2.031   3.527   3.097
 7872WAT      O23857   6.165   0.673   6.109
 7872WAT     H123858   6.153   0.772   6.099
 7872WAT     H223859   6.255   0.646   6.074
 7873WAT      O23860   5.956   4.735   0.396
 7873WAT     H123861   5.901   4.728   0.313
 7873WAT     H223862   5.968   4.831   0.419
 7874WAT      O23863   9.333   2.651   6.769
 7874WAT     H123864   9.295   2.561   6.751
 7874WAT     H223865   9.383   2.683   6.688
 7875WAT      O23866   7.659   1.054   9.636
 7875WAT     H123867   7.709   1.103   9.565
 7875WAT     H223868   7.663   0.956   9.618
 7876WAT      O23869   3.464   9.736   4.189
 7876WAT     H123870   3.517   9.685   4.121
 7876WAT     H223871   3.526   9.783   4.252
 7877WAT      O23872   9.555   4.915   1.890
 7877WAT     H123873   9.544   4.853   1.812
 7877WAT     H223874   9.644   4.898   1.933
 7878WAT      O23875   8.089   2.702   3.157
 7878WAT     H123876   8.165   2.726   3.217
 7878WAT     H223877   8.042   2.621   3.193
 7879WAT      O23878   7.228   3.140   3.721
 7879WAT     H123879   7.246   3.234   3.693
 7879WAT     H223880   7.143   3.108   3.679
 7880WAT      O23881   2.024   8.856   6.671
 7880WAT     H123882   1.998   8.786   6.738
 7880WAT     H223883   1.999   8.946   6.705
 7881WAT      O23884   4.930   7.054   4.488
 7881WAT     H123885   4.833   7.072   4.470
 7881WAT     H223886   4.960   7.107   4.567
 7882WAT      O23887   8.706   5.641   5.007
 7882WAT     H123888   8.750   5.729   5.023
 7882WAT     H223889   8.774   5.574   4.979
 7883WAT      O23890   4.055   8.578   0.982
 7883WAT     H123891   4.114   8.554   0.905
 7883WAT     H223892   4.024   8.494   1.028
 7884WAT      O23893   1.462   2.843   2.600
 7884WAT     H123894   1.369   2.839   2.636
 7884WAT     H223895   1.462   2.894   2.513
 7885WAT      O23896   5.212   5.361   6.745
 7885WAT     H123897   5.292   5.331   6.693
 7885WAT     H223898   5.141   5.392   6.682
 7886WAT      O23899   3.001   2.236   5.946
 7886WAT     H123900   3.018   2.188   5.860
 7886WAT     H223901   2.905   2.265   5.949
 7887WAT      O23902   4.976   2.290   7.903
 7887WAT     H123903   4.904   2.339   7.951
 7887WAT     H223904   5.032   2.355   7.852
 7888WAT      O23905   8.673   2.110   5.713
 7888WAT     H123906   8.753   2.170   5.716
 7888WAT     H223907   8.675   2.047   5.791
 7889WAT      O23908   0.461   2.898   8.096
 7889WAT     H123909   0.369   2.904   8.136
 7889WAT     H223910   0.514   2.978   8.123
 7890WAT      O23911   7.695   2.828   7.791
 7890WAT     H123912   7.597   2.808   7.779
 7890WAT     H223913   7.739   2.835   7.702
 7891WAT      O23914   4.359   6.567   8.352
 7891WAT     H123915   4.351   6.542   8.449
 7891WAT     H223916   4.401   6.657   8.344
 7892WAT      O23917   0.199   5.754   1.454
 7892WAT     H123918   0.198   5.853   1.468
 7892WAT     H223919   0.278   5.730   1.398
 7893WAT      O23920   8.704   2.966   7.474
 7893WAT     H123921   8.700   3.043   7.410
 7893WAT     H223922   8.790   2.970   7.525
 7894WAT      O23923   1.252   4.650   2.075
 7894WAT     H123924   1.321   4.582   2.048
 7894WAT     H223925   1.276   4.739   2.036
 7895WAT      O23926   8.406   1.422   0.386
 7895WAT     H123927   8.474   1.495   0.374
 7895WAT     H223928   8.384   1.382   0.297
 7896WAT      O23929   1.811   6.753   4.863
 7896WAT     H123930   1.750   6.804   4.924
 7896WAT     H223931   1.763   6.671   4.829
 7897WAT      O23932   8.324   6.635   3.180
 7897WAT     H123933   8.402   6.667   3.234
 7897WAT     H223934   8.283   6.555   3.225
 7898WAT      O23935   5.442   3.489   5.232
 7898WAT     H123936   5.520   3.467   5.289
 7898WAT     H223937   5.387   3.407   5.217
 7899WAT      O23938   3.009   5.478   7.528
 7899WAT     H123939   3.072   5.400   7.520
 7899WAT     H223940   3.045   5.542   7.596
 7900WAT      O23941   9.651   8.564   5.772
 7900WAT     H123942   9.685   8.631   5.707
 7900WAT     H223943   9.553   8.552   5.759
 7901WAT      O23944   6.467   0.072   2.376
 7901WAT     H123945   6.396   0.133   2.412
 7901WAT     H223946   6.425  -0.014   2.347
 7902WAT      O23947   9.349   1.511   8.126
 7902WAT     H123948   9.318   1.545   8.214
 7902WAT     H223949   9.281   1.531   8.056
 7903WAT      O23950   3.600   2.889   3.118
 7903WAT     H123951   3.526   2.914   3.180
 7903WAT     H223952   3.562   2.873   3.026
 7904WAT      O23953   0.412   6.293   9.643
 7904WAT     H123954   0.501   6.258   9.614
 7904WAT     H223955   0.405   6.390   9.621
 7905WAT      O23956   6.060   0.302   8.084
 7905WAT     H123957   6.029   0.216   8.045
 7905WAT     H223958   5.983   0.352   8.122
 7906WAT      O23959   3.183   2.046   4.306
 7906WAT     H123960   3.237   2.065   4.224
 7906WAT     H223961   3.110   2.114   4.314
 7907WAT      O23962   3.821   2.451   0.790
 7907WAT     H123963   3.834   2.360   0.828
 7907WAT     H223964   3.747   2.497   0.838
 7908WAT      O23965   9.359   6.617   9.145
 7908WAT     H123966   9.364   6.549   9.072
 7908WAT     H223967   9.346   6.708   9.104
 7909WAT      O23968   5.311   3.401   8.832
 7909WAT     H123969   5.409   3.414   8.847
 7909WAT     H223970   5.260   3.477   8.873
 7910WAT      O23971   8.377   3.639   0.486
 7910WAT     H123972   8.318   3.595   0.418
 7910WAT     H223973   8.429   3.713   0.442
 7911WAT      O23974   4.727   9.455   6.209
 7911WAT     H123975   4.791   9.489   6.140
 7911WAT     H223976   4.660   9.395   6.166
 7912WAT      O23977   3.636   6.836   6.262
 7912WAT     H123978   3.681   6.917   6.298
 7912WAT     H223979   3.704   6.776   6.220
 7913WAT      O23980   2.212   7.741   1.724
 7913WAT     H123981   2.237   7.658   1.774
 7913WAT     H223982   2.185   7.812   1.789
 7914WAT      O23983   5.657   3.257   4.069
 7914WAT     H123984   5.623   3.349   4.091
 7914WAT     H223985   5.738   3.264   4.011
 7915WAT      O23986   7.732   2.337   4.845
 7915WAT     H123987   7.638   2.353   4.816
 7915WAT     H223988   7.746   2.240   4.863
 7916WAT      O23989   3.883   1.048   6.480
 7916WAT     H123990   3.886   1.016   6.574
 7916WAT     H223991   3.964   1.014   6.431
 7917WAT      O23992   8.746   5.434   4.214
 7917WAT     H123993   8.729   5.382   4.298
 7917WAT     H223994   8.795   5.376   4.148
 7918WAT      O23995   8.340   4.902   0.415
 7918WAT     H123996   8.298   4.842   0.483
 7918WAT     H223997   8.387   4.847   0.346
 7919WAT      O23998   1.692   3.198   2.610
 7919WAT     H123999   1.611   3.144   2.590
 7919WAT     H224000   1.723   3.179   2.703
 7920WAT      O24001   0.976   7.018   6.994
 7920WAT     H124002   0.917   6.973   7.061
 7920WAT     H224003   1.019   6.950   6.935
 7921WAT      O24004   6.674   1.328   7.968
 7921WAT     H124005   6.681   1.297   8.063
 7921WAT     H224006   6.630   1.258   7.913
 7922WAT      O24007   8.299   9.379   5.427
 7922WAT     H124008   8.365   9.446   5.395
 7922WAT     H224009   8.210   9.423   5.441
 7923WAT      O24010   2.272   4.112   4.568
 7923WAT     H124011   2.268   4.211   4.579
 7923WAT     H224012   2.253   4.088   4.473
 7924WAT      O24013   5.864   4.383   8.659
 7924WAT     H124014   5.888   4.372   8.562
 7924WAT     H224015   5.773   4.345   8.675
 7925WAT      O24016   9.672   6.758   9.628
 7925WAT     H124017   9.756   6.793   9.588
 7925WAT     H224018   9.674   6.658   9.628
 7926WAT      O24019   6.503   8.546   2.236
 7926WAT     H124020   6.480   8.574   2.329
 7926WAT     H224021   6.531   8.626   2.183
 7927WAT      O24022   7.177   3.768   2.474
 7927WAT     H124023   7.247   3.773   2.402
 7927WAT     H224024   7.221   3.772   2.564
 7928WAT      O24025   0.274   3.888   3.981
 7928WAT     H124026   0.324   3.806   4.009
 7928WAT     H224027   0.178   3.864   3.965
 7929WAT      O24028   3.908   6.276   6.806
 7929WAT     H124029   3.838   6.271   6.877
 7929WAT     H224030   3.935   6.371   6.792
 7930WAT      O24031   7.039   4.092   2.976
 7930WAT     H124032   7.001   4.147   3.050
 7930WAT     H224033   6.966   4.042   2.930
 7931WAT      O24034   7.173   6.629   6.158
 7931WAT     H124035   7.150   6.555   6.093
 7931WAT     H224036   7.099   6.639   6.224
 7932WAT      O24037   4.926   4.694   0.675
 7932WAT     H124038   5.007   4.734   0.633
 7932WAT     H224039   4.902   4.747   0.757
 7933WAT      O24040   6.626   3.214   2.719
 7933WAT     H124041   6.684   3.185   2.794
 7933WAT     H224042   6.581   3.135   2.679
 7934WAT      O24043   5.799   8.303   2.571
 7934WAT     H124044   5.848   8.243   2.635
 7934WAT     H224045   5.758   8.247   2.499
 7935WAT      O24046   1.093   1.844   4.648
 7935WAT     H124047   1.020   1.911   4.660
 7935WAT     H224048   1.056   1.763   4.603
 7936WAT      O24049   3.425   4.927   3.611
 7936WAT     H124050   3.522   4.950   3.605
 7936WAT     H224051   3.372   4.994   3.559
 7937WAT      O24052   5.645   9.362   9.501
 7937WAT     H124053   5.621   9.459   9.507
 7937WAT     H224054   5.734   9.347   9.542
 7938WAT      O24055   1.611   1.493   7.387
 7938WAT     H124056   1.515   1.494   7.360
 7938WAT     H224057   1.666   1.451   7.314
 7939WAT      O24058   5.733   0.704   7.249
 7939WAT     H124059   5.680   0.672   7.170
 7939WAT     H224060   5.828   0.717   7.222
 7940WAT      O24061   7.699   2.688   6.215
 7940WAT     H124062   7.702   2.646   6.306
 7940WAT     H224063   7.612   2.736   6.204
 7941WAT      O24064   4.419   2.884   9.134
 7941WAT     H124065   4.352   2.882   9.060
 7941WAT     H224066   4.465   2.973   9.134
 7942WAT      O24067   0.089   8.466   3.668
 7942WAT     H124068   0.124   8.558   3.651
 7942WAT     H224069   0.039   8.465   3.755
 7943WAT      O24070   6.085   0.732   8.506
 7943WAT     H124071   5.988   0.741   8.530
 7943WAT     H224072   6.141   0.756   8.585
 7944WAT      O24073   5.472   2.726   4.791
 7944WAT     H124074   5.382   2.767   4.800
 7944WAT     H224075   5.520   2.732   4.878
 7945WAT      O24076   1.682   8.197   3.565
 7945WAT     H124077   1.742   8.117   3.566
 7945WAT     H224078   1.605   8.183   3.627
 7946WAT      O24079   1.359   3.469   5.191
 7946WAT     H124080   1.428   3.405   5.225
 7946WAT     H224081   1.380   3.561   5.223
 7947WAT      O24082   5.667   5.138   3.552
 7947WAT     H124083   5.742   5.202   3.567
 7947WAT     H224084   5.593   5.184   3.503
 7948WAT      O24085   2.047   5.835   4.065
 7948WAT     H124086   2.083   5.858   4.156
 7948WAT     H224087   1.957   5.793   4.075
 7949WAT      O24088   0.813   4.295   2.777
 7949WAT     H124089   0.733   4.266   2.829
 7949WAT     H224090   0.812   4.253   2.687
 7950WAT      O24091   9.610   9.143   7.939
 7950WAT     H124092   9.625   9.217   7.873
 7950WAT     H224093   9.585   9.182   8.027
 7951WAT      O24094   1.213   3.274   1.877
 7951WAT     H124095   1.297   3.318   1.847
 7951WAT     H224096   1.232   3.215   1.955
 7952WAT      O24097   5.287   6.382   9.172
 7952WAT     H124098   5.339   6.296   9.166
 7952WAT     H224099   5.199   6.371   9.126
 7953WAT      O24100   4.381   8.044   5.044
 7953WAT     H124101   4.419   8.136   5.049
 7953WAT     H224102   4.398   8.004   4.954
 7954WAT      O24103   4.289   6.722   6.862
 7954WAT     H124104   4.310   6.727   6.960
 7954WAT     H224105   4.235   6.801   6.835
 7955WAT      O24106   3.087   9.609   4.141
 7955WAT     H124107   3.026   9.678   4.179
 7955WAT     H224108   3.154   9.581   4.210
 7956WAT      O24109   6.438   2.694   7.474
 7956WAT     H124110   6.359   2.703   7.415
 7956WAT     H224111   6.504   2.631   7.432
 7957WAT      O24112   2.024   1.060   7.963
 7957WAT     H124113   1.950   1.080   8.027
 7957WAT     H224114   1.985   1.029   7.876
 7958WAT      O24115   4.862   6.067   4.929
 7958WAT     H124116   4.935   6.119   4.971
 7958WAT     H224117   4.887   5.970   4.925
 7959WAT      O24118   7.045   2.918   9.181
 7959WAT     H124119   6.962   2.862   9.187
 7959WAT     H224120   7.023   3.006   9.139
 7960WAT      O24121   1.658   1.858   8.930
 7960WAT     H124122   1.567   1.843   8.970
 7960WAT     H224123   1.648   1.883   8.834
 7961WAT      O24124   6.165   0.158   6.479
 7961WAT     H124125   6.097   0.085   6.477
 7961WAT     H224126   6.237   0.138   6.412
 7962WAT      O24127   2.050   6.071   3.053
 7962WAT     H124128   1.951   6.078   3.044
 7962WAT     H224129   2.074   6.063   3.150
 7963WAT      O24130   3.100   0.721   8.948
 7963WAT     H124131   3.069   0.714   9.043
 7963WAT     H224132   3.111   0.629   8.910
 7964WAT      O24133   5.069   8.385   9.117
 7964WAT     H124134   5.045   8.303   9.065
 7964WAT     H224135   4.989   8.444   9.124
 7965WAT      O24136   9.394   0.461   2.642
 7965WAT     H124137   9.351   0.544   2.605
 7965WAT     H224138   9.344   0.430   2.722
 7966WAT      O24139   1.347   7.830   0.107
 7966WAT     H124140   1.358   7.742   0.154
 7966WAT     H224141   1.436   7.861   0.074
 7967WAT      O24142   0.153   1.563   9.816
 7967WAT     H124143   0.085   1.564   9.889
 7967WAT     H224144   0.111   1.594   9.731
 7968WAT      O24145   3.353   3.020   2.632
 7968WAT     H124146   3.326   2.924   2.642
 7968WAT     H224147   3.452   3.028   2.644
 7969WAT      O24148   9.514   2.465   5.152
 7969WAT     H124149   9.481   2.461   5.246
 7969WAT     H224150   9.469   2.540   5.103
 7970WAT      O24151   3.619   6.815   3.486
 7970WAT     H124152   3.675   6.817   3.569
 7970WAT     H224153   3.674   6.843   3.408
 7971WAT      O24154   2.080   4.429   5.613
 7971WAT     H124155   2.162   4.375   5.595
 7971WAT     H224156   2.106   4.514   5.660
 7972WAT      O24157   3.306   5.080   7.069
 7972WAT     H124158   3.329   5.171   7.037
 7972WAT     H224159   3.359   5.012   7.019
 7973WAT      O24160   1.046   9.142   2.002
 7973WAT     H124161   0.994   9.131   1.917
 7973WAT     H224162   1.137   9.102   1.991
 7974WAT      O24163   9.709   1.791   6.381
 7974WAT     H124164   9.734   1.799   6.477
 7974WAT     H224165   9.669   1.878   6.350
 7975WAT      O24166   2.939   7.495   1.487
 7975WAT     H124167   2.885   7.578   1.500
 7975WAT     H224168   3.011   7.491   1.556
 7976WAT      O24169   1.898   1.149   9.829
 7976WAT     H124170   1.838   1.078   9.864
 7976WAT     H224171   1.858   1.189   9.746
 7977WAT      O24172   0.087   1.717   7.066
 7977WAT     H124173   0.182   1.741   7.046
 7977WAT     H224174   0.029   1.798   7.055
 7978WAT      O24175   8.800   7.664   1.711
 7978WAT     H124176   8.820   7.587   1.772
 7978WAT     H224177   8.709   7.652   1.672
 7979WAT      O24178   6.633   1.475   4.981
 7979WAT     H124179   6.641   1.514   4.889
 7979WAT     H224180   6.541   1.490   5.015
 7980WAT      O24181   9.352   9.777   9.398
 7980WAT     H124182   9.413   9.768   9.477
 7980WAT     H224183   9.338   9.688   9.356
 7981WAT      O24184   8.224   7.842   2.107
 7981WAT     H124185   8.166   7.838   2.026
 7981WAT     H224186   8.289   7.767   2.107
 7982WAT      O24187   4.427   3.111   1.327
 7982WAT     H124188   4.453   3.014   1.326
 7982WAT     H224189   4.492   3.164   1.273
 7983WAT      O24190   4.329   8.496   1.465
 7983WAT     H124191   4.247   8.503   1.522
 7983WAT     H224192   4.384   8.418   1.496
 7984WAT      O24193   9.127   8.802   5.680
 7984WAT     H124194   9.056   8.749   5.634
 7984WAT     H224195   9.213   8.751   5.679
 7985WAT      O24196   8.574   2.535   9.320
 7985WAT     H124197   8.651   2.540   9.384
 7985WAT     H224198   8.603   2.566   9.230
 7986WAT      O24199   3.738   5.294   7.702
 7986WAT     H124200   3.760   5.253   7.791
 7986WAT     H224201   3.697   5.224   7.643
 7987WAT      O24202   8.687   4.008   0.575
 7987WAT     H124203   8.668   4.060   0.659
 7987WAT     H224204   8.754   3.936   0.595
 7988WAT      O24205   6.240   4.691   6.417
 7988WAT     H124206   6.162   4.753   6.426
 7988WAT     H224207   6.263   4.654   6.507
 7989WAT      O24208   3.559   8.219   0.895
 7989WAT     H124209   3.619   8.298   0.885
 7989WAT     H224210   3.565   8.185   0.988
 7990WAT      O24211   7.509   6.576   8.519
 7990WAT     H124212   7.473   6.555   8.610
 7990WAT     H224213   7.605   6.550   8.515
 7991WAT      O24214   2.505   9.248   6.560
 7991WAT     H124215   2.440   9.322   6.576
 7991WAT     H224216   2.587   9.262   6.615
 7992WAT      O24217   3.280   9.672   9.069
 7992WAT     H124218   3.253   9.756   9.116
 7992WAT     H224219   3.369   9.641   9.103
 7993WAT      O24220   8.149   2.189   2.115
 7993WAT     H124221   8.149   2.116   2.184
 7993WAT     H224222   8.071   2.177   2.054
 7994WAT      O24223   2.879   2.487   2.768
 7994WAT     H124224   2.906   2.450   2.857
 7994WAT     H224225   2.884   2.415   2.699
 7995WAT      O24226   6.613   2.704   8.490
 7995WAT     H124227   6.543   2.647   8.447
 7995WAT     H224228   6.572   2.759   8.562
 7996WAT      O24229   6.502   1.377   8.571
 7996WAT     H124230   6.494   1.413   8.478
 7996WAT     H224231   6.586   1.324   8.580
 7997WAT      O24232   2.366   9.759   2.841
 7997WAT     H124233   2.347   9.689   2.772
 7997WAT     H224234   2.459   9.794   2.830
 7998WAT      O24235   3.068   3.605   3.624
 7998WAT     H124236   2.989   3.659   3.592
 7998WAT     H224237   3.147   3.625   3.566
 7999WAT      O24238   5.628   5.435   1.389
 7999WAT     H124239   5.700   5.499   1.365
 7999WAT     H224240   5.668   5.354   1.433
 8000WAT      O24241   7.842   8.191   7.384
 8000WAT     H124242   7.848   8.138   7.299
 8000WAT     H224243   7.753   8.236   7.390
 8001WAT      O24244   3.160   5.270   0.034
 8001WAT     H124245   3.186   5.245   0.127
 8001WAT     H224246   3.141   5.188  -0.019
 8002WAT      O24247   6.862   7.318   4.025
 8002WAT     H124248   6.789   7.266   4.070
 8002WAT     H224249   6.827   7.356   3.939
 8003WAT      O24250   3.228   6.531   1.772
 8003WAT     H124251   3.211   6.610   1.831
 8003WAT     H224252   3.146   6.473   1.769
 8004WAT      O24253   9.146   9.542   6.706
 8004WAT     H124254   9.052   9.521   6.681
 8004WAT     H224255   9.149   9.627   6.759
 8005WAT      O24256   1.374   6.513   2.792
 8005WAT     H124257   1.384   6.443   2.722
 8005WAT     H224258   1.412   6.481   2.878
 8006WAT      O24259   7.478   6.370   5.827
 8006WAT     H124260   7.547   6.396   5.758
 8006WAT     H224261   7.520   6.313   5.897
 8007WAT      O24262   4.195   4.925   0.235
 8007WAT     H124263   4.209   4.875   0.150
 8007WAT     H224264   4.198   4.861   0.313
 8008WAT      O24265   2.804   7.059   1.794
 8008WAT     H124266   2.887   7.114   1.783
 8008WAT     H224267   2.818   6.990   1.865
 8009WAT      O24268   7.399   2.456   4.383
 8009WAT     H124269   7.416   2.358   4.390
 8009WAT     H224270   7.369   2.479   4.291
 8010WAT      O24271   0.036   2.083   5.493
 8010WAT     H124272   0.056   2.142   5.571
 8010WAT     H224273   0.008   1.993   5.525
 8011WAT      O24274   0.441   9.104   1.770
 8011WAT     H124275   0.362   9.042   1.766
 8011WAT     H224276   0.448   9.143   1.862
 8012WAT      O24277   0.030   1.733   5.413
 8012WAT     H124278   0.023   1.658   5.347
 8012WAT     H224279   0.127   1.748   5.436
 8013WAT      O24280   8.135   4.069   8.213
 8013WAT     H124281   8.118   3.984   8.163
 8013WAT     H224282   8.057   4.130   8.203
 8014WAT      O24283   9.843   0.528   5.288
 8014WAT     H124284   9.857   0.612   5.236
 8014WAT     H224285   9.815   0.552   5.381
 8015WAT      O24286   7.426   0.496   7.490
 8015WAT     H124287   7.425   0.562   7.566
 8015WAT     H224288   7.371   0.416   7.515
 8016WAT      O24289   8.210   5.317   5.398
 8016WAT     H124290   8.272   5.287   5.325
 8016WAT     H224291   8.116   5.292   5.374
 8017WAT      O24292   6.410   8.964   8.145
 8017WAT     H124293   6.382   8.944   8.051
 8017WAT     H224294   6.419   8.878   8.195
 8018WAT      O24295   5.637   7.481   8.800
 8018WAT     H124296   5.597   7.442   8.718
 8018WAT     H224297   5.639   7.412   8.872
 8019WAT      O24298   7.891   0.722   0.323
 8019WAT     H124299   7.833   0.677   0.391
 8019WAT     H224300   7.984   0.687   0.332
 8020WAT      O24301   0.014   9.382   2.606
 8020WAT     H124302  -0.048   9.422   2.674
 8020WAT     H224303  -0.039   9.355   2.526
 8021WAT      O24304   9.144   8.728   0.656
 8021WAT     H124305   9.051   8.700   0.633
 8021WAT     H224306   9.142   8.784   0.740
 8022WAT      O24307   4.142   5.796   0.626
 8022WAT     H124308   4.048   5.831   0.635
 8022WAT     H224309   4.179   5.825   0.538
 8023WAT      O24310   4.730   0.806   8.498
 8023WAT     H124311   4.740   0.711   8.468
 8023WAT     H224312   4.780   0.820   8.584
 8024WAT      O24313   0.296   6.055   2.316
 8024WAT     H124314   0.290   5.956   2.323
 8024WAT     H224315   0.379   6.087   2.360
 8025WAT      O24316   6.686   8.623   7.203
 8025WAT     H124317   6.633   8.662   7.127
 8025WAT     H224318   6.783   8.646   7.192
 8026WAT      O24319   8.834   0.512   9.095
 8026WAT     H124320   8.781   0.430   9.115
 8026WAT     H224321   8.841   0.568   9.177
 8027WAT      O24322   1.139   1.325   9.615
 8027WAT     H124323   1.196   1.378   9.678
 8027WAT     H224324   1.043   1.333   9.643
 8028WAT      O24325   0.450   2.921   1.846
 8028WAT     H124326   0.361   2.962   1.866
 8028WAT     H224327   0.479   2.865   1.924
 8029WAT      O24328   3.496   2.850   8.652
 8029WAT     H124329   3.419   2.872   8.710
 8029WAT     H224330   3.466   2.789   8.578
 8030WAT      O24331   8.577   5.448   3.158
 8030WAT     H124332   8.584   5.351   3.179
 8030WAT     H224333   8.617   5.466   3.069
 8031WAT      O24334   6.856   6.235   7.912
 8031WAT     H124335   6.843   6.153   7.968
 8031WAT     H224336   6.919   6.214   7.837
 8032WAT      O24337   5.582   0.558   5.429
 8032WAT     H124338   5.628   0.521   5.510
 8032WAT     H224339   5.546   0.482   5.374
 8033WAT      O24340   1.931   5.059   1.720
 8033WAT     H124341   1.887   4.983   1.767
 8033WAT     H224342   1.870   5.138   1.720
 8034WAT      O24343   2.987   2.245   4.319
 8034WAT     H124344   3.011   2.339   4.345
 8034WAT     H224345   2.929   2.205   4.390
 8035WAT      O24346   5.993   4.548   4.323
 8035WAT     H124347   5.938   4.595   4.392
 8035WAT     H224348   5.998   4.604   4.240
 8036WAT      O24349   2.435   8.730   8.409
 8036WAT     H124350   2.434   8.829   8.393
 8036WAT     H224351   2.435   8.683   8.321
 8037WAT      O24352   7.658   5.675   8.594
 8037WAT     H124353   7.616   5.698   8.681
 8037WAT     H224354   7.607   5.601   8.550
 8038WAT      O24355   0.106   1.459   7.515
 8038WAT     H124356   0.045   1.513   7.572
 8038WAT     H224357   0.091   1.482   7.419
 8039WAT      O24358   0.223   4.539   3.495
 8039WAT     H124359   0.140   4.514   3.545
 8039WAT     H224360   0.264   4.458   3.454
 8040WAT      O24361   1.345   6.257   1.371
 8040WAT     H124362   1.442   6.239   1.351
 8040WAT     H224363   1.320   6.213   1.457
 8041WAT      O24364   7.477   0.398   0.124
 8041WAT     H124365   7.474   0.315   0.068
 8041WAT     H224366   7.411   0.464   0.090
 8042WAT      O24367   7.558   9.550   0.015
 8042WAT     H124368   7.549   9.453  -0.009
 8042WAT     H224369   7.489   9.602  -0.035
 8043WAT      O24370   1.845   4.394   3.523
 8043WAT     H124371   1.833   4.484   3.565
 8043WAT     H224372   1.934   4.389   3.478
 8044WAT      O24373   1.755   2.135   2.343
 8044WAT     H124374   1.824   2.176   2.283
 8044WAT     H224375   1.693   2.207   2.376
 8045WAT      O24376   3.795   3.414   0.971
 8045WAT     H124377   3.731   3.463   0.913
 8045WAT     H224378   3.748   3.338   1.017
 8046WAT      O24379   1.979   0.162   1.305
 8046WAT     H124380   1.926   0.077   1.298
 8046WAT     H224381   1.965   0.202   1.396
 8047WAT      O24382   2.571   4.990   0.547
 8047WAT     H124383   2.637   4.970   0.618
 8047WAT     H224384   2.487   4.937   0.562
 8048WAT      O24385   2.097   0.567   6.532
 8048WAT     H124386   2.119   0.617   6.448
 8048WAT     H224387   2.124   0.471   6.521
 8049WAT      O24388   7.726   1.773   1.610
 8049WAT     H124389   7.794   1.843   1.589
 8049WAT     H224390   7.773   1.690   1.640
 8050WAT      O24391   4.954   6.058   5.605
 8050WAT     H124392   5.035   6.035   5.658
 8050WAT     H224393   4.978   6.127   5.536
 8051WAT      O24394   8.713   4.893   6.149
 8051WAT     H124395   8.626   4.929   6.183
 8051WAT     H224396   8.745   4.820   6.210
 8052WAT      O24397   7.532   1.070   0.099
 8052WAT     H124398   7.592   0.995   0.129
 8052WAT     H224399   7.588   1.148   0.070
 8053WAT      O24400   9.196   5.451   2.746
 8053WAT     H124401   9.239   5.526   2.796
 8053WAT     H224402   9.184   5.478   2.650
 8054WAT      O24403   9.299   9.447   4.722
 8054WAT     H124404   9.285   9.546   4.724
 8054WAT     H224405   9.393   9.428   4.693
 8055WAT      O24406   4.461   0.204   6.679
 8055WAT     H124407   4.380   0.159   6.640
 8055WAT     H224408   4.491   0.154   6.760
 8056WAT      O24409   9.561   7.896   3.367
 8056WAT     H124410   9.549   7.882   3.466
 8056WAT     H224411   9.622   7.973   3.352
 8057WAT      O24412   4.424   1.765   6.202
 8057WAT     H124413   4.490   1.794   6.134
 8057WAT     H224414   4.421   1.831   6.277
 8058WAT      O24415   7.645   1.822   8.546
 8058WAT     H124416   7.668   1.816   8.449
 8058WAT     H224417   7.554   1.864   8.556
 8059WAT      O24418   2.707   6.761   3.142
 8059WAT     H124419   2.614   6.723   3.148
 8059WAT     H224420   2.702   6.858   3.119
 8060WAT      O24421   4.427   3.923   9.528
 8060WAT     H124422   4.502   3.943   9.591
 8060WAT     H224423   4.378   4.008   9.507
 8061WAT      O24424   2.614   6.105   1.524
 8061WAT     H124425   2.646   6.064   1.438
 8061WAT     H224426   2.527   6.152   1.508
 8062WAT      O24427   4.160   5.073   9.217
 8062WAT     H124428   4.223   5.099   9.143
 8062WAT     H224429   4.161   5.144   9.287
 8063WAT      O24430   5.702   0.363   2.995
 8063WAT     H124431   5.713   0.265   3.011
 8063WAT     H224432   5.610   0.381   2.958
 8064WAT      O24433   6.553   6.296   9.527
 8064WAT     H124434   6.613   6.324   9.452
 8064WAT     H224435   6.551   6.197   9.533
 8065WAT      O24436   2.414   5.682   0.575
 8065WAT     H124437   2.409   5.632   0.662
 8065WAT     H224438   2.349   5.758   0.577
 8066WAT      O24439   1.560   6.607   7.210
 8066WAT     H124440   1.534   6.660   7.129
 8066WAT     H224441   1.642   6.648   7.251
 8067WAT      O24442   3.246   1.717   7.909
 8067WAT     H124443   3.157   1.687   7.874
 8067WAT     H224444   3.298   1.759   7.836
 8068WAT      O24445   0.554   4.960   7.267
 8068WAT     H124446   0.525   4.871   7.302
 8068WAT     H224447   0.541   4.963   7.168
 8069WAT      O24448   3.039   4.845   4.982
 8069WAT     H124449   3.041   4.917   4.913
 8069WAT     H224450   3.019   4.757   4.938
 8070WAT      O24451   0.851   4.579   9.663
 8070WAT     H124452   0.848   4.479   9.667
 8070WAT     H224453   0.865   4.615   9.755
 8071WAT      O24454   7.541   6.376   2.840
 8071WAT     H124455   7.530   6.328   2.754
 8071WAT     H224456   7.550   6.474   2.823
 8072WAT      O24457   8.324   1.954   0.632
 8072WAT     H124458   8.234   1.967   0.675
 8072WAT     H224459   8.312   1.918   0.540
 8073WAT      O24460   1.987   6.163   1.248
 8073WAT     H124461   1.909   6.138   1.190
 8073WAT     H224462   2.016   6.256   1.227
 8074WAT      O24463   4.533   7.695   8.029
 8074WAT     H124464   4.522   7.763   8.101
 8074WAT     H224465   4.536   7.741   7.940
 8075WAT      O24466   8.697   7.910   5.888
 8075WAT     H124467   8.635   7.971   5.939
 8075WAT     H224468   8.789   7.917   5.926
 8076WAT      O24469   2.581   4.087   1.202
 8076WAT     H124470   2.627   4.025   1.266
 8076WAT     H224471   2.650   4.135   1.147
 8077WAT      O24472   5.949   2.269   6.910
 8077WAT     H124473   5.930   2.198   6.978
 8077WAT     H224474   5.867   2.326   6.899
 8078WAT      O24475   1.411   5.225   6.005
 8078WAT     H124476   1.345   5.257   6.073
 8078WAT     H224477   1.414   5.290   5.928
 8079WAT      O24478   0.393   7.093   2.505
 8079WAT     H124479   0.307   7.075   2.552
 8079WAT     H224480   0.435   7.006   2.479
 8080WAT      O24481   6.392   9.603   8.013
 8080WAT     H124482   6.380   9.649   8.101
 8080WAT     H224483   6.304   9.568   7.980
 8081WAT      O24484   0.184   3.446   9.835
 8081WAT     H124485   0.262   3.507   9.850
 8081WAT     H224486   0.104   3.483   9.882
 8082WAT      O24487   7.956   7.510   6.153
 8082WAT     H124488   8.034   7.541   6.208
 8082WAT     H224489   7.990   7.475   6.065
 8083WAT      O24490   0.251   5.708   8.560
 8083WAT     H124491   0.260   5.766   8.479
 8083WAT     H224492   0.202   5.758   8.631
 8084WAT      O24493   2.341   6.222   4.474
 8084WAT     H124494   2.441   6.215   4.480
 8084WAT     H224495   2.316   6.302   4.419
 8085WAT      O24496   8.480   6.186   7.116
 8085WAT     H124497   8.419   6.245   7.064
 8085WAT     H224498   8.427   6.132   7.181
 8086WAT      O24499   5.188   9.272   0.905
 8086WAT     H124500   5.246   9.191   0.914
 8086WAT     H224501   5.244   9.350   0.876
 8087WAT      O24502   5.597   7.762   0.115
 8087WAT     H124503   5.626   7.681   0.166
 8087WAT     H224504   5.498   7.776   0.128
 8088WAT      O24505   5.359   2.991   3.553
 8088WAT     H124506   5.445   3.004   3.503
 8088WAT     H224507   5.313   3.078   3.564
 8089WAT      O24508   8.901   8.037   0.151
 8089WAT     H124509   8.824   8.026   0.213
 8089WAT     H224510   8.962   7.958   0.158
 8090WAT      O24511   2.321   7.761   6.130
 8090WAT     H124512   2.416   7.789   6.146
 8090WAT     H224513   2.271   7.835   6.085
 8091WAT      O24514   0.283   9.128   8.421
 8091WAT     H124515   0.199   9.156   8.468
 8091WAT     H224516   0.311   9.200   8.358
 8092WAT      O24517   5.858   3.318   3.920
 8092WAT     H124518   5.927   3.285   3.855
 8092WAT     H224519   5.842   3.415   3.905
 8093WAT      O24520   0.369   0.029   8.839
 8093WAT     H124521   0.416   0.032   8.751
 8093WAT     H224522   0.421   0.081   8.907
 8094WAT      O24523   2.521   5.013   0.850
 8094WAT     H124524   2.502   5.047   0.942
 8094WAT     H224525   2.448   5.043   0.788
 8095WAT      O24526   5.744   2.571   9.614
 8095WAT     H124527   5.780   2.591   9.523
 8095WAT     H224528   5.711   2.476   9.617
 8096WAT      O24529   0.171   0.836   7.115
 8096WAT     H124530   0.128   0.749   7.138
 8096WAT     H224531   0.245   0.855   7.180
 8097WAT      O24532   6.499   5.206   7.473
 8097WAT     H124533   6.418   5.264   7.482
 8097WAT     H224534   6.535   5.184   7.565
 8098WAT      O24535   8.481   8.737   7.223
 8098WAT     H124536   8.499   8.737   7.322
 8098WAT     H224537   8.538   8.806   7.179
 8099WAT      O24538   6.779   4.465   9.851
 8099WAT     H124539   6.756   4.557   9.818
 8099WAT     H224540   6.739   4.452   9.942
 8100WAT      O24541   9.624   9.099   3.433
 8100WAT     H124542   9.629   9.026   3.501
 8100WAT     H224543   9.528   9.123   3.418
 8101WAT      O24544   7.249   4.380   1.680
 8101WAT     H124545   7.174   4.313   1.682
 8101WAT     H224546   7.280   4.398   1.774
 8102WAT      O24547   1.271   7.884   7.518
 8102WAT     H124548   1.358   7.913   7.477
 8102WAT     H224549   1.196   7.899   7.453
 8103WAT      O24550   7.379   6.874   7.511
 8103WAT     H124551   7.294   6.824   7.527
 8103WAT     H224552   7.397   6.934   7.590
 8104WAT      O24553   0.491   0.981   3.200
 8104WAT     H124554   0.479   1.047   3.126
 8104WAT     H224555   0.575   1.002   3.250
 8105WAT      O24556   3.334   0.071   3.337
 8105WAT     H124557   3.380   0.159   3.331
 8105WAT     H224558   3.402  -0.001   3.351
 8106WAT      O24559   8.203   7.634   3.173
 8106WAT     H124560   8.199   7.535   3.155
 8106WAT     H224561   8.158   7.683   3.099
 8107WAT      O24562   4.063   4.052   5.427
 8107WAT     H124563   4.030   4.075   5.335
 8107WAT     H224564   4.114   3.966   5.423
 8108WAT      O24565   6.205   8.062   8.716
 8108WAT     H124566   6.200   8.143   8.658
 8108WAT     H224567   6.149   7.989   8.676
 8109WAT      O24568   6.451   3.351   6.388
 8109WAT     H124569   6.534   3.359   6.333
 8109WAT     H224570   6.449   3.424   6.456
 8110WAT      O24571   8.995   7.190   3.052
 8110WAT     H124572   8.909   7.155   3.090
 8110WAT     H224573   8.995   7.290   3.054
 8111WAT      O24574   1.827   3.793   1.431
 8111WAT     H124575   1.889   3.835   1.497
 8111WAT     H224576   1.813   3.697   1.455
 8112WAT      O24577   9.274   3.209   9.697
 8112WAT     H124578   9.321   3.122   9.680
 8112WAT     H224579   9.291   3.271   9.620
 8113WAT      O24580   0.707   2.271   1.875
 8113WAT     H124581   0.672   2.348   1.821
 8113WAT     H224582   0.715   2.190   1.817
 8114WAT      O24583   7.699   6.261   3.512
 8114WAT     H124584   7.703   6.348   3.463
 8114WAT     H224585   7.750   6.267   3.597
 8115WAT      O24586   6.435   3.688   3.610
 8115WAT     H124587   6.534   3.704   3.616
 8115WAT     H224588   6.389   3.772   3.584
 8116WAT      O24589   8.556   5.762   0.437
 8116WAT     H124590   8.526   5.852   0.471
 8116WAT     H224591   8.560   5.698   0.513
 8117WAT      O24592   2.876   5.138   7.945
 8117WAT     H124593   2.854   5.107   7.852
 8117WAT     H224594   2.793   5.143   7.999
 8118WAT      O24595   4.832   3.012   9.641
 8118WAT     H124596   4.901   3.084   9.634
 8118WAT     H224597   4.877   2.926   9.666
 8119WAT      O24598   9.617   7.980   4.621
 8119WAT     H124599   9.642   8.052   4.686
 8119WAT     H224600   9.593   7.897   4.671
 8120WAT      O24601   4.222   8.786   6.910
 8120WAT     H124602   4.321   8.788   6.916
 8120WAT     H224603   4.183   8.858   6.967
 8121WAT      O24604   5.485   7.064   0.068
 8121WAT     H124605   5.458   7.105  -0.019
 8121WAT     H224606   5.409   7.066   0.132
 8122WAT      O24607   8.444   3.179   8.997
 8122WAT     H124608   8.437   3.240   8.919
 8122WAT     H224609   8.516   3.211   9.059
 8123WAT      O24610   6.894   8.502   8.984
 8123WAT     H124611   6.887   8.554   8.898
 8123WAT     H224612   6.803   8.470   9.011
 8124WAT      O24613   6.877   2.723   0.493
 8124WAT     H124614   6.847   2.683   0.580
 8124WAT     H224615   6.926   2.653   0.440
 8125WAT      O24616   6.149   8.223   7.174
 8125WAT     H124617   6.204   8.305   7.192
 8125WAT     H224618   6.196   8.143   7.211
 8126WAT      O24619   5.006   5.910   7.059
 8126WAT     H124620   4.937   5.892   7.129
 8126WAT     H224621   4.960   5.922   6.970
 8127WAT      O24622   5.412   1.528   6.664
 8127WAT     H124623   5.402   1.432   6.689
 8127WAT     H224624   5.327   1.562   6.624
 8128WAT      O24625   5.319   3.077   2.262
 8128WAT     H124626   5.225   3.106   2.280
 8128WAT     H224627   5.320   2.982   2.232
 8129WAT      O24628   4.199   3.032   5.945
 8129WAT     H124629   4.150   3.119   5.938
 8129WAT     H224630   4.202   3.003   6.040
 8130WAT      O24631   5.639   8.772   4.011
 8130WAT     H124632   5.726   8.816   3.988
 8130WAT     H224633   5.651   8.673   4.015
 8131WAT      O24634   0.597   0.129   3.148
 8131WAT     H124635   0.544   0.174   3.220
 8131WAT     H224636   0.686   0.173   3.140
 8132WAT      O24637   3.075   7.309   2.165
 8132WAT     H124638   3.080   7.303   2.265
 8132WAT     H224639   3.137   7.380   2.133
 8133WAT      O24640   0.191   7.439   7.649
 8133WAT     H124641   0.215   7.373   7.720
 8133WAT     H224642   0.248   7.422   7.568
 8134WAT      O24643   5.831   8.248   6.277
 8134WAT     H124644   5.799   8.191   6.201
 8134WAT     H224645   5.754   8.273   6.336
 8135WAT      O24646   1.824   4.819   3.371
 8135WAT     H124647   1.901   4.834   3.434
 8135WAT     H224648   1.798   4.906   3.330
 8136WAT      O24649   8.391   3.959   2.059
 8136WAT     H124650   8.312   4.005   2.019
 8136WAT     H224651   8.464   3.953   1.991
 8137WAT      O24652   0.914   6.291   2.474
 8137WAT     H124653   0.861   6.235   2.410
 8137WAT     H224654   1.000   6.319   2.431
 8138WAT      O24655   8.122   8.510   4.920
 8138WAT     H124656   8.134   8.514   4.821
 8138WAT     H224657   8.205   8.472   4.962
 8139WAT      O24658   7.847   4.641   9.527
 8139WAT     H124659   7.777   4.703   9.563
 8139WAT     H224660   7.909   4.614   9.600
 8140WAT      O24661   4.903   1.663   6.140
 8140WAT     H124662   4.999   1.656   6.113
 8140WAT     H224663   4.897   1.677   6.239
 8141WAT      O24664   3.234   7.094   4.487
 8141WAT     H124665   3.329   7.127   4.484
 8141WAT     H224666   3.225   7.015   4.425
 8142WAT      O24667   2.968   9.435   1.222
 8142WAT     H124668   3.018   9.496   1.284
 8142WAT     H224669   2.955   9.480   1.134
 8143WAT      O24670   9.432   5.084   5.296
 8143WAT     H124671   9.375   5.100   5.376
 8143WAT     H224672   9.442   5.169   5.243
 8144WAT      O24673   9.390   5.091   8.701
 8144WAT     H124674   9.449   5.169   8.678
 8144WAT     H224675   9.388   5.079   8.800
 8145WAT      O24676   5.390   1.832   7.411
 8145WAT     H124677   5.429   1.924   7.410
 8145WAT     H224678   5.456   1.767   7.372
 8146WAT      O24679   5.148   6.526   4.822
 8146WAT     H124680   5.069   6.474   4.790
 8146WAT     H224681   5.232   6.484   4.788
 8147WAT      O24682   1.373   0.030   5.947
 8147WAT     H124683   1.321   0.102   5.900
 8147WAT     H224684   1.470   0.055   5.950
 8148WAT      O24685   1.748   1.908   7.400
 8148WAT     H124686   1.668   1.922   7.341
 8148WAT     H224687   1.738   1.821   7.448
 8149WAT      O24688   5.635   2.962   7.878
 8149WAT     H124689   5.590   3.047   7.848
 8149WAT     H224690   5.707   2.938   7.813
 8150WAT      O24691   7.694   4.051   3.498
 8150WAT     H124692   7.764   4.121   3.486
 8150WAT     H224693   7.674   4.040   3.595
 8151WAT      O24694   0.471   5.532   0.251
 8151WAT     H124695   0.530   5.467   0.204
 8151WAT     H224696   0.488   5.625   0.217
 8152WAT      O24697   0.697   1.758   6.852
 8152WAT     H124698   0.754   1.797   6.924
 8152WAT     H224699   0.638   1.830   6.814
 8153WAT      O24700   9.606   8.371   9.192
 8153WAT     H124701   9.552   8.326   9.262
 8153WAT     H224702   9.694   8.399   9.230
 8154WAT      O24703   2.968   6.035   9.163
 8154WAT     H124704   2.951   5.969   9.237
 8154WAT     H224705   3.066   6.054   9.158
 8155WAT      O24706   3.179   8.785   5.741
 8155WAT     H124707   3.237   8.803   5.820
 8155WAT     H224708   3.158   8.870   5.694
 8156WAT      O24709   2.654   1.644   5.502
 8156WAT     H124710   2.708   1.563   5.476
 8156WAT     H224711   2.698   1.726   5.465
 8157WAT      O24712   4.870   7.004   1.293
 8157WAT     H124713   4.945   6.939   1.282
 8157WAT     H224714   4.796   6.962   1.346
 8158WAT      O24715   8.790   6.300   4.183
 8158WAT     H124716   8.849   6.375   4.153
 8158WAT     H224717   8.847   6.220   4.205
 8159WAT      O24718   2.540   3.603   9.213
 8159WAT     H124719   2.619   3.664   9.207
 8159WAT     H224720   2.481   3.616   9.133
 8160WAT      O24721   2.285   1.059   5.143
 8160WAT     H124722   2.217   1.117   5.098
 8160WAT     H224723   2.279   1.071   5.242
 8161WAT      O24724   0.230   1.257   4.274
 8161WAT     H124725   0.159   1.214   4.328
 8161WAT     H224726   0.193   1.283   4.184
 8162WAT      O24727   7.361   7.594   7.391
 8162WAT     H124728   7.398   7.549   7.310
 8162WAT     H224729   7.343   7.525   7.462
 8163WAT      O24730   2.889   4.375   1.943
 8163WAT     H124731   2.868   4.442   1.872
 8163WAT     H224732   2.841   4.399   2.027
 8164WAT      O24733   0.876   2.996   3.936
 8164WAT     H124734   0.962   3.047   3.930
 8164WAT     H224735   0.813   3.031   3.866
 8165WAT      O24736   0.112   8.521   3.315
 8165WAT     H124737   0.064   8.451   3.368
 8165WAT     H224738   0.123   8.489   3.221
 8166WAT      O24739   7.990   4.962   4.947
 8166WAT     H124740   8.059   5.032   4.964
 8166WAT     H224741   7.913   4.974   5.010
 8167WAT      O24742   1.014   8.001   6.579
 8167WAT     H124743   0.944   7.934   6.557
 8167WAT     H224744   1.070   7.968   6.654
 8168WAT      O24745   4.820   9.772   0.186
 8168WAT     H124746   4.820   9.735   0.094
 8168WAT     H224747   4.744   9.836   0.197
 8169WAT      O24748   0.373   1.547   0.167
 8169WAT     H124749   0.315   1.467   0.154
 8169WAT     H224750   0.345   1.619   0.103
 8170WAT      O24751   2.351   0.303   9.052
 8170WAT     H124752   2.375   0.371   8.983
 8170WAT     H224753   2.260   0.322   9.087
 8171WAT      O24754   5.903   8.363   7.821
 8171WAT     H124755   5.922   8.373   7.724
 8171WAT     H224756   5.804   8.366   7.837
 8172WAT      O24757   9.541   3.510   4.708
 8172WAT     H124758   9.576   3.599   4.680
 8172WAT     H224759   9.551   3.445   4.632
 8173WAT      O24760   4.596   0.936   2.812
 8173WAT     H124761   4.693   0.962   2.811
 8173WAT     H224762   4.571   0.899   2.723
 8174WAT      O24763   5.736   6.792   6.313
 8174WAT     H124764   5.669   6.738   6.366
 8174WAT     H224765   5.727   6.770   6.216
 8175WAT      O24766   5.166   5.128   8.096
 8175WAT     H124767   5.156   5.204   8.159
 8175WAT     H224768   5.178   5.043   8.147
 8176WAT      O24769   7.297   3.461   6.254
 8176WAT     H124770   7.230   3.387   6.243
 8176WAT     H224771   7.378   3.425   6.301
 8177WAT      O24772   9.219   4.275   5.961
 8177WAT     H124773   9.122   4.297   5.963
 8177WAT     H224774   9.232   4.188   5.913
 8178WAT      O24775   5.822   9.452   3.091
 8178WAT     H124776   5.758   9.376   3.089
 8178WAT     H224777   5.910   9.421   3.126
 8179WAT      O24778   8.494   2.682   8.227
 8179WAT     H124779   8.505   2.633   8.313
 8179WAT     H224780   8.450   2.621   8.160
 8180WAT      O24781   6.363   7.805   8.591
 8180WAT     H124782   6.403   7.894   8.567
 8180WAT     H224783   6.264   7.813   8.596
 8181WAT      O24784   2.131   7.403   5.323
 8181WAT     H124785   2.080   7.324   5.356
 8181WAT     H224786   2.216   7.372   5.281
 8182WAT      O24787   3.108   0.922   5.489
 8182WAT     H124788   3.099   0.904   5.391
 8182WAT     H224789   3.018   0.937   5.529
 8183WAT      O24790   1.495   6.762   6.995
 8183WAT     H124791   1.553   6.803   6.925
 8183WAT     H224792   1.449   6.834   7.047
 8184WAT      O24793   2.571   3.588   9.512
 8184WAT     H124794   2.556   3.576   9.414
 8184WAT     H224795   2.611   3.504   9.550
 8185WAT      O24796   6.517   3.144   5.746
 8185WAT     H124797   6.519   3.080   5.669
 8185WAT     H224798   6.594   3.207   5.740
 8186WAT      O24799   2.714   0.436   4.103
 8186WAT     H124800   2.644   0.508   4.103
 8186WAT     H224801   2.675   0.353   4.064
 8187WAT      O24802   0.182   6.139   7.270
 8187WAT     H124803   0.256   6.190   7.226
 8187WAT     H224804   0.199   6.133   7.368
 8188WAT      O24805   8.977   4.724   2.063
 8188WAT     H124806   9.070   4.706   2.028
 8188WAT     H224807   8.922   4.641   2.053
 8189WAT      O24808   1.508   8.513   3.800
 8189WAT     H124809   1.414   8.545   3.793
 8189WAT     H224810   1.566   8.565   3.737
 8190WAT      O24811   4.615   2.843   2.668
 8190WAT     H124812   4.603   2.926   2.723
 8190WAT     H224813   4.689   2.788   2.707
 8191WAT      O24814   3.464   3.065   9.452
 8191WAT     H124815   3.486   3.070   9.550
 8191WAT     H224816   3.513   2.988   9.411
 8192WAT      O24817   1.525   8.122   7.688
 8192WAT     H124818   1.558   8.105   7.781
 8192WAT     H224819   1.519   8.036   7.638
 8193WAT      O24820   8.370   5.778   5.510
 8193WAT     H124821   8.279   5.746   5.480
 8193WAT     H224822   8.391   5.864   5.465
 8194WAT      O24823   9.884   5.217   8.920
 8194WAT     H124824   9.951   5.144   8.928
 8194WAT     H224825   9.888   5.256   8.828
 8195WAT      O24826   6.852   1.910   3.740
 8195WAT     H124827   6.949   1.884   3.746
 8195WAT     H224828   6.835   1.988   3.800
 8196WAT      O24829   5.659   1.645   3.236
 8196WAT     H124830   5.686   1.554   3.206
 8196WAT     H224831   5.643   1.703   3.157
 8197WAT      O24832   0.140   7.777   0.479
 8197WAT     H124833   0.234   7.807   0.497
 8197WAT     H224834   0.123   7.692   0.528
 8198WAT      O24835   4.934   0.355   3.086
 8198WAT     H124836   5.000   0.387   3.018
 8198WAT     H224837   4.930   0.255   3.085
 8199WAT      O24838   0.915   1.069   8.826
 8199WAT     H124839   0.943   1.065   8.922
 8199WAT     H224840   0.982   1.020   8.770
 8200WAT      O24841   4.161   7.023   2.258
 8200WAT     H124842   4.234   7.091   2.247
 8200WAT     H224843   4.092   7.037   2.187
 8201WAT      O24844   1.375   3.299   5.633
 8201WAT     H124845   1.378   3.215   5.687
 8201WAT     H224846   1.291   3.349   5.652
 8202WAT      O24847   2.834   7.753   1.575
 8202WAT     H124848   2.767   7.820   1.605
 8202WAT     H224849   2.926   7.788   1.589
 8203WAT      O24850   6.332   6.205   2.179
 8203WAT     H124851   6.310   6.173   2.271
 8203WAT     H224852   6.360   6.127   2.122
 8204WAT      O24853   9.029   0.496   2.654
 8204WAT     H124854   9.026   0.417   2.715
 8204WAT     H224855   9.070   0.573   2.701
 8205WAT      O24856   3.493   2.520   9.807
 8205WAT     H124857   3.519   2.616   9.797
 8205WAT     H224858   3.399   2.507   9.775
 8206WAT      O24859   5.524   7.263   6.306
 8206WAT     H124860   5.495   7.194   6.372
 8206WAT     H224861   5.575   7.220   6.232
 8207WAT      O24862   3.116   2.270   8.908
 8207WAT     H124863   3.093   2.220   8.824
 8207WAT     H224864   3.137   2.205   8.981
 8208WAT      O24865   7.635   4.252   2.297
 8208WAT     H124866   7.730   4.231   2.318
 8208WAT     H224867   7.584   4.265   2.383
 8209WAT      O24868   3.309   6.155   5.668
 8209WAT     H124869   3.297   6.056   5.680
 8209WAT     H224870   3.405   6.179   5.686
 8210WAT      O24871   0.081   1.758   0.576
 8210WAT     H124872   0.091   1.662   0.549
 8210WAT     H224873   0.029   1.763   0.661
 8211WAT      O24874   6.276   8.362   4.083
 8211WAT     H124875   6.195   8.311   4.057
 8211WAT     H224876   6.250   8.454   4.113
 8212WAT      O24877   2.948   2.348   1.634
 8212WAT     H124878   2.931   2.351   1.536
 8212WAT     H224879   3.033   2.299   1.652
 8213WAT      O24880   9.276   4.601   3.564
 8213WAT     H124881   9.179   4.623   3.549
 8213WAT     H224882   9.309   4.545   3.488
 8214WAT      O24883   9.392   3.531   2.873
 8214WAT     H124884   9.310   3.541   2.929
 8214WAT     H224885   9.394   3.441   2.830
 8215WAT      O24886   7.030   5.917   1.091
 8215WAT     H124887   6.949   5.975   1.087
 8215WAT     H224888   7.072   5.925   1.182
 8216WAT      O24889   5.899   7.856   0.789
 8216WAT     H124890   5.977   7.917   0.777
 8216WAT     H224891   5.926   7.778   0.846
 8217WAT      O24892   5.118   0.401   9.868
 8217WAT     H124893   5.076   0.467   9.930
 8217WAT     H224894   5.051   0.331   9.844
 8218WAT      O24895   9.372   0.953   4.866
 8218WAT     H124896   9.378   0.891   4.787
 8218WAT     H224897   9.291   1.011   4.856
 8219WAT      O24898   0.339   3.548   1.228
 8219WAT     H124899   0.266   3.589   1.283
 8219WAT     H224900   0.379   3.471   1.278
 8220WAT      O24901   5.232   3.570   0.125
 8220WAT     H124902   5.209   3.509   0.050
 8220WAT     H224903   5.245   3.517   0.208
 8221WAT      O24904   2.149   0.148   9.780
 8221WAT     H124905   2.072   0.207   9.755
 8221WAT     H224906   2.144   0.063   9.729
 8222WAT      O24907   1.629   0.430   1.486
 8222WAT     H124908   1.632   0.352   1.424
 8222WAT     H224909   1.713   0.483   1.476
 8223WAT      O24910   7.129   6.253   3.719
 8223WAT     H124911   7.113   6.276   3.815
 8223WAT     H224912   7.103   6.158   3.703
 8224WAT      O24913   2.485   0.589   4.066
 8224WAT     H124914   2.468   0.668   4.125
 8224WAT     H224915   2.439   0.602   3.979
 8225WAT      O24916   9.194   6.086   1.638
 8225WAT     H124917   9.281   6.061   1.596
 8225WAT     H224918   9.141   6.141   1.574
 8226WAT      O24919   1.314   0.353   3.358
 8226WAT     H124920   1.336   0.399   3.444
 8226WAT     H224921   1.398   0.343   3.304
 8227WAT      O24922   3.326   5.733   4.280
 8227WAT     H124923   3.231   5.702   4.283
 8227WAT     H224924   3.376   5.682   4.210
 8228WAT      O24925   9.634   1.494   9.816
 8228WAT     H124926   9.654   1.490   9.718
 8228WAT     H224927   9.535   1.493   9.830
 8229WAT      O24928   2.455   9.133   9.111
 8229WAT     H124929   2.436   9.182   9.196
 8229WAT     H224930   2.547   9.093   9.116
 8230WAT      O24931   3.954   7.907   3.572
 8230WAT     H124932   3.947   7.826   3.630
 8230WAT     H224933   3.954   7.878   3.476
 8231WAT      O24934   2.350   0.602   4.578
 8231WAT     H124935   2.412   0.527   4.555
 8231WAT     H224936   2.332   0.656   4.497
 8232WAT      O24937   8.651   1.323   1.391
 8232WAT     H124938   8.733   1.373   1.361
 8232WAT     H224939   8.616   1.364   1.475
 8233WAT      O24940   1.291   6.148   9.182
 8233WAT     H124941   1.375   6.202   9.190
 8233WAT     H224942   1.234   6.187   9.109
 8234WAT      O24943   5.841   2.528   4.171
 8234WAT     H124944   5.873   2.516   4.077
 8234WAT     H224945   5.866   2.619   4.203
 8235WAT      O24946   4.557   7.155   2.170
 8235WAT     H124947   4.460   7.176   2.184
 8235WAT     H224948   4.613   7.219   2.222
 8236WAT      O24949   1.809   0.217   9.452
 8236WAT     H124950   1.716   0.182   9.467
 8236WAT     H224951   1.812   0.266   9.364
 8237WAT      O24952   6.270   6.388   4.563
 8237WAT     H124953   6.338   6.315   4.566
 8237WAT     H224954   6.217   6.381   4.479
 8238WAT      O24955   9.573   4.693   1.128
 8238WAT     H124956   9.550   4.607   1.174
 8238WAT     H224957   9.628   4.673   1.046
 8239WAT      O24958   1.682   6.172   4.080
 8239WAT     H124959   1.740   6.136   4.153
 8239WAT     H224960   1.604   6.111   4.067
 8240WAT      O24961   2.436   7.558   0.295
 8240WAT     H124962   2.444   7.595   0.388
 8240WAT     H224963   2.495   7.611   0.233
 8241WAT      O24964   2.959   5.287   8.727
 8241WAT     H124965   2.867   5.303   8.762
 8241WAT     H224966   2.968   5.191   8.699
 8242WAT      O24967   2.559   2.614   2.129
 8242WAT     H124968   2.480   2.646   2.181
 8242WAT     H224969   2.600   2.691   2.079
 8243WAT      O24970   4.310   6.609   5.027
 8243WAT     H124971   4.370   6.615   4.947
 8243WAT     H224972   4.235   6.547   5.007
 8244WAT      O24973   8.104   7.692   8.147
 8244WAT     H124974   8.007   7.702   8.125
 8244WAT     H224975   8.117   7.702   8.245
 8245WAT      O24976   6.251   6.839   0.728
 8245WAT     H124977   6.293   6.922   0.764
 8245WAT     H224978   6.226   6.853   0.632
 8246WAT      O24979   9.315   8.343   1.413
 8246WAT     H124980   9.257   8.262   1.413
 8246WAT     H224981   9.299   8.396   1.497
 8247WAT      O24982   5.555   7.468   5.472
 8247WAT     H124983   5.486   7.441   5.405
 8247WAT     H224984   5.533   7.428   5.561
 8248WAT      O24985   0.479   0.965   5.656
 8248WAT     H124986   0.438   1.044   5.610
 8248WAT     H224987   0.530   0.997   5.736
 8249WAT      O24988   9.022   7.663   8.066
 8249WAT     H124989   9.110   7.624   8.041
 8249WAT     H224990   9.024   7.690   8.162
 8250WAT      O24991   4.511   8.748   4.280
 8250WAT     H124992   4.441   8.733   4.350
 8250WAT     H224993   4.535   8.660   4.238
 8251WAT      O24994   3.502   1.379   4.282
 8251WAT     H124995   3.507   1.320   4.362
 8251WAT     H224996   3.535   1.471   4.305
 8252WAT      O24997   7.674   3.131   2.310
 8252WAT     H124998   7.678   3.032   2.296
 8252WAT     H224999   7.662   3.151   2.407
 8253WAT      O25000   5.198   2.636   3.862
 8253WAT     H125001   5.114   2.674   3.824
 8253WAT     H225002   5.269   2.706   3.864
 8254WAT      O25003   5.992   4.721   8.237
 8254WAT     H125004   6.067   4.755   8.180
 8254WAT     H225005   5.905   4.753   8.199
 8255WAT      O25006   6.618   9.780   6.846
 8255WAT     H125007   6.619   9.877   6.871
 8255WAT     H225008   6.527   9.755   6.813
 8256WAT      O25009   9.125   6.696   9.824
 8256WAT     H125010   9.117   6.645   9.910
 8256WAT     H225011   9.107   6.634   9.747
 8257WAT      O25012   3.442   6.854   5.745
 8257WAT     H125013   3.439   6.769   5.693
 8257WAT     H225014   3.351   6.896   5.747
 8258WAT      O25015   0.884   2.141   0.768
 8258WAT     H125016   0.964   2.111   0.717
 8258WAT     H225017   0.801   2.129   0.713
 8259WAT      O25018   3.219   3.286   9.509
 8259WAT     H125019   3.313   3.305   9.481
 8259WAT     H225020   3.174   3.372   9.532
 8260WAT      O25021   4.056   4.745   2.499
 8260WAT     H125022   4.143   4.706   2.469
 8260WAT     H225023   4.074   4.820   2.562
 8261WAT      O25024   0.312   3.298   8.841
 8261WAT     H125025   0.360   3.249   8.914
 8261WAT     H225026   0.357   3.385   8.824
 8262WAT      O25027   3.870   6.638   8.975
 8262WAT     H125028   3.937   6.710   8.956
 8262WAT     H225029   3.796   6.674   9.032
 8263WAT      O25030   7.816   4.010   9.739
 8263WAT     H125031   7.771   4.059   9.814
 8263WAT     H225032   7.911   4.039   9.733
 8264WAT      O25033   7.299   3.285   7.705
 8264WAT     H125034   7.219   3.331   7.665
 8264WAT     H225035   7.317   3.201   7.653
 8265WAT      O25036   4.182   7.009   8.907
 8265WAT     H125037   4.088   7.043   8.909
 8265WAT     H225038   4.232   7.043   8.986
 8266WAT      O25039   3.605   2.513   4.531
 8266WAT     H125040   3.576   2.573   4.456
 8266WAT     H225041   3.529   2.503   4.596
 8267WAT      O25042   8.168   9.446   1.350
 8267WAT     H125043   8.217   9.517   1.402
 8267WAT     H225044   8.148   9.480   1.258
 8268WAT      O25045   6.048   6.561   2.203
 8268WAT     H125046   6.146   6.542   2.200
 8268WAT     H225047   6.009   6.549   2.111
 8269WAT      O25048   0.304   4.959   2.079
 8269WAT     H125049   0.385   4.918   2.119
 8269WAT     H225050   0.318   5.058   2.068
 8270WAT      O25051   8.156   1.926   4.438
 8270WAT     H125052   8.145   1.989   4.361
 8270WAT     H225053   8.137   1.973   4.524
 8271WAT      O25054   8.123   9.774   3.378
 8271WAT     H125055   8.129   9.726   3.291
 8271WAT     H225056   8.138   9.710   3.453
 8272WAT      O25057   7.223   9.324   8.113
 8272WAT     H125058   7.288   9.277   8.054
 8272WAT     H225059   7.143   9.351   8.059
 8273WAT      O25060   6.722   0.733   9.286
 8273WAT     H125061   6.764   0.701   9.201
 8273WAT     H225062   6.623   0.718   9.281
 8274WAT      O25063   9.040   0.825   5.989
 8274WAT     H125064   9.065   0.798   5.896
 8274WAT     H225065   8.948   0.793   6.010
 8275WAT      O25066   1.498   7.765   5.664
 8275WAT     H125067   1.452   7.680   5.689
 8275WAT     H225068   1.518   7.817   5.746
 8276WAT      O25069   5.570   1.435   0.108
 8276WAT     H125070   5.546   1.520   0.155
 8276WAT     H225071   5.489   1.399   0.061
 8277WAT      O25072   8.861   8.384   2.279
 8277WAT     H125073   8.787   8.318   2.272
 8277WAT     H225074   8.867   8.417   2.374
 8278WAT      O25075   3.767   0.850   8.841
 8278WAT     H125076   3.682   0.902   8.848
 8278WAT     H225077   3.759   0.781   8.769
 8279WAT      O25078   1.061   5.698   7.671
 8279WAT     H125079   1.102   5.645   7.597
 8279WAT     H225080   0.968   5.663   7.689
 8280WAT      O25081   2.236   9.560   0.671
 8280WAT     H125082   2.146   9.596   0.647
 8280WAT     H225083   2.288   9.543   0.587
 8281WAT      O25084   8.175   7.423   8.135
 8281WAT     H125085   8.084   7.383   8.144
 8281WAT     H225086   8.171   7.519   8.162
 8282WAT      O25087   5.709   9.302   8.819
 8282WAT     H125088   5.753   9.221   8.779
 8282WAT     H225089   5.668   9.277   8.907
 8283WAT      O25090   4.339   5.314   7.765
 8283WAT     H125091   4.344   5.264   7.852
 8283WAT     H225092   4.422   5.298   7.712
 8284WAT      O25093   6.944   4.727   5.742
 8284WAT     H125094   6.945   4.644   5.686
 8284WAT     H225095   6.870   4.721   5.809
 8285WAT      O25096   7.678   3.271   8.853
 8285WAT     H125097   7.723   3.220   8.927
 8285WAT     H225098   7.611   3.212   8.809
 8286WAT      O25099   8.247   7.201   5.339
 8286WAT     H125100   8.263   7.269   5.410
 8286WAT     H225101   8.213   7.117   5.381
 8287WAT      O25102   4.706   3.375   5.615
 8287WAT     H125103   4.765   3.316   5.670
 8287WAT     H225104   4.660   3.321   5.545
 8288WAT      O25105   2.310   0.166   6.709
 8288WAT     H125106   2.299   0.068   6.689
 8288WAT     H225107   2.402   0.182   6.744
 8289WAT      O25108   1.172   0.682   2.725
 8289WAT     H125109   1.238   0.756   2.720
 8289WAT     H225110   1.084   0.717   2.755
 8290WAT      O25111   9.181   5.105   9.580
 8290WAT     H125112   9.241   5.185   9.578
 8290WAT     H225113   9.089   5.130   9.549
 8291WAT      O25114   7.671   6.039   5.799
 8291WAT     H125115   7.747   6.064   5.738
 8291WAT     H225116   7.599   5.994   5.745
 8292WAT      O25117   8.367   7.321   5.712
 8292WAT     H125118   8.451   7.369   5.735
 8292WAT     H225119   8.330   7.357   5.626
 8293WAT      O25120   8.964   2.241   7.766
 8293WAT     H125121   8.951   2.314   7.833
 8293WAT     H225122   8.980   2.281   7.676
 8294WAT      O25123   6.369   7.286   8.139
 8294WAT     H125124   6.414   7.197   8.135
 8294WAT     H225125   6.408   7.345   8.068
 8295WAT      O25126   6.603   6.322   4.757
 8295WAT     H125127   6.561   6.250   4.701
 8295WAT     H225128   6.702   6.313   4.753
 8296WAT      O25129   9.118   4.417   7.522
 8296WAT     H125130   9.070   4.330   7.531
 8296WAT     H225131   9.216   4.403   7.536
 8297WAT      O25132   3.172   5.635   2.067
 8297WAT     H125133   3.081   5.625   2.028
 8297WAT     H225134   3.240   5.604   2.000
 8298WAT      O25135   4.519   6.295   3.476
 8298WAT     H125136   4.510   6.394   3.473
 8298WAT     H225137   4.475   6.255   3.395
 8299WAT      O25138   2.733   6.617   2.766
 8299WAT     H125139   2.678   6.545   2.807
 8299WAT     H225140   2.795   6.656   2.834
 8300WAT      O25141   7.646   8.440   2.163
 8300WAT     H125142   7.559   8.480   2.192
 8300WAT     H225143   7.654   8.347   2.199
 8301WAT      O25144   6.607   0.201   8.318
 8301WAT     H125145   6.545   0.225   8.243
 8301WAT     H225146   6.641   0.285   8.360
 8302WAT      O25147   4.674   0.062   5.191
 8302WAT     H125148   4.742  -0.011   5.189
 8302WAT     H225149   4.616   0.052   5.271
 8303WAT      O25150   4.339   4.304   0.624
 8303WAT     H125151   4.372   4.315   0.531
 8303WAT     H225152   4.278   4.380   0.647
 8304WAT      O25153   0.399   1.171   5.512
 8304WAT     H125154   0.299   1.175   5.519
 8304WAT     H225155   0.426   1.177   5.416
 8305WAT      O25156   7.156   0.420   1.195
 8305WAT     H125157   7.111   0.357   1.258
 8305WAT     H225158   7.224   0.370   1.140
 8306WAT      O25159   5.942   3.403   2.271
 8306WAT     H125160   6.007   3.379   2.344
 8306WAT     H225161   5.893   3.321   2.242
 8307WAT      O25162   5.295   2.993   9.631
 8307WAT     H125163   5.295   2.938   9.714
 8307WAT     H225164   5.341   3.080   9.649
 8308WAT      O25165   3.741   3.257   2.328
 8308WAT     H125166   3.678   3.216   2.394
 8308WAT     H225167   3.715   3.352   2.311
 8309WAT      O25168   5.741   8.791   3.090
 8309WAT     H125169   5.798   8.743   3.156
 8309WAT     H225170   5.794   8.810   3.007
 8310WAT      O25171   0.961   3.715   0.368
 8310WAT     H125172   1.017   3.634   0.348
 8310WAT     H225173   0.909   3.740   0.286
 8311WAT      O25174   2.768   9.198   5.288
 8311WAT     H125175   2.741   9.255   5.366
 8311WAT     H225176   2.697   9.129   5.271
 8312WAT      O25177   3.484   4.169   7.316
 8312WAT     H125178   3.582   4.153   7.303
 8312WAT     H225179   3.458   4.253   7.269
 8313WAT      O25180   3.983   9.014   8.284
 8313WAT     H125181   4.035   8.944   8.235
 8313WAT     H225182   4.039   9.052   8.358
 8314WAT      O25183   4.374   3.856   3.324
 8314WAT     H125184   4.407   3.882   3.415
 8314WAT     H225185   4.318   3.773   3.331
 8315WAT      O25186   6.508   9.673   3.276
 8315WAT     H125187   6.573   9.738   3.316
 8315WAT     H225188   6.478   9.708   3.187
 8316WAT      O25189   8.401   7.227   6.468
 8316WAT     H125190   8.389   7.258   6.374
 8316WAT     H225191   8.480   7.167   6.474
 8317WAT      O25192   3.699   5.134   1.242
 8317WAT     H125193   3.731   5.094   1.327
 8317WAT     H225194   3.768   5.196   1.206
 8318WAT      O25195   8.747   4.858   7.167
 8318WAT     H125196   8.840   4.892   7.177
 8318WAT     H225197   8.708   4.893   7.082
 8319WAT      O25198   3.242   6.303   7.095
 8319WAT     H125199   3.189   6.241   7.155
 8319WAT     H225200   3.300   6.249   7.035
 8320WAT      O25201   8.237   1.653   1.364
 8320WAT     H125202   8.138   1.666   1.358
 8320WAT     H225203   8.257   1.560   1.392
 8321WAT      O25204   4.021   0.128   4.982
 8321WAT     H125205   3.946   0.132   5.049
 8321WAT     H225206   4.101   0.174   5.019
 8322WAT      O25207   2.616   8.488   5.105
 8322WAT     H125208   2.642   8.451   5.015
 8322WAT     H225209   2.523   8.525   5.100
 8323WAT      O25210   5.989   0.154   5.312
 8323WAT     H125211   6.079   0.185   5.281
 8323WAT     H225212   5.985   0.156   5.412
 8324WAT      O25213   3.819   9.629   2.427
 8324WAT     H125214   3.841   9.565   2.501
 8324WAT     H225215   3.786   9.715   2.466
 8325WAT      O25216   8.375   9.845   7.866
 8325WAT     H125217   8.326   9.858   7.952
 8325WAT     H225218   8.460   9.795   7.883
 8326WAT      O25219   0.075   5.124   1.463
 8326WAT     H125220  -0.012   5.154   1.502
 8326WAT     H225221   0.098   5.181   1.384
 8327WAT      O25222   9.712   9.569   2.183
 8327WAT     H125223   9.790   9.629   2.199
 8327WAT     H225224   9.744   9.474   2.182
 8328WAT      O25225   1.729   7.602   6.787
 8328WAT     H125226   1.698   7.581   6.695
 8328WAT     H225227   1.732   7.702   6.799
 8329WAT      O25228   2.510   7.037   3.479
 8329WAT     H125229   2.564   7.062   3.398
 8329WAT     H225230   2.567   6.986   3.543
 8330WAT      O25231   3.237   4.297   1.776
 8330WAT     H125232   3.203   4.314   1.869
 8330WAT     H225233   3.299   4.219   1.777
 8331WAT      O25234   3.613   6.409   6.987
 8331WAT     H125235   3.566   6.373   6.907
 8331WAT     H225236   3.626   6.508   6.976
 8332WAT      O25237   1.141   0.057   7.990
 8332WAT     H125238   1.193  -0.027   7.975
 8332WAT     H225239   1.197   0.124   8.039
 8333WAT      O25240   1.273   5.422   7.629
 8333WAT     H125241   1.242   5.328   7.645
 8333WAT     H225242   1.206   5.470   7.572
 8334WAT      O25243   4.352   3.716   5.108
 8334WAT     H125244   4.405   3.687   5.187
 8334WAT     H225245   4.390   3.674   5.025
 8335WAT      O25246   6.819   5.254   0.460
 8335WAT     H125247   6.818   5.155   0.474
 8335WAT     H225248   6.849   5.299   0.544
 8336WAT      O25249   9.864   6.296   8.766
 8336WAT     H125250   9.866   6.396   8.765
 8336WAT     H225251   9.769   6.265   8.755
 8337WAT      O25252   1.600   4.965   5.576
 8337WAT     H125253   1.620   4.868   5.562
 8337WAT     H225254   1.502   4.979   5.589
 8338WAT      O25255   4.667   5.847   7.695
 8338WAT     H125256   4.629   5.848   7.788
 8338WAT     H225257   4.750   5.903   7.693
 8339WAT      O25258   5.833   4.778   2.930
 8339WAT     H125259   5.752   4.814   2.976
 8339WAT     H225260   5.885   4.720   2.993
 8340WAT      O25261   4.028   5.740   8.611
 8340WAT     H125262   3.994   5.657   8.567
 8340WAT     H225263   4.011   5.819   8.552
 8341WAT      O25264   0.052   5.207   3.848
 8341WAT     H125265   0.109   5.185   3.769
 8341WAT     H225266   0.017   5.122   3.888
 8342WAT      O25267   0.607   1.604   6.013
 8342WAT     H125268   0.695   1.630   6.051
 8342WAT     H225269   0.614   1.515   5.968
 8343WAT      O25270   1.636   9.153   3.206
 8343WAT     H125271   1.623   9.160   3.108
 8343WAT     H225272   1.734   9.149   3.226
 8344WAT      O25273   7.624   7.609   5.332
 8344WAT     H125274   7.613   7.617   5.233
 8344WAT     H225275   7.572   7.530   5.365
 8345WAT      O25276   0.737   6.505   0.581
 8345WAT     H125277   0.672   6.489   0.507
 8345WAT     H225278   0.802   6.576   0.554
 8346WAT      O25279   2.137   6.054   7.905
 8346WAT     H125280   2.099   5.977   7.853
 8346WAT     H225281   2.064   6.096   7.960
 8347WAT      O25282   8.552   5.789   2.775
 8347WAT     H125283   8.652   5.795   2.770
 8347WAT     H225284   8.522   5.701   2.737
 8348WAT      O25285   7.000   6.094   6.986
 8348WAT     H125286   7.008   6.003   7.025
 8348WAT     H225287   6.941   6.151   7.044
 8349WAT      O25288   0.896   5.781   8.984
 8349WAT     H125289   0.874   5.699   9.036
 8349WAT     H225290   0.915   5.856   9.047
 8350WAT      O25291   8.943   6.793   3.834
 8350WAT     H125292   9.013   6.723   3.850
 8350WAT     H225293   8.885   6.802   3.915
 8351WAT      O25294   4.637   9.478   3.958
 8351WAT     H125295   4.623   9.380   3.944
 8351WAT     H225296   4.699   9.492   4.035
 8352WAT      O25297   3.869   7.206   2.301
 8352WAT     H125298   3.907   7.121   2.338
 8352WAT     H225299   3.769   7.202   2.306
 8353WAT      O25300   6.839   7.376   0.989
 8353WAT     H125301   6.761   7.324   0.956
 8353WAT     H225302   6.876   7.331   1.071
 8354WAT      O25303   5.665   7.888   9.797
 8354WAT     H125304   5.586   7.896   9.736
 8354WAT     H225305   5.642   7.828   9.874
 8355WAT      O25306   2.953   6.337   5.253
 8355WAT     H125307   3.026   6.325   5.186
 8355WAT     H225308   2.971   6.280   5.333
 8356WAT      O25309   6.354   5.982   7.359
 8356WAT     H125310   6.306   6.068   7.343
 8356WAT     H225311   6.292   5.918   7.404
 8357WAT      O25312   4.332   1.895   9.400
 8357WAT     H125313   4.247   1.859   9.437
 8357WAT     H225314   4.408   1.836   9.429
 8358WAT      O25315   4.889   6.036   0.290
 8358WAT     H125316   4.969   6.094   0.303
 8358WAT     H225317   4.883   6.008   0.195
 8359WAT      O25318   6.719   3.623   2.575
 8359WAT     H125319   6.802   3.648   2.526
 8359WAT     H225320   6.654   3.580   2.512
 8360WAT      O25321   1.963   4.215   2.868
 8360WAT     H125322   1.906   4.290   2.834
 8360WAT     H225323   1.928   4.128   2.835
 8361WAT      O25324   5.953   5.359   9.804
 8361WAT     H125325   6.000   5.273   9.822
 8361WAT     H225326   6.014   5.435   9.823
 8362WAT      O25327   6.330   7.659   5.294
 8362WAT     H125328   6.368   7.752   5.288
 8362WAT     H225329   6.404   7.594   5.307
 8363WAT      O25330   6.633   7.438   2.225
 8363WAT     H125331   6.618   7.384   2.308
 8363WAT     H225332   6.724   7.481   2.229
 8364WAT      O25333   6.785   4.752   6.696
 8364WAT     H125334   6.699   4.736   6.744
 8364WAT     H225335   6.770   4.742   6.597
 8365WAT      O25336   6.926   7.597   8.818
 8365WAT     H125337   7.024   7.616   8.809
 8365WAT     H225338   6.874   7.681   8.805
 8366WAT      O25339   5.844   0.206   6.723
 8366WAT     H125340   5.869   0.268   6.648
 8366WAT     H225341   5.768   0.149   6.694
 8367WAT      O25342   0.630   0.990   9.552
 8367WAT     H125343   0.573   1.011   9.473
 8367WAT     H225344   0.637   0.890   9.562
 8368WAT      O25345   1.398   6.971   1.708
 8368WAT     H125346   1.299   6.960   1.706
 8368WAT     H225347   1.441   6.898   1.655
 8369WAT      O25348   5.743   8.078   3.596
 8369WAT     H125349   5.842   8.085   3.582
 8369WAT     H225350   5.710   8.161   3.640
 8370WAT      O25351   9.100   4.166   8.068
 8370WAT     H125352   9.058   4.155   7.978
 8370WAT     H225353   9.029   4.181   8.137
 8371WAT      O25354   3.476   3.394   1.603
 8371WAT     H125355   3.536   3.362   1.531
 8371WAT     H225356   3.381   3.370   1.581
 8372WAT      O25357   8.303   6.377   5.471
 8372WAT     H125358   8.366   6.342   5.402
 8372WAT     H225359   8.329   6.342   5.561
 8373WAT      O25360   9.444   0.527   3.967
 8373WAT     H125361   9.399   0.613   3.939
 8373WAT     H225362   9.540   0.544   3.984
 8374WAT      O25363   2.801   5.189   3.290
 8374WAT     H125364   2.786   5.091   3.278
 8374WAT     H225365   2.765   5.238   3.210
 8375WAT      O25366   2.275   4.110   6.557
 8375WAT     H125367   2.313   4.192   6.514
 8375WAT     H225368   2.203   4.072   6.499
 8376WAT      O25369   5.284   8.376   6.326
 8376WAT     H125370   5.229   8.403   6.405
 8376WAT     H225371   5.259   8.432   6.248
 8377WAT      O25372   4.344   8.616   3.992
 8377WAT     H125373   4.374   8.572   3.907
 8377WAT     H225374   4.369   8.559   4.070
 8378WAT      O25375   3.408   0.129   5.704
 8378WAT     H125376   3.492   0.074   5.710
 8378WAT     H225377   3.384   0.143   5.608
 8379WAT      O25378   4.239   6.220   9.511
 8379WAT     H125379   4.211   6.314   9.491
 8379WAT     H225380   4.196   6.190   9.596
 8380WAT      O25381   8.087   1.225   0.579
 8380WAT     H125382   7.998   1.188   0.553
 8380WAT     H225383   8.159   1.167   0.541
 8381WAT      O25384   7.216   6.246   0.867
 8381WAT     H125385   7.295   6.221   0.923
 8381WAT     H225386   7.131   6.228   0.918
 8382WAT      O25387   4.645   4.829   0.306
 8382WAT     H125388   4.650   4.841   0.207
 8382WAT     H225389   4.646   4.919   0.351
 8383WAT      O25390   0.242   8.761   0.476
 8383WAT     H125391   0.335   8.788   0.452
 8383WAT     H225392   0.204   8.703   0.404
 8384WAT      O25393   7.866   2.408   5.611
 8384WAT     H125394   7.878   2.334   5.677
 8384WAT     H225395   7.768   2.421   5.592
 8385WAT      O25396   0.242   0.595   7.009
 8385WAT     H125397   0.204   0.643   6.930
 8385WAT     H225398   0.176   0.528   7.042
 8386WAT      O25399   9.128   3.079   0.998
 8386WAT     H125400   9.159   2.985   0.983
 8386WAT     H225401   9.093   3.117   0.912
 8387WAT      O25402   9.771   3.803   6.642
 8387WAT     H125403   9.782   3.742   6.564
 8387WAT     H225404   9.755   3.896   6.610
 8388WAT      O25405   0.979   6.155   3.226
 8388WAT     H125406   1.060   6.214   3.220
 8388WAT     H225407   1.003   6.072   3.277
 8389WAT      O25408   8.536   9.661   3.908
 8389WAT     H125409   8.552   9.756   3.936
 8389WAT     H225410   8.462   9.623   3.963
 8390WAT      O25411   2.937   4.262   7.149
 8390WAT     H125412   3.008   4.293   7.212
 8390WAT     H225413   2.961   4.172   7.114
 8391WAT      O25414   1.989   5.406   7.875
 8391WAT     H125415   1.974   5.307   7.878
 8391WAT     H225416   1.906   5.453   7.905
 8392WAT      O25417   8.527   0.262   2.432
 8392WAT     H125418   8.560   0.327   2.364
 8392WAT     H225419   8.518   0.308   2.521
 8393WAT      O25420   8.609   2.802   0.151
 8393WAT     H125421   8.639   2.895   0.173
 8393WAT     H225422   8.679   2.737   0.178
 8394WAT      O25423   4.659   9.212   7.439
 8394WAT     H125424   4.734   9.243   7.497
 8394WAT     H225425   4.627   9.123   7.471
 8395WAT      O25426   0.716   9.137   7.133
 8395WAT     H125427   0.659   9.092   7.064
 8395WAT     H225428   0.661   9.155   7.215
 8396WAT      O25429   3.080   3.505   9.545
 8396WAT     H125430   2.996   3.455   9.565
 8396WAT     H225431   3.056   3.596   9.509
 8397WAT      O25432   2.125   1.452   3.970
 8397WAT     H125433   2.078   1.510   4.036
 8397WAT     H225434   2.115   1.491   3.878
 8398WAT      O25435   5.190   9.775   1.026
 8398WAT     H125436   5.093   9.755   1.043
 8398WAT     H225437   5.202   9.803   0.931
 8399WAT      O25438   4.239   1.896   8.797
 8399WAT     H125439   4.242   1.993   8.820
 8399WAT     H225440   4.180   1.848   8.861
 8400WAT      O25441   2.962   9.228   1.578
 8400WAT     H125442   2.866   9.214   1.556
 8400WAT     H225443   2.972   9.307   1.637
 8401WAT      O25444   4.565   7.198   4.194
 8401WAT     H125445   4.571   7.297   4.188
 8401WAT     H225446   4.492   7.166   4.134
 8402WAT      O25447   3.943   5.630   7.462
 8402WAT     H125448   4.039   5.650   7.444
 8402WAT     H225449   3.935   5.575   7.545
 8403WAT      O25450   1.680   1.249   7.912
 8403WAT     H125451   1.659   1.153   7.893
 8403WAT     H225452   1.689   1.298   7.826
 8404WAT      O25453   5.368   7.502   0.483
 8404WAT     H125454   5.289   7.515   0.542
 8404WAT     H225455   5.349   7.537   0.392
 8405WAT      O25456   9.561   5.294   7.510
 8405WAT     H125457   9.494   5.364   7.485
 8405WAT     H225458   9.521   5.203   7.498
 8406WAT      O25459   0.436   8.655   5.373
 8406WAT     H125460   0.515   8.621   5.323
 8406WAT     H225461   0.361   8.673   5.308
 8407WAT      O25462   9.875   7.139   5.919
 8407WAT     H125463   9.807   7.103   5.983
 8407WAT     H225464   9.909   7.227   5.952
 8408WAT      O25465   3.230   3.762   5.007
 8408WAT     H125466   3.229   3.708   4.923
 8408WAT     H225467   3.297   3.723   5.071
 8409WAT      O25468   4.137   5.223   9.440
 8409WAT     H125469   4.055   5.191   9.488
 8409WAT     H225470   4.211   5.237   9.505
 8410WAT      O25471   2.162   4.490   5.189
 8410WAT     H125472   2.189   4.398   5.218
 8410WAT     H225473   2.105   4.531   5.260
 8411WAT      O25474   0.011   0.590   7.194
 8411WAT     H125475  -0.084   0.620   7.191
 8411WAT     H225476   0.054   0.624   7.278
 8412WAT      O25477   2.393   9.826   1.634
 8412WAT     H125478   2.367   9.739   1.591
 8412WAT     H225479   2.489   9.823   1.661
 8413WAT      O25480   2.164   5.093   5.913
 8413WAT     H125481   2.168   5.192   5.898
 8413WAT     H225482   2.068   5.064   5.919
 8414WAT      O25483   5.780   2.901   4.603
 8414WAT     H125484   5.839   2.942   4.533
 8414WAT     H225485   5.828   2.825   4.647
 8415WAT      O25486   1.890   5.685   4.371
 8415WAT     H125487   1.812   5.675   4.433
 8415WAT     H225488   1.857   5.699   4.278
 8416WAT      O25489   8.504   5.465   1.352
 8416WAT     H125490   8.560   5.443   1.432
 8416WAT     H225491   8.554   5.529   1.294
 8417WAT      O25492  -0.000   7.787   3.487
 8417WAT     H125493   0.089   7.827   3.464
 8417WAT     H225494  -0.047   7.758   3.403
 8418WAT      O25495   5.411   1.454   6.244
 8418WAT     H125496   5.328   1.421   6.287
 8418WAT     H225497   5.451   1.381   6.188
 8419WAT      O25498   2.968   4.629   8.967
 8419WAT     H125499   2.961   4.728   8.978
 8419WAT     H225500   2.912   4.601   8.889
 8420WAT      O25501   1.412   5.154   2.136
 8420WAT     H125502   1.507   5.178   2.118
 8420WAT     H225503   1.355   5.235   2.127
 8421WAT      O25504   4.522   7.373   9.614
 8421WAT     H125505   4.509   7.276   9.634
 8421WAT     H225506   4.470   7.428   9.679
 8422WAT      O25507   1.820   7.189   0.057
 8422WAT     H125508   1.794   7.271   0.107
 8422WAT     H225509   1.782   7.108   0.103
 8423WAT      O25510   5.509   2.020   2.846
 8423WAT     H125511   5.603   2.046   2.869
 8423WAT     H225512   5.510   1.929   2.803
 8424WAT      O25513   1.317   7.986   0.987
 8424WAT     H125514   1.381   8.030   0.924
 8424WAT     H225515   1.292   7.896   0.951
 8425WAT      O25516   8.321   7.860   2.493
 8425WAT     H125517   8.326   7.764   2.466
 8425WAT     H225518   8.407   7.886   2.538
 8426WAT      O25519   9.699   7.073   9.452
 8426WAT     H125520   9.676   6.995   9.394
 8426WAT     H225521   9.669   7.158   9.408
 8427WAT      O25522   3.825   6.109   6.283
 8427WAT     H125523   3.752   6.108   6.214
 8427WAT     H225524   3.912   6.134   6.239
 8428WAT      O25525   3.946   2.908   0.478
 8428WAT     H125526   3.900   2.894   0.566
 8428WAT     H225527   3.896   2.976   0.425
 8429WAT      O25528   6.748   7.837   1.099
 8429WAT     H125529   6.735   7.899   1.022
 8429WAT     H225530   6.845   7.811   1.105
 8430WAT      O25531   0.862   8.189   7.224
 8430WAT     H125532   0.805   8.113   7.255
 8430WAT     H225533   0.927   8.213   7.296
 8431WAT      O25534   5.107   0.327   8.818
 8431WAT     H125535   5.067   0.274   8.743
 8431WAT     H225536   5.171   0.394   8.780
 8432WAT      O25537   2.080   8.955   2.971
 8432WAT     H125538   2.032   8.877   2.931
 8432WAT     H225539   2.151   8.923   3.032
 8433WAT      O25540   0.856   2.547   3.861
 8433WAT     H125541   0.848   2.537   3.761
 8433WAT     H225542   0.813   2.633   3.889
 8434WAT      O25543   6.154   5.348   8.815
 8434WAT     H125544   6.127   5.444   8.808
 8434WAT     H225545   6.245   5.336   8.775
 8435WAT      O25546   6.197   2.722   8.107
 8435WAT     H125547   6.166   2.812   8.078
 8435WAT     H225548   6.118   2.668   8.135
 8436WAT      O25549   6.133   1.808   8.104
 8436WAT     H125550   6.105   1.783   8.012
 8436WAT     H225551   6.223   1.770   8.123
 8437WAT      O25552   1.689   8.837  -0.000
 8437WAT     H125553   1.760   8.783  -0.046
 8437WAT     H225554   1.720   8.861   0.092
 8438WAT      O25555   7.938   3.981   5.057
 8438WAT     H125556   7.912   3.915   5.128
 8438WAT     H225557   7.860   3.999   4.998
 8439WAT      O25558   9.552   3.292   3.048
 8439WAT     H125559   9.477   3.226   3.051
 8439WAT     H225560   9.538   3.361   3.119
 8440WAT      O25561   0.970   5.770   3.578
 8440WAT     H125562   0.995   5.786   3.674
 8440WAT     H225563   0.870   5.771   3.570
 8441WAT      O25564   2.207   9.536   0.945
 8441WAT     H125565   2.224   9.522   0.848
 8441WAT     H225566   2.178   9.630   0.961
 8442WAT      O25567   1.584   4.657   8.886
 8442WAT     H125568   1.555   4.602   8.964
 8442WAT     H225569   1.683   4.675   8.892
 8443WAT      O25570   1.509   7.243   2.108
 8443WAT     H125571   1.451   7.252   2.189
 8443WAT     H225572   1.578   7.173   2.123
 8444WAT      O25573   1.456   0.019   1.976
 8444WAT     H125574   1.391  -0.054   1.997
 8444WAT     H225575   1.536  -0.020   1.930
 8445WAT      O25576   8.424   2.112   8.682
 8445WAT     H125577   8.438   2.121   8.780
 8445WAT     H225578   8.391   2.198   8.645
 8446WAT      O25579   7.540   9.080   6.953
 8446WAT     H125580   7.476   9.005   6.938
 8446WAT     H225581   7.620   9.068   6.894
 8447WAT      O25582   2.441   2.512   7.880
 8447WAT     H125583   2.414   2.577   7.951
 8447WAT     H225584   2.539   2.494   7.886
 8448WAT      O25585   0.543   8.904   3.645
 8448WAT     H125586   0.565   8.922   3.742
 8448WAT     H225587   0.628   8.898   3.593
 8449WAT      O25588   2.966   2.742   3.188
 8449WAT     H125589   2.989   2.655   3.231
 8449WAT     H225590   3.046   2.775   3.137
 8450WAT      O25591   6.493   1.799   8.384
 8450WAT     H125592   6.457   1.880   8.430
 8450WAT     H225593   6.593   1.804   8.380
 8451WAT      O25594   9.410   5.887   9.438
 8451WAT     H125595   9.335   5.924   9.384
 8451WAT     H225596   9.468   5.829   9.380
 8452WAT      O25597   7.757   1.781   9.383
 8452WAT     H125598   7.714   1.866   9.351
 8452WAT     H225599   7.824   1.750   9.316
 8453WAT      O25600   7.465   5.572   5.303
 8453WAT     H125601   7.398   5.646   5.300
 8453WAT     H225602   7.417   5.484   5.311
 8454WAT      O25603   4.954   9.400   2.812
 8454WAT     H125604   4.949   9.309   2.852
 8454WAT     H225605   4.976   9.467   2.883
 8455WAT      O25606   2.059   5.681   0.628
 8455WAT     H125607   2.078   5.591   0.667
 8455WAT     H225608   2.130   5.745   0.656
 8456WAT      O25609   1.825   9.082   7.242
 8456WAT     H125610   1.832   9.000   7.299
 8456WAT     H225611   1.861   9.161   7.292
 8457WAT      O25612   4.840   2.496   7.085
 8457WAT     H125613   4.834   2.422   7.152
 8457WAT     H225614   4.749   2.517   7.050
 8458WAT      O25615   9.196   1.714   4.504
 8458WAT     H125616   9.109   1.758   4.525
 8458WAT     H225617   9.265   1.743   4.570
 8459WAT      O25618   7.142   4.715   0.933
 8459WAT     H125619   7.071   4.710   1.004
 8459WAT     H225620   7.207   4.641   0.945
 8460WAT      O25621   3.502   0.983   8.540
 8460WAT     H125622   3.592   0.998   8.499
 8460WAT     H225623   3.506   0.999   8.638
 8461WAT      O25624   0.053   4.347   4.036
 8461WAT     H125625   0.150   4.372   4.043
 8461WAT     H225626   0.013   4.344   4.128
 8462WAT      O25627   5.444   1.792   4.160
 8462WAT     H125628   5.360   1.807   4.107
 8462WAT     H225629   5.487   1.880   4.178
 8463WAT      O25630   3.871   0.488   5.912
 8463WAT     H125631   3.930   0.569   5.905
 8463WAT     H225632   3.912   0.421   5.974
 8464WAT      O25633   8.211   9.496   3.353
 8464WAT     H125634   8.219   9.396   3.359
 8464WAT     H225635   8.201   9.534   3.445
 8465WAT      O25636   0.820   0.732   4.942
 8465WAT     H125637   0.884   0.781   4.882
 8465WAT     H225638   0.865   0.709   5.028
 8466WAT      O25639   1.626   2.842   9.660
 8466WAT     H125640   1.542   2.790   9.643
 8466WAT     H225641   1.620   2.885   9.750
 8467WAT      O25642   5.522   8.576   7.168
 8467WAT     H125643   5.554   8.482   7.181
 8467WAT     H225644   5.442   8.593   7.226
 8468WAT      O25645   4.054   6.105   7.016
 8468WAT     H125646   4.106   6.179   6.974
 8468WAT     H225647   3.976   6.143   7.066
 8469WAT      O25648   7.585   3.681   6.298
 8469WAT     H125649   7.518   3.608   6.309
 8469WAT     H225650   7.537   3.767   6.278
 8470WAT      O25651   8.911   3.156   8.296
 8470WAT     H125652   8.932   3.159   8.394
 8470WAT     H225653   8.825   3.107   8.281
 8471WAT      O25654   5.726   8.795   4.899
 8471WAT     H125655   5.743   8.887   4.863
 8471WAT     H225656   5.755   8.792   4.995
 8472WAT      O25657   5.614   7.778   8.520
 8472WAT     H125658   5.651   7.855   8.468
 8472WAT     H225659   5.563   7.718   8.459
 8473WAT      O25660   8.973   0.206   4.585
 8473WAT     H125661   8.948   0.195   4.489
 8473WAT     H225662   8.926   0.286   4.623
 8474WAT      O25663   7.149   7.275   4.619
 8474WAT     H125664   7.150   7.326   4.705
 8474WAT     H225665   7.190   7.185   4.633
 8475WAT      O25666   5.452   4.025   3.691
 8475WAT     H125667   5.406   3.992   3.774
 8475WAT     H225668   5.432   4.122   3.679
 8476WAT      O25669   6.997   1.055   7.698
 8476WAT     H125670   6.980   1.034   7.601
 8476WAT     H225671   6.912   1.043   7.750
 8477WAT      O25672   3.005   5.239   5.893
 8477WAT     H125673   2.975   5.279   5.980
 8477WAT     H225674   2.926   5.229   5.833
 8478WAT      O25675   6.867   1.153   5.727
 8478WAT     H125676   6.915   1.216   5.666
 8478WAT     H225677   6.883   1.182   5.822
 8479WAT      O25678   2.603   2.353   2.081
 8479WAT     H125679   2.598   2.449   2.107
 8479WAT     H225680   2.650   2.343   1.994
 8480WAT      O25681   1.280   6.506   4.067
 8480WAT     H125682   1.347   6.443   4.107
 8480WAT     H225683   1.241   6.465   3.985
 8481WAT      O25684   4.984   5.415   2.219
 8481WAT     H125685   4.993   5.318   2.245
 8481WAT     H225686   4.894   5.448   2.246
 8482WAT      O25687   3.373   6.007   1.753
 8482WAT     H125688   3.437   6.069   1.707
 8482WAT     H225689   3.285   6.011   1.707
 8483WAT      O25690   2.897   9.501   3.759
 8483WAT     H125691   2.951   9.573   3.802
 8483WAT     H225692   2.943   9.413   3.771
 8484WAT      O25693   9.440   5.688   0.490
 8484WAT     H125694   9.448   5.783   0.458
 8484WAT     H225695   9.380   5.637   0.428
 8485WAT      O25696   8.933   6.301   9.557
 8485WAT     H125697   9.004   6.232   9.543
 8485WAT     H225698   8.975   6.386   9.590
 8486WAT      O25699   8.501   9.466   0.336
 8486WAT     H125700   8.506   9.367   0.350
 8486WAT     H225701   8.474   9.510   0.422
 8487WAT      O25702   4.014   3.648   9.540
 8487WAT     H125703   3.992   3.552   9.554
 8487WAT     H225704   3.936   3.705   9.567
 8488WAT      O25705   7.692   3.195   6.704
 8488WAT     H125706   7.592   3.206   6.708
 8488WAT     H225707   7.719   3.165   6.613
 8489WAT      O25708   4.298   1.832   2.098
 8489WAT     H125709   4.314   1.930   2.089
 8489WAT     H225710   4.323   1.786   2.013
 8490WAT      O25711   3.712   8.761   1.408
 8490WAT     H125712   3.753   8.827   1.471
 8490WAT     H225713   3.651   8.808   1.344
 8491WAT      O25714   4.014   3.524   6.066
 8491WAT     H125715   3.916   3.518   6.049
 8491WAT     H225716   4.061   3.453   6.014
 8492WAT      O25717   5.078   4.941   5.600
 8492WAT     H125718   5.031   4.854   5.590
 8492WAT     H225719   5.171   4.925   5.633
 8493WAT      O25720   6.368   7.280   8.903
 8493WAT     H125721   6.385   7.194   8.951
 8493WAT     H225722   6.277   7.313   8.926
 8494WAT      O25723   4.143   8.205   5.354
 8494WAT     H125724   4.053   8.221   5.315
 8494WAT     H225725   4.182   8.121   5.314
 8495WAT      O25726   6.726   3.952   1.182
 8495WAT     H125727   6.716   3.862   1.222
 8495WAT     H225728   6.710   4.022   1.252
 8496WAT      O25729   1.591   5.255   6.275
 8496WAT     H125730   1.678   5.265   6.226
 8496WAT     H225731   1.516   5.249   6.209
 8497WAT      O25732   4.882   2.298   1.272
 8497WAT     H125733   4.964   2.242   1.283
 8497WAT     H225734   4.900   2.370   1.205
 8498WAT      O25735   2.931   7.159   5.651
 8498WAT     H125736   2.971   7.078   5.609
 8498WAT     H225737   2.844   7.134   5.695
 8499WAT      O25738   2.503   3.977   6.403
 8499WAT     H125739   2.474   3.998   6.496
 8499WAT     H225740   2.424   3.979   6.342
 8500WAT      O25741   1.569   3.737   2.704
 8500WAT     H125742   1.591   3.670   2.774
 8500WAT     H225743   1.581   3.829   2.740
 8501WAT      O25744   9.859   0.119   0.710
 8501WAT     H125745   9.773   0.120   0.761
 8501WAT     H225746   9.882   0.025   0.686
 8502WAT      O25747   0.160   4.727   2.067
 8502WAT     H125748   0.214   4.810   2.079
 8502WAT     H225749   0.180   4.687   1.977
 8503WAT      O25750   6.954   7.117   5.523
 8503WAT     H125751   7.042   7.105   5.569
 8503WAT     H225752   6.888   7.052   5.561
 8504WAT      O25753   3.405   4.838   5.010
 8504WAT     H125754   3.388   4.890   4.926
 8504WAT     H225755   3.406   4.900   5.088
 8505WAT      O25756   5.337   1.278   8.345
 8505WAT     H125757   5.267   1.251   8.278
 8505WAT     H225758   5.411   1.325   8.298
 8506WAT      O25759   5.886   3.877   7.913
 8506WAT     H125760   5.819   3.936   7.869
 8506WAT     H225761   5.893   3.901   8.010
 8507WAT      O25762   8.716   4.804   0.372
 8507WAT     H125763   8.648   4.731   0.372
 8507WAT     H225764   8.682   4.881   0.425
 8508WAT      O25765   3.083   7.236   9.876
 8508WAT     H125766   3.160   7.285   9.918
 8508WAT     H225767   3.003   7.243   9.937
 8509WAT      O25768   3.143   3.115   1.408
 8509WAT     H125769   3.046   3.138   1.400
 8509WAT     H225770   3.155   3.017   1.392
 8510WAT      O25771   9.865   5.469   3.390
 8510WAT     H125772   9.832   5.559   3.360
 8510WAT     H225773   9.808   5.436   3.465
 8511WAT      O25774   3.949   8.070   1.258
 8511WAT     H125775   3.893   8.045   1.336
 8511WAT     H225776   3.939   8.001   1.186
 8512WAT      O25777   9.667   2.042   4.944
 8512WAT     H125778   9.681   1.945   4.961
 8512WAT     H225779   9.569   2.063   4.945
 8513WAT      O25780   2.522   1.829   8.878
 8513WAT     H125781   2.599   1.855   8.934
 8513WAT     H225782   2.438   1.832   8.932
 8514WAT      O25783   3.230   9.799   8.464
 8514WAT     H125784   3.286   9.857   8.405
 8514WAT     H225785   3.133   9.812   8.442
 8515WAT      O25786   2.382   1.827   7.764
 8515WAT     H125787   2.416   1.887   7.836
 8515WAT     H225788   2.288   1.800   7.785
 8516WAT      O25789   7.930   7.733   1.712
 8516WAT     H125790   7.902   7.654   1.657
 8516WAT     H225791   7.944   7.705   1.807
 8517WAT      O25792   7.520   1.279   8.481
 8517WAT     H125793   7.449   1.289   8.550
 8517WAT     H225794   7.478   1.273   8.390
 8518WAT      O25795   2.406   9.231   7.646
 8518WAT     H125796   2.443   9.322   7.630
 8518WAT     H225797   2.408   9.179   7.560
 8519WAT      O25798   6.011   1.937   1.940
 8519WAT     H125799   6.035   1.840   1.943
 8519WAT     H225800   5.987   1.969   2.031
 8520WAT      O25801   1.303   1.462   2.505
 8520WAT     H125802   1.311   1.558   2.481
 8520WAT     H225803   1.286   1.453   2.603
 8521WAT      O25804   4.983   4.819   1.581
 8521WAT     H125805   4.942   4.728   1.576
 8521WAT     H225806   5.057   4.826   1.514
 8522WAT      O25807   9.228   2.979   2.138
 8522WAT     H125808   9.163   2.912   2.174
 8522WAT     H225809   9.311   2.932   2.109
 8523WAT      O25810   0.948   2.434   4.521
 8523WAT     H125811   1.012   2.491   4.469
 8523WAT     H225812   0.939   2.471   4.614
 8524WAT      O25813   7.101   8.428   2.468
 8524WAT     H125814   7.058   8.501   2.414
 8524WAT     H225815   7.107   8.345   2.414
 8525WAT      O25816   5.038   0.484   2.872
 8525WAT     H125817   5.059   0.578   2.845
 8525WAT     H225818   4.957   0.452   2.823
 8526WAT      O25819   5.407   7.351   2.154
 8526WAT     H125820   5.397   7.405   2.238
 8526WAT     H225821   5.496   7.306   2.154
 8527WAT      O25822   3.896   0.714   1.505
 8527WAT     H125823   3.873   0.662   1.423
 8527WAT     H225824   3.814   0.760   1.540
 8528WAT      O25825   5.686   1.013   1.504
 8528WAT     H125826   5.693   1.014   1.405
 8528WAT     H225827   5.611   0.953   1.532
 8529WAT      O25828   2.355   6.526   3.943
 8529WAT     H125829   2.358   6.426   3.940
 8529WAT     H225830   2.336   6.557   4.036
 8530WAT      O25831   6.341   8.786   0.744
 8530WAT     H125832   6.355   8.722   0.669
 8530WAT     H225833   6.416   8.776   0.810
 8531WAT      O25834   3.815   2.321   5.641
 8531WAT     H125835   3.893   2.382   5.657
 8531WAT     H225836   3.753   2.324   5.720
 8532WAT      O25837   5.749   1.346   6.791
 8532WAT     H125838   5.666   1.384   6.751
 8532WAT     H225839   5.786   1.276   6.730
 8533WAT      O25840   5.694   0.222   8.133
 8533WAT     H125841   5.658   0.246   8.224
 8533WAT     H225842   5.629   0.251   8.063
 8534WAT      O25843   3.710   4.490   5.497
 8534WAT     H125844   3.752   4.576   5.527
 8534WAT     H225845   3.748   4.464   5.409
 8535WAT      O25846   5.623   2.619   7.152
 8535WAT     H125847   5.607   2.524   7.123
 8535WAT     H225848   5.715   2.627   7.189
 8536WAT      O25849   3.204   2.960   5.322
 8536WAT     H125850   3.107   2.980   5.305
 8536WAT     H225851   3.259   2.993   5.245
 8537WAT      O25852   4.252   5.497   9.083
 8537WAT     H125853   4.196   5.544   9.016
 8537WAT     H225854   4.196   5.473   9.163
 8538WAT      O25855   1.621   7.121   6.383
 8538WAT     H125856   1.591   7.190   6.318
 8538WAT     H225857   1.715   7.093   6.361
 8539WAT      O25858   5.230   0.894   6.499
 8539WAT     H125859   5.314   0.948   6.508
 8539WAT     H225860   5.239   0.831   6.422
 8540WAT      O25861   7.497   7.170   2.070
 8540WAT     H125862   7.520   7.075   2.089
 8540WAT     H225863   7.423   7.174   2.002
 8541WAT      O25864   1.131   4.666   4.052
 8541WAT     H125865   1.224   4.631   4.067
 8541WAT     H225866   1.075   4.596   4.009
 8542WAT      O25867   6.810   0.732   1.308
 8542WAT     H125868   6.889   0.722   1.249
 8542WAT     H225869   6.732   0.683   1.269
 8543WAT      O25870   9.483   2.721   6.547
 8543WAT     H125871   9.498   2.820   6.547
 8543WAT     H225872   9.571   2.675   6.532
 8544WAT      O25873   1.147   8.415   9.108
 8544WAT     H125874   1.066   8.392   9.055
 8544WAT     H225875   1.167   8.341   9.171
 8545WAT      O25876   5.251   9.125   7.460
 8545WAT     H125877   5.284   9.218   7.481
 8545WAT     H225878   5.230   9.078   7.545
 8546WAT      O25879   9.779   6.067   3.310
 8546WAT     H125880   9.788   6.162   3.339
 8546WAT     H225881   9.865   6.019   3.325
 8547WAT      O25882   4.921   4.717   5.672
 8547WAT     H125883   4.826   4.694   5.691
 8547WAT     H225884   4.981   4.665   5.733
 8548WAT      O25885   4.442   9.572   2.383
 8548WAT     H125886   4.468   9.629   2.462
 8548WAT     H225887   4.343   9.569   2.375
 8549WAT      O25888   4.205   7.342   6.883
 8549WAT     H125889   4.279   7.289   6.842
 8549WAT     H225890   4.118   7.314   6.842
 8550WAT      O25891   6.129   4.933   3.301
 8550WAT     H125892   6.214   4.965   3.259
 8550WAT     H225893   6.052   4.975   3.253
 8551WAT      O25894   1.154   3.939   5.412
 8551WAT     H125895   1.180   3.969   5.504
 8551WAT     H225896   1.121   3.844   5.416
 8552WAT      O25897   6.813   4.189   0.049
 8552WAT     H125898   6.721   4.167   0.019
 8552WAT     H225899   6.825   4.288   0.050
 8553WAT      O25900   8.589   3.771   6.858
 8553WAT     H125901   8.552   3.779   6.951
 8553WAT     H225902   8.575   3.678   6.824
 8554WAT      O25903   0.245   6.938   5.187
 8554WAT     H125904   0.307   7.017   5.190
 8554WAT     H225905   0.256   6.885   5.271
 8555WAT      O25906   4.584   9.740   3.160
 8555WAT     H125907   4.506   9.692   3.200
 8555WAT     H225908   4.663   9.680   3.160
 8556WAT      O25909   9.603   1.900   7.666
 8556WAT     H125910   9.647   1.978   7.710
 8556WAT     H225911   9.565   1.928   7.578
 8557WAT      O25912   3.923   0.126   0.797
 8557WAT     H125913   3.842   0.067   0.793
 8557WAT     H225914   3.912   0.192   0.871
 8558WAT      O25915   6.284   0.636   9.533
 8558WAT     H125916   6.347   0.615   9.459
 8558WAT     H225917   6.298   0.730   9.563
 8559WAT      O25918   9.369   7.045   2.176
 8559WAT     H125919   9.352   7.118   2.242
 8559WAT     H225920   9.444   7.072   2.115
 8560WAT      O25921   7.526   5.435   1.010
 8560WAT     H125922   7.542   5.343   1.047
 8560WAT     H225923   7.606   5.464   0.958
 8561WAT      O25924   6.824   2.662   8.215
 8561WAT     H125925   6.767   2.701   8.287
 8561WAT     H225926   6.821   2.721   8.134
 8562WAT      O25927   6.664   1.760   5.774
 8562WAT     H125928   6.602   1.723   5.705
 8562WAT     H225929   6.617   1.764   5.862
 8563WAT      O25930   0.638   0.788   8.330
 8563WAT     H125931   0.681   0.800   8.240
 8563WAT     H225932   0.584   0.704   8.329
 8564WAT      O25933   8.027   2.927   9.447
 8564WAT     H125934   7.998   2.831   9.447
 8564WAT     H225935   8.127   2.931   9.444
 8565WAT      O25936   0.283   3.464   2.972
 8565WAT     H125937   0.316   3.380   2.930
 8565WAT     H225938   0.257   3.529   2.900
 8566WAT      O25939   3.425   8.859   0.164
 8566WAT     H125940   3.509   8.804   0.160
 8566WAT     H225941   3.436   8.930   0.234
 8567WAT      O25942   3.386   4.252   8.723
 8567WAT     H125943   3.337   4.339   8.713
 8567WAT     H225944   3.387   4.205   8.635
 8568WAT      O25945   6.711   0.738   2.949
 8568WAT     H125946   6.704   0.786   2.862
 8568WAT     H225947   6.751   0.799   3.018
 8569WAT      O25948   0.983   8.536   7.989
 8569WAT     H125949   1.028   8.557   7.903
 8569WAT     H225950   1.052   8.514   8.058
 8570WAT      O25951   0.106   4.429   7.702
 8570WAT     H125952   0.054   4.475   7.630
 8570WAT     H225953   0.193   4.477   7.716
 8571WAT      O25954   2.338   1.892   8.205
 8571WAT     H125955   2.255   1.928   8.247
 8571WAT     H225956   2.355   1.800   8.240
 8572WAT      O25957   3.603   9.202   3.194
 8572WAT     H125958   3.648   9.134   3.253
 8572WAT     H225959   3.547   9.263   3.250
 8573WAT      O25960   6.682   5.924   2.637
 8573WAT     H125961   6.594   5.971   2.648
 8573WAT     H225962   6.666   5.831   2.604
 8574WAT      O25963   0.293   4.080   6.447
 8574WAT     H125964   0.266   3.985   6.461
 8574WAT     H225965   0.213   4.139   6.461
 8575WAT      O25966   9.231   0.661   2.505
 8575WAT     H125967   9.194   0.747   2.541
 8575WAT     H225968   9.158   0.593   2.501
 8576WAT      O25969   3.536   3.910   8.350
 8576WAT     H125970   3.477   3.910   8.430
 8576WAT     H225971   3.549   4.004   8.318
 8577WAT      O25972   3.815   3.499   1.458
 8577WAT     H125973   3.810   3.404   1.490
 8577WAT     H225974   3.875   3.503   1.378
 8578WAT      O25975   4.660   4.135   8.133
 8578WAT     H125976   4.588   4.130   8.063
 8578WAT     H225977   4.652   4.221   8.182
 8579WAT      O25978   8.910   7.825   2.944
 8579WAT     H125979   8.861   7.851   3.028
 8579WAT     H225980   8.983   7.890   2.927
 8580WAT      O25981   4.667   5.693   5.350
 8580WAT     H125982   4.729   5.767   5.373
 8580WAT     H225983   4.685   5.662   5.257
 8581WAT      O25984   3.479   1.110   2.231
 8581WAT     H125985   3.578   1.102   2.244
 8581WAT     H225986   3.454   1.080   2.139
 8582WAT      O25987   7.465   1.686   6.531
 8582WAT     H125988   7.532   1.743   6.483
 8582WAT     H225989   7.469   1.593   6.495
 8583WAT      O25990   3.628   6.669   4.346
 8583WAT     H125991   3.605   6.764   4.363
 8583WAT     H225992   3.721   6.650   4.379
 8584WAT      O25993   6.618   7.075   3.604
 8584WAT     H125994   6.704   7.037   3.639
 8584WAT     H225995   6.616   7.174   3.620
 8585WAT      O25996   8.508   5.294   5.096
 8585WAT     H125997   8.447   5.335   5.028
 8585WAT     H225998   8.456   5.229   5.151
 8586WAT      O25999   6.543   6.425   0.143
 8586WAT     H126000   6.561   6.499   0.078
 8586WAT     H226001   6.516   6.463   0.231
 8587WAT      O26002   3.703   6.032   5.108
 8587WAT     H126003   3.730   5.937   5.123
 8587WAT     H226004   3.770   6.093   5.150
 8588WAT      O26005   7.211   0.788   2.962
 8588WAT     H126006   7.122   0.788   2.916
 8588WAT     H226007   7.226   0.700   3.007
 8589WAT      O26008   1.679   2.050   2.721
 8589WAT     H126009   1.732   2.095   2.650
 8589WAT     H226010   1.721   2.068   2.810
 8590WAT      O26011   0.678   9.494   6.470
 8590WAT     H126012   0.726   9.580   6.452
 8590WAT     H226013   0.734   9.418   6.436
 8591WAT      O26014   5.605   0.801   8.544
 8591WAT     H126015   5.611   0.791   8.445
 8591WAT     H226016   5.538   0.871   8.566
 8592WAT      O26017   7.621   0.408   2.578
 8592WAT     H126018   7.572   0.495   2.574
 8592WAT     H226019   7.560   0.337   2.613
 8593WAT      O26020   0.257   1.021   6.573
 8593WAT     H126021   0.330   0.992   6.635
 8593WAT     H226022   0.254   1.120   6.569
 8594WAT      O26023   1.439   2.142   6.320
 8594WAT     H126024   1.402   2.232   6.347
 8594WAT     H226025   1.491   2.152   6.235
 8595WAT      O26026   2.962   5.351   1.050
 8595WAT     H126027   2.963   5.323   0.954
 8595WAT     H226028   3.031   5.301   1.101
 8596WAT      O26029   2.613   5.570   3.781
 8596WAT     H126030   2.566   5.649   3.742
 8596WAT     H226031   2.702   5.558   3.736
 8597WAT      O26032   5.184   9.148   6.282
 8597WAT     H126033   5.219   9.058   6.257
 8597WAT     H226034   5.256   9.200   6.329
 8598WAT      O26035   8.144   0.570   3.259
 8598WAT     H126036   8.169   0.666   3.272
 8598WAT     H226037   8.047   0.565   3.232
 8599WAT      O26038   6.944   8.259   5.100
 8599WAT     H126039   6.977   8.263   5.006
 8599WAT     H226040   6.852   8.297   5.104
 8600WAT      O26041   9.535   8.431   6.748
 8600WAT     H126042   9.598   8.367   6.791
 8600WAT     H226043   9.586   8.506   6.706
 8601WAT      O26044   5.201   9.761   2.414
 8601WAT     H126045   5.248   9.846   2.389
 8601WAT     H226046   5.213   9.693   2.342
 8602WAT      O26047   2.638   4.066   2.583
 8602WAT     H126048   2.683   3.994   2.636
 8602WAT     H226049   2.601   4.135   2.645
 8603WAT      O26050   1.450   7.758   3.482
 8603WAT     H126051   1.428   7.678   3.426
 8603WAT     H226052   1.445   7.841   3.427
 8604WAT      O26053   9.772   2.344   2.334
 8604WAT     H126054   9.821   2.388   2.410
 8604WAT     H226055   9.749   2.250   2.360
 8605WAT      O26056   9.295   5.051   9.825
 8605WAT     H126057   9.297   5.141   9.870
 8605WAT     H226058   9.256   5.061   9.733
 8606WAT      O26059   5.968   7.565   9.617
 8606WAT     H126060   5.944   7.615   9.700
 8606WAT     H226061   6.062   7.533   9.623
 8607WAT      O26062   7.920   1.260   4.932
 8607WAT     H126063   8.018   1.261   4.912
 8607WAT     H226064   7.868   1.277   4.849
 8608WAT      O26065   8.902   5.100   6.937
 8608WAT     H126066   8.944   5.072   7.024
 8608WAT     H226067   8.957   5.064   6.861
 8609WAT      O26068   9.757   4.688   0.289
 8609WAT     H126069   9.811   4.712   0.208
 8609WAT     H226070   9.666   4.730   0.281
 8610WAT      O26071   3.071   2.515   3.313
 8610WAT     H126072   3.022   2.510   3.400
 8610WAT     H226073   3.077   2.423   3.273
 8611WAT      O26074   9.661   0.615   3.631
 8611WAT     H126075   9.638   0.707   3.599
 8611WAT     H226076   9.694   0.619   3.725
 8612WAT      O26077   1.189   0.198   5.859
 8612WAT     H126078   1.166   0.236   5.770
 8612WAT     H226079   1.252   0.261   5.907
 8613WAT      O26080   0.903   9.052   8.414
 8613WAT     H126081   0.829   8.997   8.376
 8613WAT     H226082   0.876   9.086   8.505
 8614WAT      O26083   7.353   5.887   2.699
 8614WAT     H126084   7.344   5.805   2.756
 8614WAT     H226085   7.281   5.887   2.630
 8615WAT      O26086   0.692   4.671   6.469
 8615WAT     H126087   0.646   4.732   6.404
 8615WAT     H226088   0.740   4.599   6.418
 8616WAT      O26089   1.079   7.599   9.027
 8616WAT     H126090   1.138   7.590   8.946
 8616WAT     H226091   1.038   7.510   9.047
 8617WAT      O26092   4.169   1.921   3.580
 8617WAT     H126093   4.208   1.905   3.671
 8617WAT     H226094   4.192   2.013   3.551
 8618WAT      O26095   0.392   1.639   6.188
 8618WAT     H126096   0.336   1.558   6.168
 8618WAT     H226097   0.478   1.632   6.138
 8619WAT      O26098   2.833   7.493   7.188
 8619WAT     H126099   2.852   7.569   7.251
 8619WAT     H226100   2.817   7.529   7.096
 8620WAT      O26101   5.843   3.367   4.641
 8620WAT     H126102   5.921   3.419   4.607
 8620WAT     H226103   5.861   3.337   4.735
 8621WAT      O26104   9.380   2.714   0.195
 8621WAT     H126105   9.330   2.643   0.145
 8621WAT     H226106   9.319   2.760   0.259
 8622WAT      O26107   0.725   4.905   3.962
 8622WAT     H126108   0.673   4.985   3.993
 8622WAT     H226109   0.820   4.931   3.948
 8623WAT      O26110   7.976   7.347   3.412
 8623WAT     H126111   7.945   7.256   3.382
 8623WAT     H226112   8.070   7.362   3.381
 8624WAT      O26113   7.772   8.698   3.474
 8624WAT     H126114   7.702   8.726   3.539
 8624WAT     H226115   7.833   8.632   3.517
 8625WAT      O26116   7.806   4.635   8.427
 8625WAT     H126117   7.780   4.682   8.512
 8625WAT     H226118   7.795   4.698   8.350
 8626WAT      O26119   6.821   5.901   8.767
 8626WAT     H126120   6.918   5.880   8.755
 8626WAT     H226121   6.792   5.965   8.695
 8627WAT      O26122   3.903   8.001   0.837
 8627WAT     H126123   3.939   7.953   0.917
 8627WAT     H226124   3.929   7.952   0.754
 8628WAT      O26125   2.218   0.122   2.406
 8628WAT     H126126   2.164   0.056   2.458
 8628WAT     H226127   2.174   0.212   2.410
 8629WAT      O26128   1.278   4.637   8.242
 8629WAT     H126129   1.294   4.702   8.316
 8629WAT     H226130   1.188   4.653   8.201
 8630WAT      O26131   9.309   7.187   9.478
 8630WAT     H126132   9.332   7.236   9.562
 8630WAT     H226133   9.298   7.090   9.497
 8631WAT      O26134   0.790   6.663   4.158
 8631WAT     H126135   0.808   6.571   4.191
 8631WAT     H226136   0.868   6.695   4.103
 8632WAT      O26137   2.625   2.206   5.637
 8632WAT     H126138   2.597   2.299   5.614
 8632WAT     H226139   2.657   2.203   5.731
 8633WAT      O26140   2.136   9.817   4.255
 8633WAT     H126141   2.068   9.820   4.328
 8633WAT     H226142   2.224   9.784   4.292
 8634WAT      O26143   8.848   4.000   5.423
 8634WAT     H126144   8.868   4.027   5.517
 8634WAT     H226145   8.897   3.915   5.402
 8635WAT      O26146   0.437   4.482   5.688
 8635WAT     H126147   0.421   4.385   5.668
 8635WAT     H226148   0.350   4.527   5.707
 8636WAT      O26149   9.854   5.657   6.176
 8636WAT     H126150   9.907   5.739   6.154
 8636WAT     H226151   9.791   5.637   6.101
 8637WAT      O26152   4.119   6.788   7.377
 8637WAT     H126153   4.110   6.715   7.446
 8637WAT     H226154   4.080   6.873   7.414
 8638WAT      O26155   1.768   5.328   5.984
 8638WAT     H126156   1.807   5.282   6.064
 8638WAT     H226157   1.769   5.266   5.906
 8639WAT      O26158   9.345   6.582   0.254
 8639WAT     H126159   9.390   6.494   0.265
 8639WAT     H226160   9.246   6.571   0.264
 8640WAT      O26161   6.889   2.874   5.386
 8640WAT     H126162   6.832   2.890   5.305
 8640WAT     H226163   6.839   2.814   5.450
 8641WAT      O26164   3.168   2.564   7.900
 8641WAT     H126165   3.139   2.598   7.811
 8641WAT     H226166   3.264   2.586   7.915
 8642WAT      O26167   4.445   1.993   2.967
 8642WAT     H126168   4.356   1.975   2.925
 8642WAT     H226169   4.432   2.026   3.061
 8643WAT      O26170   7.329   9.440   2.646
 8643WAT     H126171   7.410   9.384   2.662
 8643WAT     H226172   7.247   9.382   2.644
 8644WAT      O26173   8.644   9.380   7.563
 8644WAT     H126174   8.621   9.476   7.545
 8644WAT     H226175   8.649   9.364   7.661
 8645WAT      O26176   4.866   3.919   7.222
 8645WAT     H126177   4.814   3.969   7.291
 8645WAT     H226178   4.852   3.963   7.133
 8646WAT      O26179   4.994   0.358   6.065
 8646WAT     H126180   4.958   0.385   5.976
 8646WAT     H226181   4.985   0.259   6.076
 8647WAT      O26182   1.111   3.480   8.013
 8647WAT     H126183   1.179   3.532   7.962
 8647WAT     H226184   1.020   3.506   7.983
 8648WAT      O26185   9.078   6.289   2.388
 8648WAT     H126186   9.164   6.238   2.391
 8648WAT     H226187   9.005   6.228   2.358
 8649WAT      O26188   0.676   6.064   5.488
 8649WAT     H126189   0.641   6.148   5.530
 8649WAT     H226190   0.776   6.064   5.492
 8650WAT      O26191   0.069   8.243   0.879
 8650WAT     H126192   0.121   8.323   0.910
 8650WAT     H226193  -0.010   8.230   0.939
 8651WAT      O26194   7.090   4.127   0.113
 8651WAT     H126195   7.100   4.226   0.122
 8651WAT     H226196   6.999   4.105   0.079
 8652WAT      O26197   0.599   7.157   9.726
 8652WAT     H126198   0.600   7.221   9.804
 8652WAT     H226199   0.595   7.209   9.641
 8653WAT      O26200   3.427   4.309   1.446
 8653WAT     H126201   3.495   4.242   1.473
 8653WAT     H226202   3.422   4.382   1.515
 8654WAT      O26203   9.865   3.657   6.405
 8654WAT     H126204   9.923   3.594   6.456
 8654WAT     H226205   9.897   3.662   6.310
 8655WAT      O26206   7.454   3.444   0.049
 8655WAT     H126207   7.436   3.459   0.146
 8655WAT     H226208   7.399   3.507  -0.006
 8656WAT      O26209   5.812   1.885   1.524
 8656WAT     H126210   5.795   1.881   1.623
 8656WAT     H226211   5.886   1.949   1.506
 8657WAT      O26212   2.562   9.766   4.740
 8657WAT     H126213   2.536   9.682   4.788
 8657WAT     H226214   2.615   9.743   4.659
 8658WAT      O26215   5.584   8.631   1.018
 8658WAT     H126216   5.578   8.544   1.066
 8658WAT     H226217   5.650   8.624   0.944
 8659WAT      O26218   6.752   4.950   7.899
 8659WAT     H126219   6.726   4.861   7.937
 8659WAT     H226220   6.777   5.012   7.972
 8660WAT      O26221   7.213   8.929   7.385
 8660WAT     H126222   7.218   8.865   7.308
 8660WAT     H226223   7.269   9.009   7.365
 8661WAT      O26224   1.882   3.766   6.263
 8661WAT     H126225   1.815   3.840   6.268
 8661WAT     H226226   1.961   3.795   6.208
 8662WAT      O26227   2.193   2.362   2.496
 8662WAT     H126228   2.161   2.270   2.518
 8662WAT     H226229   2.173   2.383   2.400
 8663WAT      O26230   2.010   7.109   3.476
 8663WAT     H126231   1.938   7.040   3.485
 8663WAT     H226232   1.969   7.198   3.459
 8664WAT      O26233   0.817   3.013   9.253
 8664WAT     H126234   0.905   3.043   9.216
 8664WAT     H226235   0.786   2.933   9.202
 8665WAT      O26236   2.626   7.250   9.188
 8665WAT     H126237   2.617   7.155   9.218
 8665WAT     H226238   2.693   7.256   9.114
 8666WAT      O26239   2.034   4.610   7.165
 8666WAT     H126240   1.999   4.699   7.196
 8666WAT     H226241   2.084   4.567   7.240
 8667WAT      O26242   9.657   3.755   9.413
 8667WAT     H126243   9.700   3.804   9.337
 8667WAT     H226244   9.620   3.821   9.479
 8668WAT      O26245   4.385   3.702   6.681
 8668WAT     H126246   4.306   3.698   6.621
 8668WAT     H226247   4.354   3.714   6.776
 8669WAT      O26248   3.538   7.291   9.662
 8669WAT     H126249   3.485   7.371   9.691
 8669WAT     H226250   3.498   7.208   9.700
 8670WAT      O26251   1.194   8.710   2.090
 8670WAT     H126252   1.273   8.767   2.068
 8670WAT     H226253   1.177   8.712   2.188
 8671WAT      O26254   0.103   4.009   5.026
 8671WAT     H126255   0.121   3.918   5.064
 8671WAT     H226256   0.185   4.066   5.038
 8672WAT      O26257   3.408   3.788   6.239
 8672WAT     H126258   3.355   3.709   6.269
 8672WAT     H226259   3.370   3.823   6.153
 8673WAT      O26260   5.825   6.266   3.769
 8673WAT     H126261   5.778   6.291   3.854
 8673WAT     H226262   5.905   6.326   3.758
 8674WAT      O26263   2.841   1.579   6.948
 8674WAT     H126264   2.756   1.557   6.994
 8674WAT     H226265   2.839   1.674   6.916
 8675WAT      O26266   5.077   2.576   0.024
 8675WAT     H126267   5.061   2.672   0.046
 8675WAT     H226268   5.027   2.553  -0.060
 8676WAT      O26269   0.903   5.853   4.281
 8676WAT     H126270   0.843   5.895   4.349
 8676WAT     H226271   0.886   5.755   4.277
 8677WAT      O26272   0.283   3.185   7.882
 8677WAT     H126273   0.236   3.202   7.968
 8677WAT     H226274   0.283   3.268   7.827
 8678WAT      O26275   9.608   1.893   9.496
 8678WAT     H126276   9.533   1.946   9.455
 8678WAT     H226277   9.628   1.929   9.587
 8679WAT      O26278   2.223   5.292   8.608
 8679WAT     H126279   2.165   5.322   8.532
 8679WAT     H226280   2.175   5.309   8.694
 8680WAT      O26281   0.405   4.777   7.369
 8680WAT     H126282   0.312   4.809   7.354
 8680WAT     H226283   0.406   4.677   7.372
 8681WAT      O26284   7.527   2.507   6.450
 8681WAT     H126285   7.454   2.498   6.381
 8681WAT     H226286   7.602   2.446   6.426
 8682WAT      O26287   6.573   3.428   3.748
 8682WAT     H126288   6.595   3.433   3.650
 8682WAT     H226289   6.493   3.369   3.761
 8683WAT      O26290   8.219   5.861   6.267
 8683WAT     H126291   8.248   5.901   6.180
 8683WAT     H226292   8.287   5.882   6.337
 8684WAT      O26293   2.973   2.434   7.405
 8684WAT     H126294   2.933   2.349   7.438
 8684WAT     H226295   3.073   2.427   7.406
 8685WAT      O26296   8.945   5.194   8.549
 8685WAT     H126297   9.000   5.230   8.473
 8685WAT     H226298   8.932   5.096   8.536
 8686WAT      O26299   4.307   5.178   0.680
 8686WAT     H126300   4.374   5.104   0.683
 8686WAT     H226301   4.341   5.257   0.732
 8687WAT      O26302   2.990   4.537   5.591
 8687WAT     H126303   3.067   4.475   5.608
 8687WAT     H226304   2.981   4.553   5.493
 8688WAT      O26305   8.391   5.940   6.452
 8688WAT     H126306   8.486   5.946   6.484
 8688WAT     H226307   8.353   6.033   6.446
 8689WAT      O26308   1.333   2.851   4.156
 8689WAT     H126309   1.314   2.753   4.158
 8689WAT     H226310   1.314   2.891   4.245
 8690WAT      O26311   4.940   5.744   4.434
 8690WAT     H126312   5.014   5.695   4.388
 8690WAT     H226313   4.863   5.754   4.371
 8691WAT      O26314   6.803   5.318   3.705
 8691WAT     H126315   6.856   5.381   3.648
 8691WAT     H226316   6.776   5.365   3.789
 8692WAT      O26317   6.862   7.653   6.115
 8692WAT     H126318   6.944   7.709   6.108
 8692WAT     H226319   6.782   7.706   6.085
 8693WAT      O26320   6.996   6.247   2.499
 8693WAT     H126321   7.004   6.337   2.543
 8693WAT     H226322   6.910   6.242   2.449
 8694WAT      O26323   9.740   8.621   0.669
 8694WAT     H126324   9.742   8.620   0.569
 8694WAT     H226325   9.741   8.715   0.701
 8695WAT      O26326   9.358   9.017   9.024
 8695WAT     H126327   9.260   9.036   9.013
 8695WAT     H226328   9.379   8.928   8.983
 8696WAT      O26329   5.019   0.678   3.391
 8696WAT     H126330   5.074   0.746   3.343
 8696WAT     H226331   4.923   0.689   3.365
 8697WAT      O26332   6.550   5.366   1.535
 8697WAT     H126333   6.598   5.281   1.556
 8697WAT     H226334   6.577   5.437   1.600
 8698WAT      O26335   0.911   0.212   9.710
 8698WAT     H126336   0.915   0.115   9.685
 8698WAT     H226337   0.990   0.234   9.768
 8699WAT      O26338   5.595   8.365   3.720
 8699WAT     H126339   5.642   8.430   3.659
 8699WAT     H226340   5.497   8.385   3.720
 8700WAT      O26341   4.843   1.021   2.857
 8700WAT     H126342   4.883   1.064   2.776
 8700WAT     H226343   4.906   1.030   2.934
 8701WAT      O26344   0.713   6.060   3.464
 8701WAT     H126345   0.783   5.989   3.451
 8701WAT     H226346   0.685   6.096   3.375
 8702WAT      O26347   4.989   1.657   0.462
 8702WAT     H126348   5.079   1.696   0.444
 8702WAT     H226349   4.931   1.665   0.381
 8703WAT      O26350   5.867   3.616   4.292
 8703WAT     H126351   5.901   3.622   4.386
 8703WAT     H226352   5.844   3.707   4.259
 8704WAT      O26353   0.543   7.709   1.864
 8704WAT     H126354   0.606   7.671   1.796
 8704WAT     H226355   0.593   7.770   1.926
 8705WAT      O26356   0.157   9.242   0.270
 8705WAT     H126357   0.063   9.269   0.246
 8705WAT     H226358   0.173   9.148   0.240
 8706WAT      O26359   0.095   0.618   6.432
 8706WAT     H126360   0.100   0.689   6.362
 8706WAT     H226361   0.090   0.528   6.387
 8707WAT      O26362   9.000   9.558   5.696
 8707WAT     H126363   9.073   9.499   5.661
 8707WAT     H226364   9.028   9.654   5.688
 8708WAT      O26365   9.580   9.613   1.167
 8708WAT     H126366   9.541   9.701   1.140
 8708WAT     H226367   9.540   9.583   1.253
 8709WAT      O26368   2.933   9.479   8.838
 8709WAT     H126369   2.869   9.549   8.869
 8709WAT     H226370   3.003   9.464   8.908
 8710WAT      O26371   6.041   4.063   2.781
 8710WAT     H126372   5.965   4.127   2.790
 8710WAT     H226373   6.126   4.108   2.807
 8711WAT      O26374   0.329   3.578   8.923
 8711WAT     H126375   0.353   3.666   8.882
 8711WAT     H226376   0.365   3.574   9.016
 8712WAT      O26377   3.656   4.121   4.177
 8712WAT     H126378   3.570   4.124   4.228
 8712WAT     H226379   3.733   4.127   4.240
 8713WAT      O26380   8.538   6.948   1.901
 8713WAT     H126381   8.609   6.887   1.866
 8713WAT     H226382   8.490   6.992   1.825
 8714WAT      O26383   5.603   2.459   1.991
 8714WAT     H126384   5.661   2.393   2.038
 8714WAT     H226385   5.513   2.419   1.975
 8715WAT      O26386   4.730   0.581   2.330
 8715WAT     H126387   4.640   0.550   2.299
 8715WAT     H226388   4.767   0.647   2.265
 8716WAT      O26389   8.512   4.831   1.879
 8716WAT     H126390   8.568   4.880   1.812
 8716WAT     H226391   8.421   4.814   1.840
 8717WAT      O26392   7.848   0.616   7.898
 8717WAT     H126393   7.804   0.532   7.866
 8717WAT     H226394   7.875   0.671   7.820
 8718WAT      O26395   7.002   8.039   1.675
 8718WAT     H126396   7.027   8.091   1.593
 8718WAT     H226397   6.943   8.095   1.733
 8719WAT      O26398   3.783   8.712   2.293
 8719WAT     H126399   3.765   8.702   2.195
 8719WAT     H226400   3.880   8.730   2.307
 8720WAT      O26401   4.334   7.494   5.783
 8720WAT     H126402   4.341   7.535   5.692
 8720WAT     H226403   4.275   7.414   5.779
 8721WAT      O26404   8.394   3.229   5.472
 8721WAT     H126405   8.375   3.135   5.502
 8721WAT     H226406   8.389   3.233   5.372
 8722WAT      O26407   5.642   7.283   0.979
 8722WAT     H126408   5.729   7.325   0.956
 8722WAT     H226409   5.568   7.349   0.965
 8723WAT      O26410   2.046   3.809   0.936
 8723WAT     H126411   2.102   3.883   0.974
 8723WAT     H226412   1.972   3.787   1.000
 8724WAT      O26413   0.260   2.289   2.880
 8724WAT     H126414   0.328   2.330   2.818
 8724WAT     H226415   0.306   2.229   2.945
 8725WAT      O26416   6.439   6.696   8.403
 8725WAT     H126417   6.393   6.784   8.417
 8725WAT     H226418   6.413   6.633   8.476
 8726WAT      O26419   8.348   0.740   4.056
 8726WAT     H126420   8.371   0.747   3.959
 8726WAT     H226421   8.345   0.644   4.083
 8727WAT      O26422   1.317   7.294   5.225
 8727WAT     H126423   1.335   7.286   5.323
 8727WAT     H226424   1.394   7.340   5.180
 8728WAT      O26425   5.480   0.742   0.478
 8728WAT     H126426   5.504   0.794   0.560
 8728WAT     H226427   5.381   0.728   0.476
 8729WAT      O26428   1.534   1.642   7.879
 8729WAT     H126429   1.495   1.553   7.900
 8729WAT     H226430   1.495   1.676   7.793
 8730WAT      O26431   5.935   8.105   4.607
 8730WAT     H126432   5.986   8.144   4.684
 8730WAT     H226433   5.965   8.011   4.591
 8731WAT      O26434   2.848   9.545   6.679
 8731WAT     H126435   2.898   9.629   6.698
 8731WAT     H226436   2.883   9.471   6.736
 8732WAT      O26437   8.541   8.225   7.605
 8732WAT     H126438   8.502   8.161   7.671
 8732WAT     H226439   8.610   8.179   7.550
 8733WAT      O26440   7.175   6.839   2.111
 8733WAT     H126441   7.192   6.806   2.018
 8733WAT     H226442   7.126   6.926   2.106
 8734WAT      O26443   9.054   6.732   8.057
 8734WAT     H126444   9.069   6.816   8.108
 8734WAT     H226445   8.980   6.746   7.991
 8735WAT      O26446   1.518   0.380   8.487
 8735WAT     H126447   1.459   0.328   8.425
 8735WAT     H226448   1.491   0.360   8.582
 8736WAT      O26449   2.765   7.212   4.867
 8736WAT     H126450   2.797   7.302   4.898
 8736WAT     H226451   2.728   7.221   4.775
 8737WAT      O26452   3.526   1.057   8.823
 8737WAT     H126453   3.487   1.147   8.845
 8737WAT     H226454   3.463   0.985   8.851
 8738WAT      O26455   8.739   9.599   2.753
 8738WAT     H126456   8.708   9.515   2.708
 8738WAT     H226457   8.699   9.678   2.708
 8739WAT      O26458   3.532   8.175   9.637
 8739WAT     H126459   3.552   8.173   9.735
 8739WAT     H226460   3.608   8.135   9.587
 8740WAT      O26461   1.480   3.088   8.570
 8740WAT     H126462   1.483   2.989   8.555
 8740WAT     H226463   1.392   3.124   8.536
 8741WAT      O26464   2.637   6.890   3.885
 8741WAT     H126465   2.590   6.965   3.932
 8741WAT     H226466   2.695   6.841   3.950
 8742WAT      O26467   1.268   5.665   1.167
 8742WAT     H126468   1.309   5.574   1.166
 8742WAT     H226469   1.206   5.674   1.090
 8743WAT      O26470   0.163   2.906   7.519
 8743WAT     H126471   0.092   2.946   7.462
 8743WAT     H226472   0.213   2.837   7.466
 8744WAT      O26473   6.181   2.189   3.703
 8744WAT     H126474   6.118   2.250   3.751
 8744WAT     H226475   6.129   2.124   3.648
 8745WAT      O26476   0.095   0.255   4.776
 8745WAT     H126477   0.119   0.340   4.822
 8745WAT     H226478  -0.003   0.255   4.755
 8746WAT      O26479   8.892   6.358   1.376
 8746WAT     H126480   8.987   6.328   1.365
 8746WAT     H226481   8.831   6.280   1.361
 8747WAT      O26482   1.938   6.146   8.076
 8747WAT     H126483   1.887   6.068   8.041
 8747WAT     H226484   1.875   6.208   8.123
 8748WAT      O26485   5.300   1.589   3.194
 8748WAT     H126486   5.333   1.577   3.101
 8748WAT     H226487   5.292   1.686   3.215
 8749WAT      O26488   0.377   3.942   5.108
 8749WAT     H126489   0.360   3.881   5.185
 8749WAT     H226490   0.429   4.021   5.139
 8750WAT      O26491   2.277   0.809   6.586
 8750WAT     H126492   2.185   0.794   6.550
 8750WAT     H226493   2.344   0.793   6.513
 8751WAT      O26494   1.909   7.627   9.231
 8751WAT     H126495   1.818   7.651   9.265
 8751WAT     H226496   1.942   7.546   9.280
 8752WAT      O26497   5.729   9.106   5.195
 8752WAT     H126498   5.650   9.046   5.199
 8752WAT     H226499   5.707   9.194   5.237
 8753WAT      O26500   5.561   5.308   4.337
 8753WAT     H126501   5.636   5.256   4.378
 8753WAT     H226502   5.525   5.259   4.258
 8754WAT      O26503   7.301   0.274   2.965
 8754WAT     H126504   7.388   0.245   2.924
 8754WAT     H226505   7.305   0.371   2.986
 8755WAT      O26506   0.249   3.509   1.621
 8755WAT     H126507   0.268   3.605   1.601
 8755WAT     H226508   0.306   3.451   1.562
 8756WAT      O26509   9.600   0.658   0.739
 8756WAT     H126510   9.648   0.699   0.816
 8756WAT     H226511   9.590   0.559   0.754
 8757WAT      O26512   2.442   1.450   1.941
 8757WAT     H126513   2.344   1.461   1.958
 8757WAT     H226514   2.492   1.462   2.027
 8758WAT      O26515   8.108   3.346   4.939
 8758WAT     H126516   8.035   3.280   4.924
 8758WAT     H226517   8.069   3.435   4.961
 8759WAT      O26518   4.284   1.911   3.826
 8759WAT     H126519   4.361   1.855   3.856
 8759WAT     H226520   4.287   1.999   3.874
 8760WAT      O26521   8.085   4.166   3.200
 8760WAT     H126522   8.184   4.178   3.189
 8760WAT     H226523   8.050   4.109   3.126
 8761WAT      O26524   5.301   4.048   2.810
 8761WAT     H126525   5.364   3.974   2.834
 8761WAT     H226526   5.247   4.022   2.730
 8762WAT      O26527   4.957   1.369   7.522
 8762WAT     H126528   5.020   1.446   7.515
 8762WAT     H226529   4.871   1.400   7.564
 8763WAT      O26530   9.167   2.198   9.295
 8763WAT     H126531   9.190   2.189   9.392
 8763WAT     H226532   9.244   2.239   9.246
 8764WAT      O26533   2.945   3.344   7.000
 8764WAT     H126534   2.951   3.389   6.911
 8764WAT     H226535   2.904   3.254   6.989
 8765WAT      O26536   0.058   2.374   9.280
 8765WAT     H126537   0.077   2.287   9.325
 8765WAT     H226538   0.072   2.365   9.181
 8766WAT      O26539   0.465   5.981   8.446
 8766WAT     H126540   0.405   5.918   8.397
 8766WAT     H226541   0.415   6.022   8.522
 8767WAT      O26542   8.888   5.391   2.556
 8767WAT     H126543   8.946   5.343   2.489
 8767WAT     H226544   8.894   5.345   2.644
 8768WAT      O26545   4.897   8.987   3.764
 8768WAT     H126546   4.801   8.997   3.793
 8768WAT     H226547   4.904   8.913   3.697
 8769WAT      O26548   7.484   4.282   3.680
 8769WAT     H126549   7.513   4.190   3.707
 8769WAT     H226550   7.559   4.347   3.695
 8770WAT      O26551   4.206   4.090   9.075
 8770WAT     H126552   4.198   4.170   9.015
 8770WAT     H226553   4.255   4.017   9.026
 8771WAT      O26554   7.124   2.059   0.353
 8771WAT     H126555   7.103   1.974   0.402
 8771WAT     H226556   7.223   2.069   0.344
 8772WAT      O26557   8.536   5.943   5.967
 8772WAT     H126558   8.519   5.956   5.869
 8772WAT     H226559   8.548   5.846   5.987
 8773WAT      O26560   5.065   4.707   4.710
 8773WAT     H126561   5.103   4.640   4.647
 8773WAT     H226562   4.967   4.716   4.694
 8774WAT      O26563   2.655   1.629   4.220
 8774WAT     H126564   2.716   1.639   4.142
 8774WAT     H226565   2.685   1.553   4.278
 8775WAT      O26566   1.426   7.314   2.387
 8775WAT     H126567   1.415   7.382   2.459
 8775WAT     H226568   1.514   7.268   2.398
 8776WAT      O26569   2.926   7.015   3.970
 8776WAT     H126570   2.899   6.928   4.011
 8776WAT     H226571   2.926   7.006   3.870
 8777WAT      O26572   6.711   8.177   0.521
 8777WAT     H126573   6.629   8.146   0.569
 8777WAT     H226574   6.689   8.193   0.425
 8778WAT      O26575   6.780   0.217   7.235
 8778WAT     H126576   6.758   0.226   7.332
 8778WAT     H226577   6.842   0.140   7.222
 8779WAT      O26578   1.846   5.540   1.559
 8779WAT     H126579   1.755   5.510   1.586
 8779WAT     H226580   1.904   5.550   1.640
 8780WAT      O26581   2.809   0.156   7.991
 8780WAT     H126582   2.820   0.098   7.910
 8780WAT     H226583   2.811   0.253   7.963
 8781WAT      O26584   5.631   5.847   1.345
 8781WAT     H126585   5.535   5.828   1.323
 8781WAT     H226586   5.676   5.762   1.371
 8782WAT      O26587   1.981   4.957   0.419
 8782WAT     H126588   1.979   5.049   0.456
 8782WAT     H226589   1.987   4.891   0.493
 8783WAT      O26590   3.780   4.223   2.636
 8783WAT     H126591   3.695   4.209   2.686
 8783WAT     H226592   3.835   4.292   2.683
 8784WAT      O26593   0.576   8.019   3.087
 8784WAT     H126594   0.568   7.920   3.076
 8784WAT     H226595   0.647   8.039   3.155
 8785WAT      O26596   6.000   1.615   8.273
 8785WAT     H126597   6.034   1.601   8.366
 8785WAT     H226598   6.046   1.695   8.233
 8786WAT      O26599   1.255   8.319   6.861
 8786WAT     H126600   1.166   8.339   6.902
 8786WAT     H226601   1.263   8.369   6.774
 8787WAT      O26602   2.809   8.257   5.899
 8787WAT     H126603   2.872   8.180   5.913
 8787WAT     H226604   2.817   8.289   5.805
 8788WAT      O26605   0.850   6.997   6.362
 8788WAT     H126606   0.889   7.001   6.454
 8788WAT     H226607   0.883   6.915   6.315
 8789WAT      O26608   9.130   0.467   7.893
 8789WAT     H126609   9.135   0.371   7.919
 8789WAT     H226610   9.209   0.491   7.837
 8790WAT      O26611   6.470   4.565   9.333
 8790WAT     H126612   6.500   4.646   9.383
 8790WAT     H226613   6.503   4.570   9.238
 8791WAT      O26614   4.709   7.103   5.932
 8791WAT     H126615   4.716   7.075   5.837
 8791WAT     H226616   4.625   7.156   5.945
 8792WAT      O26617   3.790   1.000   7.803
 8792WAT     H126618   3.711   1.020   7.861
 8792WAT     H226619   3.762   0.940   7.729
 8793WAT      O26620   9.671   2.903   4.251
 8793WAT     H126621   9.760   2.928   4.290
 8793WAT     H226622   9.684   2.849   4.168
 8794WAT      O26623   0.105   4.236   1.551
 8794WAT     H126624   0.160   4.301   1.500
 8794WAT     H226625   0.165   4.184   1.613
 8795WAT      O26626   4.377   1.082   8.933
 8795WAT     H126627   4.378   1.084   9.033
 8795WAT     H226628   4.371   1.175   8.897
 8796WAT      O26629   0.248   9.263   7.348
 8796WAT     H126630   0.207   9.317   7.421
 8796WAT     H226631   0.215   9.169   7.354
 8797WAT      O26632   6.484   0.469   7.348
 8797WAT     H126633   6.411   0.512   7.295
 8797WAT     H226634   6.494   0.517   7.435
 8798WAT      O26635   7.483   7.254   0.488
 8798WAT     H126636   7.552   7.276   0.558
 8798WAT     H226637   7.409   7.203   0.530
 8799WAT      O26638   0.182   6.877   7.575
 8799WAT     H126639   0.088   6.843   7.574
 8799WAT     H226640   0.201   6.925   7.490
 8800WAT      O26641   5.887   9.061   8.207
 8800WAT     H126642   5.876   9.154   8.242
 8800WAT     H226643   5.907   9.065   8.109
 8801WAT      O26644   6.836   8.166   1.870
 8801WAT     H126645   6.808   8.085   1.921
 8801WAT     H226646   6.756   8.212   1.834
 8802WAT      O26647   6.320   0.568   6.582
 8802WAT     H126648   6.379   0.599   6.657
 8802WAT     H226649   6.368   0.500   6.527
 8803WAT      O26650   8.848   1.121   3.648
 8803WAT     H126651   8.871   1.200   3.591
 8803WAT     H226652   8.825   1.152   3.740
 8804WAT      O26653   3.735   6.942   3.259
 8804WAT     H126654   3.687   6.926   3.173
 8804WAT     H226655   3.745   7.041   3.273
 8805WAT      O26656   5.502   2.350   9.381
 8805WAT     H126657   5.463   2.283   9.444
 8805WAT     H226658   5.600   2.358   9.398
 8806WAT      O26659   0.759   9.349   0.541
 8806WAT     H126660   0.718   9.372   0.629
 8806WAT     H226661   0.697   9.378   0.468
 8807WAT      O26662   6.675   3.713   4.831
 8807WAT     H126663   6.650   3.794   4.884
 8807WAT     H226664   6.599   3.687   4.772
 8808WAT      O26665   1.193   9.649   7.314
 8808WAT     H126666   1.197   9.587   7.236
 8808WAT     H226667   1.105   9.696   7.315
 8809WAT      O26668   3.446   7.018   1.170
 8809WAT     H126669   3.535   6.982   1.143
 8809WAT     H226670   3.384   7.013   1.092
 8810WAT      O26671   2.294   6.199   0.796
 8810WAT     H126672   2.329   6.272   0.737
 8810WAT     H226673   2.341   6.114   0.773
 8811WAT      O26674   5.826   9.605   5.508
 8811WAT     H126675   5.828   9.508   5.483
 8811WAT     H226676   5.920   9.639   5.516
 8812WAT      O26677   6.948   9.243   9.394
 8812WAT     H126678   6.905   9.274   9.309
 8812WAT     H226679   7.040   9.281   9.400
 8813WAT      O26680   3.058   5.821   6.049
 8813WAT     H126681   2.991   5.746   6.046
 8813WAT     H226682   3.061   5.858   6.141
 8814WAT      O26683   2.775   6.941   8.038
 8814WAT     H126684   2.687   6.904   8.006
 8814WAT     H226685   2.837   6.866   8.058
 8815WAT      O26686   7.848   5.911   5.247
 8815WAT     H126687   7.825   5.824   5.291
 8815WAT     H226688   7.826   5.986   5.309
 8816WAT      O26689   6.471   3.873   7.202
 8816WAT     H126690   6.520   3.917   7.277
 8816WAT     H226691   6.504   3.910   7.115
 8817WAT      O26692   7.781   7.445   2.445
 8817WAT     H126693   7.809   7.475   2.536
 8817WAT     H226694   7.812   7.352   2.428
 8818WAT      O26695   9.056   6.020   4.320
 8818WAT     H126696   9.114   6.090   4.362
 8818WAT     H226697   8.966   6.021   4.363
 8819WAT      O26698   5.589   4.781   7.615
 8819WAT     H126699   5.627   4.695   7.649
 8819WAT     H226700   5.650   4.856   7.640
 8820WAT      O26701   0.073   0.722   7.415
 8820WAT     H126702   0.164   0.694   7.446
 8820WAT     H226703   0.031   0.782   7.483
 8821WAT      O26704   9.671   5.843   3.505
 8821WAT     H126705   9.759   5.810   3.538
 8821WAT     H226706   9.681   5.937   3.472
 8822WAT      O26707   8.520   7.024   5.033
 8822WAT     H126708   8.525   6.949   4.967
 8822WAT     H226709   8.481   6.991   5.118
 8823WAT      O26710   2.151   0.308   6.545
 8823WAT     H126711   2.055   0.280   6.547
 8823WAT     H226712   2.206   0.243   6.597
 8824WAT      O26713   6.579   9.295   7.553
 8824WAT     H126714   6.496   9.246   7.524
 8824WAT     H226715   6.568   9.325   7.648
 8825WAT      O26716   0.070   4.595   6.513
 8825WAT     H126717   0.155   4.620   6.561
 8825WAT     H226718  -0.008   4.628   6.566
 8826WAT      O26719   7.494   6.572   0.720
 8826WAT     H126720   7.507   6.516   0.638
 8826WAT     H226721   7.526   6.521   0.800
 8827WAT      O26722   2.536   7.046   5.973
 8827WAT     H126723   2.547   7.122   6.037
 8827WAT     H226724   2.520   6.962   6.024
 8828WAT      O26725   6.974   6.300   8.395
 8828WAT     H126726   6.989   6.210   8.356
 8828WAT     H226727   6.903   6.295   8.465
 8829WAT      O26728   3.814   1.147   2.988
 8829WAT     H126729   3.892   1.087   2.999
 8829WAT     H226730   3.767   1.157   3.076
 8830WAT      O26731   8.571   5.035   3.162
 8830WAT     H126732   8.511   5.108   3.196
 8830WAT     H226733   8.516   4.957   3.134
 8831WAT      O26734   7.779   1.251   4.686
 8831WAT     H126735   7.686   1.287   4.691
 8831WAT     H226736   7.781   1.169   4.628
 8832WAT      O26737   5.279   2.784   7.634
 8832WAT     H126738   5.337   2.842   7.578
 8832WAT     H226739   5.274   2.821   7.727
 8833WAT      O26740   9.455   7.437   8.928
 8833WAT     H126741   9.389   7.463   8.857
 8833WAT     H226742   9.452   7.504   9.002
 8834WAT      O26743   7.476   4.786   6.726
 8834WAT     H126744   7.523   4.711   6.680
 8834WAT     H226745   7.521   4.873   6.703
 8835WAT      O26746   6.593   2.468   0.844
 8835WAT     H126747   6.608   2.484   0.941
 8835WAT     H226748   6.504   2.425   0.830
 8836WAT      O26749   0.417   7.888   1.329
 8836WAT     H126750   0.399   7.851   1.420
 8836WAT     H226751   0.488   7.958   1.334
 8837WAT      O26752   3.449   1.318   0.434
 8837WAT     H126753   3.491   1.328   0.524
 8837WAT     H226754   3.430   1.408   0.395
 8838WAT      O26755   9.653   1.094   2.638
 8838WAT     H126756   9.559   1.130   2.634
 8838WAT     H226757   9.651   0.995   2.624
 8839WAT      O26758   6.180   1.585   0.552
 8839WAT     H126759   6.252   1.653   0.543
 8839WAT     H226760   6.220   1.494   0.557
 8840WAT      O26761   3.711   6.695   2.368
 8840WAT     H126762   3.744   6.733   2.282
 8840WAT     H226763   3.626   6.741   2.394
 8841WAT      O26764   5.256   3.021   9.365
 8841WAT     H126765   5.279   2.946   9.303
 8841WAT     H226766   5.274   2.993   9.459
 8842WAT      O26767   4.052   3.213   6.157
 8842WAT     H126768   4.120   3.244   6.091
 8842WAT     H226769   4.093   3.144   6.216
 8843WAT      O26770   1.795   8.854   7.406
 8843WAT     H126771   1.818   8.776   7.464
 8843WAT     H226772   1.777   8.822   7.313
 8844WAT      O26773   1.207   3.083   8.502
 8844WAT     H126774   1.229   3.180   8.492
 8844WAT     H226775   1.130   3.060   8.443
 8845WAT      O26776   6.049   0.037   8.724
 8845WAT     H126777   6.086  -0.055   8.710
 8845WAT     H226778   6.042   0.084   8.636
 8846WAT      O26779   6.731   9.074   4.088
 8846WAT     H126780   6.726   8.996   4.025
 8846WAT     H226781   6.793   9.143   4.050
 8847WAT      O26782   1.437   7.420   1.729
 8847WAT     H126783   1.438   7.493   1.661
 8847WAT     H226784   1.343   7.404   1.759
 8848WAT      O26785   3.615   5.450   8.741
 8848WAT     H126786   3.588   5.361   8.704
 8848WAT     H226787   3.534   5.499   8.774
 8849WAT      O26788   3.224   7.779   6.765
 8849WAT     H126789   3.155   7.732   6.711
 8849WAT     H226790   3.248   7.723   6.844
 8850WAT      O26791   1.755   0.106   8.215
 8850WAT     H126792   1.768   0.081   8.311
 8850WAT     H226793   1.705   0.033   8.168
 8851WAT      O26794   5.124   1.943   4.627
 8851WAT     H126795   5.158   1.928   4.535
 8851WAT     H226796   5.156   1.870   4.687
 8852WAT      O26797   2.043   3.758   0.446
 8852WAT     H126798   2.091   3.795   0.526
 8852WAT     H226799   2.078   3.666   0.426
 8853WAT      O26800   9.447   4.945   7.999
 8853WAT     H126801   9.411   5.038   8.005
 8853WAT     H226802   9.383   4.880   8.040
 8854WAT      O26803   2.691   3.770   4.417
 8854WAT     H126804   2.691   3.860   4.460
 8854WAT     H226805   2.668   3.701   4.485
 8855WAT      O26806   6.707   1.381   9.048
 8855WAT     H126807   6.783   1.357   9.109
 8855WAT     H226808   6.668   1.468   9.077
 8856WAT      O26809   6.338   1.779   4.777
 8856WAT     H126810   6.405   1.756   4.706
 8856WAT     H226811   6.374   1.751   4.867
 8857WAT      O26812   5.414   3.013   6.186
 8857WAT     H126813   5.441   3.109   6.179
 8857WAT     H226814   5.476   2.965   6.248
 8858WAT      O26815   0.687   3.016   1.664
 8858WAT     H126816   0.623   2.962   1.719
 8858WAT     H226817   0.768   3.037   1.718
 8859WAT      O26818   4.486   4.918   9.318
 8859WAT     H126819   4.391   4.912   9.347
 8859WAT     H226820   4.521   5.010   9.337
 8860WAT      O26821   7.418   4.391   6.554
 8860WAT     H126822   7.490   4.328   6.581
 8860WAT     H226823   7.457   4.465   6.500
 8861WAT      O26824   2.164   9.450   9.053
 8861WAT     H126825   2.191   9.363   9.095
 8861WAT     H226826   2.244   9.511   9.049
 8862WAT      O26827   8.801   3.710   1.289
 8862WAT     H126828   8.790   3.808   1.303
 8862WAT     H226829   8.845   3.692   1.201
 8863WAT      O26830   0.927   5.652   2.674
 8863WAT     H126831   1.001   5.645   2.741
 8863WAT     H226832   0.965   5.674   2.584
 8864WAT      O26833   4.256   7.212   5.724
 8864WAT     H126834   4.171   7.167   5.698
 8864WAT     H226835   4.293   7.169   5.806
 8865WAT      O26836   0.603   9.597   9.759
 8865WAT     H126837   0.583   9.619   9.664
 8865WAT     H226838   0.568   9.670   9.818
 8866WAT      O26839   2.146   2.194   5.706
 8866WAT     H126840   2.053   2.224   5.726
 8866WAT     H226841   2.211   2.255   5.751
 8867WAT      O26842   3.322   7.741   6.307
 8867WAT     H126843   3.332   7.750   6.207
 8867WAT     H226844   3.226   7.753   6.331
 8868WAT      O26845   4.297   5.164   9.006
 8868WAT     H126846   4.274   5.255   8.973
 8868WAT     H226847   4.391   5.163   9.041
 8869WAT      O26848   7.940   6.309   1.117
 8869WAT     H126849   7.845   6.311   1.148
 8869WAT     H226850   7.979   6.218   1.132
 8870WAT      O26851   7.937   3.145   7.760
 8870WAT     H126852   7.964   3.240   7.743
 8870WAT     H226853   7.841   3.133   7.734
 8871WAT      O26854   7.196   7.508   0.780
 8871WAT     H126855   7.290   7.519   0.813
 8871WAT     H226856   7.138   7.580   0.821
 8872WAT      O26857   7.245   7.250   6.956
 8872WAT     H126858   7.295   7.167   6.980
 8872WAT     H226859   7.308   7.327   6.954
 8873WAT      O26860   8.497   1.980   3.585
 8873WAT     H126861   8.474   1.888   3.555
 8873WAT     H226862   8.575   1.977   3.648
 8874WAT      O26863   7.105   4.841   9.108
 8874WAT     H126864   7.135   4.771   9.172
 8874WAT     H226865   7.184   4.878   9.059
 8875WAT      O26866   2.912   4.534   3.627
 8875WAT     H126867   2.970   4.459   3.595
 8875WAT     H226868   2.824   4.529   3.581
 8876WAT      O26869   4.772   9.827   6.889
 8876WAT     H126870   4.676   9.846   6.909
 8876WAT     H226871   4.810   9.769   6.961
 8877WAT      O26872   6.301   7.549   3.105
 8877WAT     H126873   6.256   7.634   3.080
 8877WAT     H226874   6.247   7.501   3.174
 8878WAT      O26875   1.678   1.052   3.208
 8878WAT     H126876   1.671   0.998   3.291
 8878WAT     H226877   1.588   1.059   3.164
 8879WAT      O26878   3.993   0.572   3.038
 8879WAT     H126879   4.048   0.500   2.996
 8879WAT     H226880   3.902   0.573   2.997
 8880WAT      O26881   3.495   1.546   2.357
 8880WAT     H126882   3.549   1.592   2.286
 8880WAT     H226883   3.545   1.547   2.443
 8881WAT      O26884   4.780   7.679   1.243
 8881WAT     H126885   4.698   7.733   1.221
 8881WAT     H226886   4.780   7.656   1.341
 8882WAT      O26887   5.818   9.485   1.950
 8882WAT     H126888   5.724   9.478   1.916
 8882WAT     H226889   5.816   9.487   2.050
 8883WAT      O26890   4.442   2.760   8.453
 8883WAT     H126891   4.428   2.690   8.522
 8883WAT     H226892   4.445   2.718   8.362
 8884WAT      O26893   9.458   3.303   5.362
 8884WAT     H126894   9.499   3.296   5.271
 8884WAT     H226895   9.497   3.233   5.422
 8885WAT      O26896   2.047   2.593   0.612
 8885WAT     H126897   1.987   2.630   0.541
 8885WAT     H226898   2.012   2.504   0.642
 8886WAT      O26899   1.786   2.401   3.076
 8886WAT     H126900   1.854   2.451   3.023
 8886WAT     H226901   1.696   2.445   3.066
 8887WAT      O26902   1.539   5.591   4.801
 8887WAT     H126903   1.621   5.567   4.852
 8887WAT     H226904   1.484   5.657   4.853
 8888WAT      O26905   4.915   8.109   1.283
 8888WAT     H126906   4.905   8.030   1.224
 8888WAT     H226907   5.009   8.112   1.320
 8889WAT      O26908   8.445   5.032   4.864
 8889WAT     H126909   8.410   4.943   4.833
 8889WAT     H226910   8.537   5.020   4.902
 8890WAT      O26911   2.822   8.414   6.255
 8890WAT     H126912   2.876   8.441   6.176
 8890WAT     H226913   2.857   8.329   6.294
 8891WAT      O26914   5.968   8.320   6.727
 8891WAT     H126915   5.932   8.303   6.819
 8891WAT     H226916   5.970   8.234   6.675
 8892WAT      O26917   3.383   3.073   6.113
 8892WAT     H126918   3.460   3.136   6.127
 8892WAT     H226919   3.362   3.070   6.015
 8893WAT      O26920   3.327   0.935   0.249
 8893WAT     H126921   3.304   0.898   0.159
 8893WAT     H226922   3.264   1.009   0.272
 8894WAT      O26923   3.490   0.070   0.003
 8894WAT     H126924   3.500   0.014   0.086
 8894WAT     H226925   3.408   0.041  -0.047
 8895WAT      O26926   3.435   5.382   7.978
 8895WAT     H126927   3.462   5.476   7.957
 8895WAT     H226928   3.355   5.358   7.924
 8896WAT      O26929   9.326   3.922   3.827
 8896WAT     H126930   9.311   3.913   3.926
 8896WAT     H226931   9.420   3.951   3.810
 8897WAT      O26932   3.007   1.956   2.886
 8897WAT     H126933   3.050   1.966   2.796
 8897WAT     H226934   3.076   1.968   2.957
 8898WAT      O26935   2.866   2.786   1.604
 8898WAT     H126936   2.890   2.863   1.663
 8898WAT     H226937   2.847   2.819   1.512
 8899WAT      O26938   0.775   8.735   5.574
 8899WAT     H126939   0.700   8.680   5.609
 8899WAT     H226940   0.759   8.831   5.596
 8900WAT      O26941   3.500   4.956   1.172
 8900WAT     H126942   3.469   4.957   1.077
 8900WAT     H226943   3.586   5.006   1.180
 8901WAT      O26944   7.324   0.874   5.277
 8901WAT     H126945   7.327   0.842   5.372
 8901WAT     H226946   7.230   0.895   5.252
 8902WAT      O26947   9.450   5.200   1.432
 8902WAT     H126948   9.474   5.103   1.441
 8902WAT     H226949   9.455   5.243   1.522
 8903WAT      O26950   8.560   1.817   0.726
 8903WAT     H126951   8.469   1.854   0.707
 8903WAT     H226952   8.559   1.769   0.814
 8904WAT      O26953   6.444   7.412   6.599
 8904WAT     H126954   6.424   7.504   6.634
 8904WAT     H226955   6.516   7.418   6.530
 8905WAT      O26956   6.033   0.630   5.537
 8905WAT     H126957   6.100   0.605   5.467
 8905WAT     H226958   5.951   0.667   5.493
 8906WAT      O26959   1.273   7.450   9.429
 8906WAT     H126960   1.221   7.369   9.455
 8906WAT     H226961   1.220   7.505   9.365
 8907WAT      O26962   5.512   2.662   8.794
 8907WAT     H126963   5.566   2.581   8.817
 8907WAT     H226964   5.571   2.742   8.792
 8908WAT      O26965   2.947   3.318   4.049
 8908WAT     H126966   2.862   3.314   3.996
 8908WAT     H226967   2.975   3.414   4.061
 8909WAT      O26968   6.380   9.647   2.909
 8909WAT     H126969   6.310   9.717   2.895
 8909WAT     H226970   6.336   9.563   2.943
 8910WAT      O26971   7.735   4.077   0.858
 8910WAT     H126972   7.754   4.009   0.930
 8910WAT     H226973   7.724   4.030   0.771
 8911WAT      O26974   3.406   2.459   1.691
 8911WAT     H126975   3.336   2.527   1.668
 8911WAT     H226976   3.471   2.500   1.755
 8912WAT      O26977   0.043   3.405   6.547
 8912WAT     H126978   0.035   3.405   6.647
 8912WAT     H226979  -0.032   3.353   6.507
 8913WAT      O26980   2.236   5.800   6.700
 8913WAT     H126981   2.318   5.853   6.681
 8913WAT     H226982   2.238   5.768   6.795
 8914WAT      O26983   9.655   7.495   9.353
 8914WAT     H126984   9.657   7.587   9.392
 8914WAT     H226985   9.684   7.499   9.257
 8915WAT      O26986   6.265   6.069   6.304
 8915WAT     H126987   6.209   6.138   6.350
 8915WAT     H226988   6.243   5.978   6.341
 8916WAT      O26989   4.163   5.242   5.753
 8916WAT     H126990   4.079   5.292   5.773
 8916WAT     H226991   4.242   5.294   5.785
 8917WAT      O26992   1.589   2.644   9.275
 8917WAT     H126993   1.645   2.561   9.279
 8917WAT     H226994   1.512   2.630   9.213
 8918WAT      O26995   6.382   2.499   8.629
 8918WAT     H126996   6.398   2.471   8.534
 8918WAT     H226997   6.432   2.583   8.648
 8919WAT      O26998   7.926   8.851   5.121
 8919WAT     H126999   7.858   8.835   5.049
 8919WAT     H227000   7.938   8.949   5.134
 8920WAT      O27001   3.470   0.927   5.124
 8920WAT     H127002   3.472   0.859   5.051
 8920WAT     H227003   3.513   0.889   5.206
 8921WAT      O27004   2.500   6.007   0.714
 8921WAT     H127005   2.538   6.032   0.624
 8921WAT     H227006   2.567   5.953   0.764
 8922WAT      O27007   5.073   6.491   5.591
 8922WAT     H127008   5.154   6.433   5.582
 8922WAT     H227009   5.098   6.580   5.628
 8923WAT      O27010   2.039   3.955   0.242
 8923WAT     H127011   1.993   3.917   0.162
 8923WAT     H227012   2.030   3.891   0.319
 8924WAT      O27013   3.736   9.360   0.921
 8924WAT     H127014   3.737   9.394   1.014
 8924WAT     H227015   3.819   9.390   0.873
 8925WAT      O27016   5.134   2.175   8.811
 8925WAT     H127017   5.219   2.228   8.816
 8925WAT     H227018   5.132   2.109   8.886
 8926WAT      O27019   8.006   9.289   4.526
 8926WAT     H127020   7.956   9.218   4.575
 8926WAT     H227021   8.100   9.292   4.559
 8927WAT      O27022   2.878   0.547   5.620
 8927WAT     H127023   2.924   0.459   5.631
 8927WAT     H227024   2.926   0.617   5.673
 8928WAT      O27025   9.357   3.209   3.825
 8928WAT     H127026   9.444   3.249   3.796
 8928WAT     H227027   9.348   3.219   3.924
 8929WAT      O27028   1.679   7.854   3.208
 8929WAT     H127029   1.751   7.916   3.179
 8929WAT     H227030   1.598   7.906   3.235
 8930WAT      O27031   7.750   5.021   4.248
 8930WAT     H127032   7.826   4.957   4.253
 8930WAT     H227033   7.664   4.970   4.248
 8931WAT      O27034   9.429   2.851   1.267
 8931WAT     H127035   9.395   2.933   1.220
 8931WAT     H227036   9.428   2.868   1.366
 8932WAT      O27037   8.482   7.090   9.793
 8932WAT     H127038   8.552   7.099   9.723
 8932WAT     H227039   8.457   6.993   9.803
 8933WAT      O27040   2.583   2.574   2.964
 8933WAT     H127041   2.493   2.595   2.926
 8933WAT     H227042   2.610   2.481   2.939
 8934WAT      O27043   9.430   8.585   8.772
 8934WAT     H127044   9.351   8.615   8.719
 8934WAT     H227045   9.461   8.659   8.832
 8935WAT      O27046   1.450   4.650   1.826
 8935WAT     H127047   1.484   4.744   1.823
 8935WAT     H227048   1.408   4.627   1.738
 8936WAT      O27049   1.153   3.581   1.622
 8936WAT     H127050   1.110   3.491   1.613
 8936WAT     H227051   1.097   3.638   1.683
 8937WAT      O27052   5.887   2.771   5.869
 8937WAT     H127053   5.906   2.676   5.892
 8937WAT     H227054   5.789   2.790   5.881
 8938WAT      O27055   1.153   0.804   9.023
 8938WAT     H127056   1.149   0.754   8.937
 8938WAT     H227057   1.184   0.743   9.096
 8939WAT      O27058   9.436   1.493   2.666
 8939WAT     H127059   9.526   1.451   2.680
 8939WAT     H227060   9.380   1.479   2.748
 8940WAT      O27061   1.767   3.062   2.391
 8940WAT     H127062   1.786   3.112   2.307
 8940WAT     H227063   1.773   3.124   2.469
 8941WAT      O27064   1.341   3.263   2.582
 8941WAT     H127065   1.273   3.336   2.586
 8941WAT     H227066   1.424   3.296   2.538
 8942WAT      O27067   9.003   3.380   5.991
 8942WAT     H127068   9.084   3.336   6.030
 8942WAT     H227069   8.933   3.310   5.972
 8943WAT      O27070   7.760   4.686   6.114
 8943WAT     H127071   7.707   4.762   6.153
 8943WAT     H227072   7.820   4.648   6.184
 8944WAT      O27073   3.052   3.387   4.862
 8944WAT     H127074   3.055   3.291   4.892
 8944WAT     H227075   3.085   3.394   4.769
 8945WAT      O27076   4.007   2.241   9.626
 8945WAT     H127077   4.080   2.214   9.689
 8945WAT     H227078   3.950   2.311   9.670
 8946WAT      O27079   8.038   7.380   7.393
 8946WAT     H127080   8.080   7.337   7.473
 8946WAT     H227081   8.030   7.312   7.319
 8947WAT      O27082   1.725   9.655   5.569
 8947WAT     H127083   1.748   9.745   5.605
 8947WAT     H227084   1.634   9.657   5.529
 8948WAT      O27085   6.677   9.825   1.004
 8948WAT     H127086   6.646   9.916   0.977
 8948WAT     H227087   6.703   9.773   0.922
 8949WAT      O27088   6.768   2.108   0.236
 8949WAT     H127089   6.792   2.176   0.306
 8949WAT     H227090   6.848   2.089   0.180
 8950WAT      O27091   5.883   1.447   8.123
 8950WAT     H127092   5.888   1.517   8.194
 8950WAT     H227093   5.881   1.357   8.166
 8951WAT      O27094   2.910   1.949   9.719
 8951WAT     H127095   2.931   2.047   9.712
 8951WAT     H227096   2.859   1.932   9.804
 8952WAT      O27097   4.049   4.795   1.527
 8952WAT     H127098   3.987   4.803   1.449
 8952WAT     H227099   4.129   4.854   1.512
 8953WAT      O27100   3.973   6.333   3.091
 8953WAT     H127101   4.054   6.382   3.123
 8953WAT     H227102   3.890   6.381   3.120
 8954WAT      O27103   1.876   4.094   6.203
 8954WAT     H127104   1.813   4.051   6.268
 8954WAT     H227105   1.905   4.183   6.238
 8955WAT      O27106   1.489   7.863   8.669
 8955WAT     H127107   1.569   7.917   8.644
 8955WAT     H227108   1.410   7.924   8.681
 8956WAT      O27109   2.586   7.196   1.932
 8956WAT     H127110   2.532   7.144   1.865
 8956WAT     H227111   2.529   7.216   2.012
 8957WAT      O27112   7.493   6.251   4.934
 8957WAT     H127113   7.430   6.219   5.005
 8957WAT     H227114   7.468   6.211   4.846
 8958WAT      O27115   0.944   4.264   3.209
 8958WAT     H127116   1.034   4.287   3.173
 8958WAT     H227117   0.917   4.173   3.175
 8959WAT      O27118   0.327   1.511   4.823
 8959WAT     H127119   0.368   1.526   4.733
 8959WAT     H227120   0.352   1.420   4.857
 8960WAT      O27121   1.372   7.763   1.330
 8960WAT     H127122   1.314   7.844   1.339
 8960WAT     H227123   1.345   7.711   1.249
 8961WAT      O27124   2.636   7.989   2.936
 8961WAT     H127125   2.709   8.055   2.955
 8961WAT     H227126   2.668   7.921   2.870
 8962WAT      O27127   3.228   8.305   3.603
 8962WAT     H127128   3.232   8.396   3.562
 8962WAT     H227129   3.318   8.280   3.638
 8963WAT      O27130   4.611   7.352   3.286
 8963WAT     H127131   4.560   7.330   3.202
 8963WAT     H227132   4.670   7.275   3.309
 8964WAT      O27133   4.320   5.922   8.941
 8964WAT     H127134   4.289   6.000   8.888
 8964WAT     H227135   4.320   5.945   9.038
 8965WAT      O27136   1.331   6.182   8.496
 8965WAT     H127137   1.282   6.187   8.409
 8965WAT     H227138   1.277   6.226   8.567
 8966WAT      O27139   9.005   0.090   5.428
 8966WAT     H127140   9.041   0.120   5.340
 8966WAT     H227141   8.928   0.028   5.414
 8967WAT      O27142   0.627   7.831   7.262
 8967WAT     H127143   0.644   7.917   7.309
 8967WAT     H227144   0.529   7.820   7.245
 8968WAT      O27145   3.128   9.440   4.740
 8968WAT     H127146   3.059   9.424   4.811
 8968WAT     H227147   3.204   9.493   4.778
 8969WAT      O27148   3.652   3.606   2.407
 8969WAT     H127149   3.749   3.594   2.385
 8969WAT     H227150   3.641   3.611   2.507
 8970WAT      O27151   5.810   3.852   4.104
 8970WAT     H127152   5.714   3.853   4.073
 8970WAT     H227153   5.868   3.884   4.029
 8971WAT      O27154   8.008   3.606   4.961
 8971WAT     H127155   8.095   3.653   4.971
 8971WAT     H227156   7.963   3.598   5.050
 8972WAT      O27157   8.616   2.175   3.819
 8972WAT     H127158   8.706   2.181   3.777
 8972WAT     H227159   8.626   2.138   3.912
 8973WAT      O27160   7.129   4.880   4.679
 8973WAT     H127161   7.084   4.810   4.734
 8973WAT     H227162   7.060   4.937   4.634
 8974WAT      O27163   3.218   1.340   9.445
 8974WAT     H127164   3.240   1.418   9.386
 8974WAT     H227165   3.148   1.368   9.511
 8975WAT      O27166   6.974   7.029   6.321
 8975WAT     H127167   6.887   6.980   6.323
 8975WAT     H227168   7.019   7.013   6.233
 8976WAT      O27169   0.008   3.305   1.185
 8976WAT     H127170  -0.075   3.274   1.231
 8976WAT     H227171  -0.017   3.363   1.107
 8977WAT      O27172   1.003   5.257   5.781
 8977WAT     H127173   1.035   5.211   5.698
 8977WAT     H227174   0.914   5.220   5.807
 8978WAT      O27175   5.208   5.660   2.820
 8978WAT     H127176   5.287   5.599   2.819
 8978WAT     H227177   5.210   5.719   2.739
 8979WAT      O27178   4.619   5.377   3.613
 8979WAT     H127179   4.586   5.285   3.592
 8979WAT     H227180   4.559   5.444   3.570
 8980WAT      O27181   2.321   4.373   2.633
 8980WAT     H127182   2.376   4.351   2.714
 8980WAT     H227183   2.250   4.440   2.658
 8981WAT      O27184   0.024   5.633   5.578
 8981WAT     H127185  -0.038   5.711   5.585
 8981WAT     H227186  -0.006   5.573   5.504
 8982WAT      O27187   8.602   6.489   4.317
 8982WAT     H127188   8.625   6.400   4.278
 8982WAT     H227189   8.591   6.555   4.243
 8983WAT      O27190   6.704   7.704   7.007
 8983WAT     H127191   6.744   7.784   7.052
 8983WAT     H227192   6.622   7.732   6.957
 8984WAT      O27193   6.365   3.790   5.946
 8984WAT     H127194   6.420   3.838   5.878
 8984WAT     H227195   6.423   3.727   5.998
 8985WAT      O27196   9.154   5.968   8.244
 8985WAT     H127197   9.138   5.952   8.147
 8985WAT     H227198   9.066   5.978   8.291
 8986WAT      O27199   5.858   1.675   0.188
 8986WAT     H127200   5.765   1.710   0.174
 8986WAT     H227201   5.855   1.594   0.247
 8987WAT      O27202   7.423   2.211   8.418
 8987WAT     H127203   7.512   2.248   8.445
 8987WAT     H227204   7.357   2.286   8.411
 8988WAT      O27205   4.215   5.302   6.916
 8988WAT     H127206   4.182   5.376   6.973
 8988WAT     H227207   4.228   5.334   6.822
 8989WAT      O27208   8.947   7.814   8.376
 8989WAT     H127209   8.971   7.866   8.458
 8989WAT     H227210   9.013   7.739   8.364
 8990WAT      O27211   2.434   5.964   3.035
 8990WAT     H127212   2.502   6.011   3.090
 8990WAT     H227213   2.476   5.933   2.949
 8991WAT      O27214   4.915   0.373   0.477
 8991WAT     H127215   4.950   0.442   0.542
 8991WAT     H227216   4.815   0.374   0.480
 8992WAT      O27217   0.564   1.267   6.783
 8992WAT     H127218   0.566   1.291   6.686
 8992WAT     H227219   0.537   1.347   6.837
 8993WAT      O27220   4.086   4.867   1.771
 8993WAT     H127221   4.141   4.945   1.743
 8993WAT     H227222   4.034   4.833   1.692
 8994WAT      O27223   4.040   7.067   5.672
 8994WAT     H127224   3.983   7.034   5.596
 8994WAT     H227225   3.980   7.097   5.747
 8995WAT      O27226   8.710   7.957   2.203
 8995WAT     H127227   8.722   7.858   2.215
 8995WAT     H227228   8.798   8.003   2.211
 8996WAT      O27229   0.506   5.565   5.816
 8996WAT     H127230   0.577   5.514   5.865
 8996WAT     H227231   0.433   5.589   5.879
 8997WAT      O27232   0.744   5.642   2.930
 8997WAT     H127233   0.680   5.574   2.894
 8997WAT     H227234   0.784   5.693   2.854
 8998WAT      O27235   1.185   5.845   5.711
 8998WAT     H127236   1.174   5.807   5.620
 8998WAT     H227237   1.281   5.840   5.738
 8999WAT      O27238   0.164   5.159   3.606
 8999WAT     H127239   0.254   5.127   3.635
 8999WAT     H227240   0.163   5.170   3.507
 9000WAT      O27241   8.720   1.877   3.742
 9000WAT     H127242   8.725   1.849   3.838
 9000WAT     H227243   8.810   1.866   3.700
 9001WAT      O27244   4.728   4.494   6.380
 9001WAT     H127245   4.770   4.577   6.343
 9001WAT     H227246   4.795   4.443   6.434
 9002WAT      O27247   9.173   3.464   2.662
 9002WAT     H127248   9.261   3.417   2.660
 9002WAT     H227249   9.187   3.563   2.655
 9003WAT      O27250   5.566   6.445   0.079
 9003WAT     H127251   5.532   6.458  -0.014
 9003WAT     H227252   5.662   6.472   0.083
 9004WAT      O27253   1.434   7.306   0.974
 9004WAT     H127254   1.507   7.365   0.941
 9004WAT     H227255   1.473   7.228   1.024
 9005WAT      O27256   8.044   8.323   1.617
 9005WAT     H127257   8.125   8.352   1.669
 9005WAT     H227258   7.963   8.328   1.676
 9006WAT      O27259   5.448   8.519   4.723
 9006WAT     H127260   5.510   8.590   4.692
 9006WAT     H227261   5.369   8.561   4.769
 9007WAT      O27262   9.802   8.607   0.413
 9007WAT     H127263   9.730   8.672   0.390
 9007WAT     H227264   9.885   8.628   0.361
 9008WAT      O27265   4.534   8.299   0.138
 9008WAT     H127266   4.565   8.366   0.206
 9008WAT     H227267   4.612   8.273   0.080
 9009WAT      O27268   8.069   7.899   1.520
 9009WAT     H127269   8.002   7.849   1.574
 9009WAT     H227270   8.042   7.995   1.513
 9010WAT      O27271   7.284   7.218   1.845
 9010WAT     H127272   7.354   7.281   1.811
 9010WAT     H227273   7.202   7.270   1.868
 9011WAT      O27274   8.389   2.592   6.531
 9011WAT     H127275   8.365   2.572   6.626
 9011WAT     H227276   8.428   2.510   6.488
 9012WAT      O27277   5.384   2.584   7.476
 9012WAT     H127278   5.483   2.591   7.487
 9012WAT     H227279   5.339   2.635   7.550
 9013WAT      O27280   4.137   2.276   4.074
 9013WAT     H127281   4.078   2.290   3.994
 9013WAT     H227282   4.156   2.363   4.118
 9014WAT      O27283   8.234   3.081   6.069
 9014WAT     H127284   8.168   3.031   6.013
 9014WAT     H227285   8.185   3.143   6.130
 9015WAT      O27286   4.346   8.291   2.227
 9015WAT     H127287   4.329   8.387   2.249
 9015WAT     H227288   4.262   8.239   2.239
 9016WAT      O27289   7.848   8.970   8.066
 9016WAT     H127290   7.929   8.929   8.025
 9016WAT     H227291   7.770   8.910   8.052
 9017WAT      O27292   1.220   3.491   6.614
 9017WAT     H127293   1.224   3.423   6.541
 9017WAT     H227294   1.250   3.449   6.700
 9018WAT      O27295   3.041   9.779   7.919
 9018WAT     H127296   3.029   9.874   7.889
 9018WAT     H227297   3.076   9.724   7.843
 9019WAT      O27298   0.036   1.640   6.631
 9019WAT     H127299  -0.016   1.725   6.636
 9019WAT     H227300   0.049   1.604   6.723
 9020WAT      O27301   5.744   9.368   3.496
 9020WAT     H127302   5.686   9.310   3.440
 9020WAT     H227303   5.837   9.367   3.460
 9021WAT      O27304   1.038   2.037   4.332
 9021WAT     H127305   1.084   2.080   4.410
 9021WAT     H227306   1.098   1.966   4.294
 9022WAT      O27307   8.637   1.239   6.199
 9022WAT     H127308   8.718   1.188   6.170
 9022WAT     H227309   8.566   1.175   6.226
 9023WAT      O27310   6.763   4.835   3.215
 9023WAT     H127311   6.838   4.879   3.168
 9023WAT     H227312   6.761   4.738   3.191
 9024WAT      O27313   9.838   6.199   5.066
 9024WAT     H127314   9.833   6.140   5.148
 9024WAT     H227315   9.932   6.199   5.032
 9025WAT      O27316   1.318   1.058   0.192
 9025WAT     H127317   1.330   1.018   0.283
 9025WAT     H227318   1.374   1.140   0.184
 9026WAT      O27319   4.012   2.372   1.102
 9026WAT     H127320   4.069   2.451   1.081
 9026WAT     H227321   4.023   2.303   1.030
 9027WAT      O27322   7.542   9.002   9.486
 9027WAT     H127323   7.625   8.950   9.505
 9027WAT     H227324   7.467   8.939   9.466
 9028WAT      O27325   0.349   0.725   0.545
 9028WAT     H127326   0.436   0.688   0.513
 9028WAT     H227327   0.331   0.695   0.638
 9029WAT      O27328   6.109   9.591   5.227
 9029WAT     H127329   6.104   9.578   5.326
 9029WAT     H227330   6.191   9.644   5.205
 9030WAT      O27331   3.411   6.477   0.158
 9030WAT     H127332   3.459   6.565   0.160
 9030WAT     H227333   3.447   6.418   0.230
 9031WAT      O27334   7.794   6.485   1.689
 9031WAT     H127335   7.718   6.463   1.628
 9031WAT     H227336   7.877   6.440   1.656
 9032WAT      O27337   6.375   1.916   1.088
 9032WAT     H127338   6.459   1.895   1.038
 9032WAT     H227339   6.314   1.837   1.087
 9033WAT      O27340   8.978   9.586   1.877
 9033WAT     H127341   8.957   9.648   1.801
 9033WAT     H227342   8.986   9.492   1.842
 9034WAT      O27343   2.084   4.824   8.053
 9034WAT     H127344   2.017   4.875   7.999
 9034WAT     H227345   2.057   4.823   8.149
 9035WAT      O27346   2.428   3.654   5.282
 9035WAT     H127347   2.485   3.735   5.284
 9035WAT     H227348   2.439   3.603   5.368
 9036WAT      O27349   0.207   1.503   0.983
 9036WAT     H127350   0.267   1.511   0.904
 9036WAT     H227351   0.257   1.458   1.058
 9037WAT      O27352   5.441   4.532   8.156
 9037WAT     H127353   5.473   4.474   8.082
 9037WAT     H227354   5.343   4.519   8.169
 9038WAT      O27355   6.483   6.723   4.316
 9038WAT     H127356   6.455   6.757   4.406
 9038WAT     H227357   6.579   6.746   4.300
 9039WAT      O27358   1.989   6.455   5.433
 9039WAT     H127359   1.894   6.463   5.404
 9039WAT     H227360   2.019   6.543   5.471
 9040WAT      O27361   6.779   2.962   1.723
 9040WAT     H127362   6.786   2.913   1.810
 9040WAT     H227363   6.798   2.899   1.648
 9041WAT      O27364   8.134   6.337   9.096
 9041WAT     H127365   8.228   6.331   9.064
 9041WAT     H227366   8.133   6.345   9.196
 9042WAT      O27367   6.858   3.070   8.977
 9042WAT     H127368   6.772   3.084   9.026
 9042WAT     H227369   6.913   3.154   8.981
 9043WAT      O27370   1.595   2.152   7.487
 9043WAT     H127371   1.656   2.073   7.484
 9043WAT     H227372   1.645   2.235   7.463
 9044WAT      O27373   2.192   4.736   0.301
 9044WAT     H127374   2.184   4.685   0.215
 9044WAT     H227375   2.132   4.816   0.298
 9045WAT      O27376   7.821   6.826   6.288
 9045WAT     H127377   7.746   6.776   6.244
 9045WAT     H227378   7.883   6.860   6.217
 9046WAT      O27379   2.501   4.539   4.952
 9046WAT     H127380   2.491   4.639   4.948
 9046WAT     H227381   2.465   4.505   5.038
 9047WAT      O27382   3.390   3.177   6.865
 9047WAT     H127383   3.488   3.194   6.857
 9047WAT     H227384   3.364   3.102   6.805
 9048WAT      O27385   5.611   1.657   9.817
 9048WAT     H127386   5.570   1.673   9.907
 9048WAT     H227387   5.574   1.573   9.778
 9049WAT      O27388   3.717   1.567   7.367
 9049WAT     H127389   3.810   1.535   7.382
 9049WAT     H227390   3.661   1.493   7.330
 9050WAT      O27391   5.374   6.145   3.896
 9050WAT     H127392   5.276   6.131   3.879
 9050WAT     H227393   5.418   6.175   3.811
 9051WAT      O27394   3.225   7.277   1.626
 9051WAT     H127395   3.221   7.373   1.652
 9051WAT     H227396   3.306   7.262   1.569
 9052WAT      O27397   8.356   5.518   6.192
 9052WAT     H127398   8.434   5.561   6.239
 9052WAT     H227399   8.271   5.551   6.232
 9053WAT      O27400   6.050   4.306   5.026
 9053WAT     H127401   6.113   4.229   5.036
 9053WAT     H227402   5.972   4.280   4.970
 9054WAT      O27403   5.090   8.070   4.910
 9054WAT     H127404   5.075   8.146   4.847
 9054WAT     H227405   5.002   8.038   4.945
 9055WAT      O27406   9.301   4.192   7.872
 9055WAT     H127407   9.334   4.280   7.837
 9055WAT     H227408   9.223   4.208   7.933
 9056WAT      O27409   1.762   4.821   6.031
 9056WAT     H127410   1.684   4.882   6.019
 9056WAT     H227411   1.735   4.743   6.088
 9057WAT      O27412   1.837   8.671   8.140
 9057WAT     H127413   1.748   8.717   8.133
 9057WAT     H227414   1.909   8.739   8.150
 9058WAT      O27415   6.338   5.915   5.862
 9058WAT     H127416   6.315   5.831   5.911
 9058WAT     H227417   6.260   5.976   5.861
 9059WAT      O27418   4.284   5.065   7.029
 9059WAT     H127419   4.200   5.010   7.033
 9059WAT     H227420   4.263   5.156   6.992
 9060WAT      O27421   1.424   9.305   0.117
 9060WAT     H127422   1.481   9.326   0.197
 9060WAT     H227423   1.362   9.230   0.140
 9061WAT      O27424   7.534   8.225   2.716
 9061WAT     H127425   7.630   8.241   2.740
 9061WAT     H227426   7.478   8.303   2.743
 9062WAT      O27427   7.650   1.164   5.397
 9062WAT     H127428   7.742   1.203   5.398
 9062WAT     H227429   7.656   1.065   5.381
 9063WAT      O27430   7.452   4.888   1.029
 9063WAT     H127431   7.493   4.843   0.950
 9063WAT     H227432   7.430   4.821   1.099
 9064WAT      O27433   3.830   5.480   2.267
 9064WAT     H127434   3.860   5.425   2.345
 9064WAT     H227435   3.849   5.577   2.286
 9065WAT      O27436   7.084   9.590   1.983
 9065WAT     H127437   7.040   9.676   1.959
 9065WAT     H227438   7.151   9.606   2.055
 9066WAT      O27439   3.321   0.272   5.140
 9066WAT     H127440   3.272   0.231   5.064
 9066WAT     H227441   3.299   0.369   5.146
 9067WAT      O27442   3.978   4.924   1.068
 9067WAT     H127443   3.915   4.971   1.007
 9067WAT     H227444   4.023   4.850   1.019
 9068WAT      O27445   7.687   3.640   8.621
 9068WAT     H127446   7.695   3.719   8.681
 9068WAT     H227447   7.777   3.614   8.586
 9069WAT      O27448   3.540   2.277   1.533
 9069WAT     H127449   3.492   2.350   1.582
 9069WAT     H227450   3.475   2.206   1.505
 9070WAT      O27451   6.298   8.835   5.735
 9070WAT     H127452   6.257   8.821   5.825
 9070WAT     H227453   6.349   8.921   5.735
 9071WAT      O27454   6.548   2.631   1.955
 9071WAT     H127455   6.461   2.601   1.994
 9071WAT     H227456   6.542   2.728   1.930
 9072WAT      O27457   8.720   4.574   2.722
 9072WAT     H127458   8.772   4.500   2.678
 9072WAT     H227459   8.701   4.646   2.656
 9073WAT      O27460   0.830   2.108   2.256
 9073WAT     H127461   0.898   2.176   2.284
 9073WAT     H227462   0.797   2.059   2.336
 9074WAT      O27463   3.410   4.476   1.033
 9074WAT     H127464   3.488   4.537   1.048
 9074WAT     H227465   3.442   4.391   0.991
 9075WAT      O27466   3.235   4.512   1.226
 9075WAT     H127467   3.289   4.475   1.151
 9075WAT     H227468   3.296   4.539   1.300
 9076WAT      O27469   2.988   3.982   1.559
 9076WAT     H127470   2.947   4.028   1.638
 9076WAT     H227471   3.087   3.991   1.562
 9077WAT      O27472   6.435   7.664   7.305
 9077WAT     H127473   6.363   7.632   7.243
 9077WAT     H227474   6.525   7.642   7.268
 9078WAT      O27475   3.657   8.463   9.305
 9078WAT     H127476   3.619   8.507   9.223
 9078WAT     H227477   3.686   8.370   9.283
 9079WAT      O27478   6.655   0.007   5.307
 9079WAT     H127479   6.595  -0.066   5.275
 9079WAT     H227480   6.650   0.084   5.244
 9080WAT      O27481   4.089   4.920   6.744
 9080WAT     H127482   4.122   5.014   6.757
 9080WAT     H227483   4.164   4.862   6.715
 9081WAT      O27484   6.767   4.994   9.841
 9081WAT     H127485   6.863   5.018   9.852
 9081WAT     H227486   6.712   5.046   9.906
 9082WAT      O27487   0.090   7.808   0.989
 9082WAT     H127488   0.104   7.863   1.071
 9082WAT     H227489   0.174   7.760   0.965
 9083WAT      O27490   7.634   8.531   4.410
 9083WAT     H127491   7.709   8.593   4.430
 9083WAT     H227492   7.658   8.473   4.332
 9084WAT      O27493   0.376   1.219   8.324
 9084WAT     H127494   0.355   1.235   8.421
 9084WAT     H227495   0.472   1.196   8.315
 9085WAT      O27496   3.039   3.332   3.608
 9085WAT     H127497   3.103   3.283   3.667
 9085WAT     H227498   3.059   3.430   3.611
 9086WAT      O27499   5.189   0.594   9.398
 9086WAT     H127500   5.189   0.604   9.498
 9086WAT     H227501   5.209   0.682   9.356
 9087WAT      O27502   5.895   4.277   9.682
 9087WAT     H127503   5.918   4.241   9.772
 9087WAT     H227504   5.938   4.220   9.612
 9088WAT      O27505   2.971   7.207   6.212
 9088WAT     H127506   2.970   7.128   6.152
 9088WAT     H227507   3.006   7.181   6.303
 9089WAT      O27508   6.878   6.052   1.929
 9089WAT     H127509   6.870   6.146   1.964
 9089WAT     H227510   6.790   6.025   1.889
 9090WAT      O27511   0.473   7.478   9.357
 9090WAT     H127512   0.484   7.567   9.313
 9090WAT     H227513   0.384   7.475   9.404
 9091WAT      O27514   4.170   7.080   1.659
 9091WAT     H127515   4.096   7.021   1.689
 9091WAT     H227516   4.197   7.056   1.566
 9092WAT      O27517   9.085   9.517   3.469
 9092WAT     H127518   9.088   9.598   3.527
 9092WAT     H227519   9.026   9.534   3.391
 9093WAT      O27520   9.443   0.464   3.580
 9093WAT     H127521   9.516   0.529   3.599
 9093WAT     H227522   9.437   0.398   3.656
 9094WAT      O27523   6.555   3.360   5.411
 9094WAT     H127524   6.467   3.338   5.453
 9094WAT     H227525   6.625   3.365   5.482
 9095WAT      O27526   6.881   2.605   1.864
 9095WAT     H127527   6.940   2.551   1.924
 9095WAT     H227528   6.821   2.662   1.919
 9096WAT      O27529   8.662   2.684   7.011
 9096WAT     H127530   8.703   2.595   6.992
 9096WAT     H227531   8.674   2.706   7.108
 9097WAT      O27532   7.738   1.885   2.802
 9097WAT     H127533   7.705   1.832   2.724
 9097WAT     H227534   7.693   1.974   2.803
 9098WAT      O27535   9.211   4.474   8.072
 9098WAT     H127536   9.151   4.521   8.007
 9098WAT     H227537   9.301   4.460   8.030
 9099WAT      O27538   8.048   9.102   1.154
 9099WAT     H127539   7.961   9.130   1.194
 9099WAT     H227540   8.123   9.125   1.216
 9100WAT      O27541   7.265   0.948   2.023
 9100WAT     H127542   7.341   0.916   2.082
 9100WAT     H227543   7.217   1.022   2.069
 9101WAT      O27544   3.823   4.519   6.796
 9101WAT     H127545   3.851   4.444   6.857
 9101WAT     H227546   3.726   4.537   6.808
 9102WAT      O27547   4.614   8.642   8.500
 9102WAT     H127548   4.531   8.644   8.443
 9102WAT     H227549   4.642   8.547   8.512
 9103WAT      O27550   4.375   2.441   4.672
 9103WAT     H127551   4.400   2.345   4.660
 9103WAT     H227552   4.412   2.474   4.759
 9104WAT      O27553   9.044   4.306   3.111
 9104WAT     H127554   9.067   4.254   3.193
 9104WAT     H227555   8.984   4.382   3.135
 9105WAT      O27556   8.964   2.100   8.898
 9105WAT     H127557   8.948   2.166   8.825
 9105WAT     H227558   8.927   2.011   8.871
 9106WAT      O27559   7.308   6.199   6.139
 9106WAT     H127560   7.368   6.120   6.148
 9106WAT     H227561   7.252   6.189   6.056
 9107WAT      O27562   2.139   7.076   4.082
 9107WAT     H127563   2.128   6.977   4.067
 9107WAT     H227564   2.234   7.096   4.105
 9108WAT      O27565   7.336   8.677   1.736
 9108WAT     H127566   7.270   8.608   1.707
 9108WAT     H227567   7.376   8.651   1.824
 9109WAT      O27568   1.974   4.532   8.945
 9109WAT     H127569   2.011   4.532   9.038
 9109WAT     H227570   1.904   4.461   8.937
 9110WAT      O27571   9.848   0.591   0.621
 9110WAT     H127572   9.921   0.607   0.688
 9110WAT     H227573   9.764   0.567   0.668
 9111WAT      O27574   1.094   9.137   0.263
 9111WAT     H127575   1.073   9.209   0.328
 9111WAT     H227576   1.175   9.087   0.295
 9112WAT      O27577   0.725   6.906   9.743
 9112WAT     H127578   0.700   6.862   9.830
 9112WAT     H227579   0.695   7.001   9.744
 9113WAT      O27580   5.353   7.503   2.350
 9113WAT     H127581   5.357   7.588   2.298
 9113WAT     H227582   5.302   7.519   2.435
 9114WAT      O27583   9.715   1.117   2.957
 9114WAT     H127584   9.760   1.096   3.044
 9114WAT     H227585   9.616   1.121   2.971
 9115WAT      O27586   1.841   5.583   6.012
 9115WAT     H127587   1.847   5.608   6.108
 9115WAT     H227588   1.825   5.484   6.004
 9116WAT      O27589   2.661   8.130   5.446
 9116WAT     H127590   2.598   8.110   5.521
 9116WAT     H227591   2.752   8.097   5.468
 9117WAT      O27592   1.285   4.676   1.570
 9117WAT     H127593   1.194   4.640   1.588
 9117WAT     H227594   1.297   4.688   1.471
 9118WAT      O27595   1.948   7.153   6.565
 9118WAT     H127596   2.012   7.134   6.639
 9118WAT     H227597   1.861   7.185   6.604
 9119WAT      O27598   9.633   3.530   5.091
 9119WAT     H127599   9.654   3.550   5.187
 9119WAT     H227600   9.585   3.442   5.085
 9120WAT      O27601   8.305   5.517   2.782
 9120WAT     H127602   8.219   5.548   2.740
 9120WAT     H227603   8.315   5.562   2.871
 9121WAT      O27604   0.819   8.277   4.468
 9121WAT     H127605   0.831   8.315   4.376
 9121WAT     H227606   0.799   8.351   4.532
 9122WAT      O27607   6.623   7.875   8.452
 9122WAT     H127608   6.688   7.907   8.521
 9122WAT     H227609   6.621   7.775   8.451
 9123WAT      O27610   2.056   7.593   5.636
 9123WAT     H127611   2.008   7.660   5.580
 9123WAT     H227612   2.000   7.511   5.645
 9124WAT      O27613   9.208   6.475   6.302
 9124WAT     H127614   9.116   6.446   6.326
 9124WAT     H227615   9.210   6.575   6.293
 9125WAT      O27616   8.640   6.266   8.369
 9125WAT     H127617   8.591   6.179   8.379
 9125WAT     H227618   8.697   6.282   8.449
 9126WAT      O27619   6.170   5.922   4.530
 9126WAT     H127620   6.087   5.914   4.585
 9126WAT     H227621   6.218   6.006   4.554
 9127WAT      O27622   2.907   4.458   0.305
 9127WAT     H127623   2.922   4.522   0.380
 9127WAT     H227624   2.971   4.382   0.313
 9128WAT      O27625   3.474   2.270   2.955
 9128WAT     H127626   3.508   2.229   2.870
 9128WAT     H227627   3.399   2.214   2.991
 9129WAT      O27628   8.520   7.155   7.951
 9129WAT     H127629   8.425   7.163   7.922
 9129WAT     H227630   8.525   7.153   8.051
 9130WAT      O27631   6.010   9.533   8.496
 9130WAT     H127632   5.986   9.605   8.431
 9130WAT     H227633   5.931   9.515   8.556
 9131WAT      O27634   2.079   6.465   2.039
 9131WAT     H127635   2.153   6.460   1.973
 9131WAT     H227636   2.009   6.397   2.016
 9132WAT      O27637   4.843   5.770   0.399
 9132WAT     H127638   4.853   5.695   0.334
 9132WAT     H227639   4.859   5.857   0.352
 9133WAT      O27640   5.673   1.227   8.378
 9133WAT     H127641   5.765   1.209   8.412
 9133WAT     H227642   5.662   1.183   8.289
 9134WAT      O27643   2.723   4.205   6.595
 9134WAT     H127644   2.712   4.152   6.679
 9134WAT     H227645   2.633   4.222   6.554
 9135WAT      O27646   2.001   2.247   4.503
 9135WAT     H127647   1.910   2.259   4.542
 9135WAT     H227648   2.028   2.331   4.455
 9136WAT      O27649   1.347   8.553   4.683
 9136WAT     H127650   1.397   8.486   4.629
 9136WAT     H227651   1.412   8.613   4.730
 9137WAT      O27652   1.192   9.383   6.549
 9137WAT     H127653   1.278   9.406   6.504
 9137WAT     H227654   1.150   9.305   6.504
 9138WAT      O27655   6.175   4.488   0.896
 9138WAT     H127656   6.170   4.520   0.802
 9138WAT     H227657   6.196   4.564   0.957
 9139WAT      O27658   6.261   5.942   0.469
 9139WAT     H127659   6.304   5.857   0.501
 9139WAT     H227660   6.190   5.970   0.534
 9140WAT      O27661   4.207   0.673   2.605
 9140WAT     H127662   4.174   0.729   2.681
 9140WAT     H227663   4.181   0.577   2.621
 9141WAT      O27664   3.366   2.511   4.686
 9141WAT     H127665   3.290   2.574   4.673
 9141WAT     H227666   3.332   2.417   4.679
 9142WAT      O27667   6.612   6.484   4.313
 9142WAT     H127668   6.548   6.560   4.301
 9142WAT     H227669   6.650   6.488   4.406
 9143WAT      O27670   6.510   8.149   6.475
 9143WAT     H127671   6.585   8.083   6.470
 9143WAT     H227672   6.517   8.201   6.559
 9144WAT      O27673   5.611   1.047   8.186
 9144WAT     H127674   5.600   1.039   8.087
 9144WAT     H227675   5.618   0.956   8.226
 9145WAT      O27676   2.367   8.630   5.042
 9145WAT     H127677   2.270   8.619   5.065
 9145WAT     H227678   2.376   8.643   4.943
 9146WAT      O27679   4.521   3.565   0.494
 9146WAT     H127680   4.476   3.476   0.484
 9146WAT     H227681   4.506   3.599   0.587
 9147WAT      O27682   4.874   8.214   0.699
 9147WAT     H127683   4.961   8.174   0.671
 9147WAT     H227684   4.835   8.160   0.774
 9148WAT      O27685   2.981   8.021   3.242
 9148WAT     H127686   2.939   7.935   3.273
 9148WAT     H227687   3.064   8.038   3.294
 9149WAT      O27688   4.860   5.545   9.842
 9149WAT     H127689   4.830   5.612   9.775
 9149WAT     H227690   4.888   5.461   9.796
 9150WAT      O27691   2.933   3.655   6.721
 9150WAT     H127692   2.906   3.559   6.726
 9150WAT     H227693   2.974   3.683   6.808
 9151WAT      O27694   9.790   4.234   1.364
 9151WAT     H127695   9.851   4.221   1.442
 9151WAT     H227696   9.832   4.296   1.298
 9152WAT      O27697   9.602   8.375   2.623
 9152WAT     H127698   9.619   8.294   2.679
 9152WAT     H227699   9.624   8.354   2.527
 9153WAT      O27700   5.637   1.625   7.777
 9153WAT     H127701   5.630   1.529   7.750
 9153WAT     H227702   5.551   1.654   7.819
 9154WAT      O27703   1.196   4.528   5.354
 9154WAT     H127704   1.104   4.499   5.383
 9154WAT     H227705   1.235   4.587   5.424
 9155WAT      O27706   6.509   8.662   1.081
 9155WAT     H127707   6.529   8.705   0.993
 9155WAT     H227708   6.443   8.589   1.069
 9156WAT      O27709   5.388   0.365   8.519
 9156WAT     H127710   5.421   0.425   8.592
 9156WAT     H227711   5.395   0.413   8.431
 9157WAT      O27712   6.157   2.531   4.507
 9157WAT     H127713   6.244   2.510   4.552
 9157WAT     H227714   6.090   2.460   4.529
 9158WAT      O27715   8.063   3.742   8.680
 9158WAT     H127716   8.036   3.656   8.638
 9158WAT     H227717   8.156   3.766   8.651
 9159WAT      O27718   3.303   5.847   5.911
 9159WAT     H127719   3.211   5.832   5.948
 9159WAT     H227720   3.300   5.841   5.811
 9160WAT      O27721   6.493   8.552   6.531
 9160WAT     H127722   6.483   8.651   6.542
 9160WAT     H227723   6.576   8.533   6.479
 9161WAT      O27724   8.604   5.824   7.826
 9161WAT     H127725   8.697   5.840   7.793
 9161WAT     H227726   8.539   5.831   7.750
 9162WAT      O27727   1.890   4.950   7.870
 9162WAT     H127728   1.836   4.872   7.841
 9162WAT     H227729   1.952   4.977   7.797
 9163WAT      O27730   2.596   1.150   0.689
 9163WAT     H127731   2.696   1.148   0.686
 9163WAT     H227732   2.565   1.245   0.684
 9164WAT      O27733   3.307   3.165   3.608
 9164WAT     H127734   3.351   3.189   3.521
 9164WAT     H227735   3.316   3.066   3.623
 9165WAT      O27736   3.373   0.194   0.955
 9165WAT     H127737   3.332   0.114   0.912
 9165WAT     H227738   3.432   0.166   1.031
 9166WAT      O27739   8.463   6.365   7.722
 9166WAT     H127740   8.476   6.457   7.759
 9166WAT     H227741   8.529   6.302   7.764
 9167WAT      O27742   0.127   1.709   9.032
 9167WAT     H127743   0.085   1.759   8.956
 9167WAT     H227744   0.062   1.703   9.108
 9168WAT      O27745   4.249   4.260   3.362
 9168WAT     H127746   4.257   4.352   3.325
 9168WAT     H227747   4.235   4.265   3.461
 9169WAT      O27748   6.345   2.213   6.929
 9169WAT     H127749   6.279   2.268   6.877
 9169WAT     H227750   6.329   2.225   7.027
 9170WAT      O27751   1.529   8.055   0.094
 9170WAT     H127752   1.619   8.097   0.085
 9170WAT     H227753   1.460   8.126   0.107
 9171WAT      O27754   3.188   6.747   6.456
 9171WAT     H127755   3.257   6.791   6.399
 9171WAT     H227756   3.210   6.651   6.467
 9172WAT      O27757   5.270   4.852   0.895
 9172WAT     H127758   5.222   4.818   0.813
 9172WAT     H227759   5.321   4.777   0.936
 9173WAT      O27760   7.206   8.177   9.049
 9173WAT     H127761   7.155   8.250   9.095
 9173WAT     H227762   7.274   8.139   9.113
 9174WAT      O27763   6.740   9.273   8.759
 9174WAT     H127764   6.735   9.281   8.660
 9174WAT     H227765   6.804   9.341   8.794
 9175WAT      O27766   8.460   5.787   9.416
 9175WAT     H127767   8.442   5.730   9.336
 9175WAT     H227768   8.375   5.801   9.467
 9176WAT      O27769   5.414   8.795   0.873
 9176WAT     H127770   5.443   8.732   0.945
 9176WAT     H227771   5.491   8.813   0.811
 9177WAT      O27772   9.503   5.833   9.108
 9177WAT     H127773   9.500   5.932   9.120
 9177WAT     H227774   9.530   5.812   9.014
 9178WAT      O27775   4.172   7.555   7.375
 9178WAT     H127776   4.191   7.534   7.471
 9178WAT     H227777   4.145   7.471   7.327
 9179WAT      O27778   8.367   1.422   4.919
 9179WAT     H127779   8.408   1.450   4.833
 9179WAT     H227780   8.434   1.431   4.993
 9180WAT      O27781   1.794   2.639   7.971
 9180WAT     H127782   1.738   2.573   7.920
 9180WAT     H227783   1.740   2.719   7.994
 9181WAT      O27784   4.898   0.622   1.442
 9181WAT     H127785   4.874   0.681   1.520
 9181WAT     H227786   4.840   0.541   1.443
 9182WAT      O27787   5.539   8.086   0.144
 9182WAT     H127788   5.638   8.075   0.133
 9182WAT     H227789   5.495   7.996   0.142
 9183WAT      O27790   8.720   7.642   5.882
 9183WAT     H127791   8.736   7.733   5.843
 9183WAT     H227792   8.788   7.578   5.847
 9184WAT      O27793   1.510   6.199   4.932
 9184WAT     H127794   1.558   6.115   4.958
 9184WAT     H227795   1.426   6.207   4.986
 9185WAT      O27796   3.974   6.643   0.285
 9185WAT     H127797   4.040   6.568   0.291
 9185WAT     H227798   3.882   6.606   0.274
 9186WAT      O27799   3.905   2.652   5.810
 9186WAT     H127800   3.985   2.664   5.868
 9186WAT     H227801   3.865   2.562   5.827
 9187WAT      O27802   1.992   5.071   6.406
 9187WAT     H127803   2.042   5.049   6.322
 9187WAT     H227804   2.044   5.137   6.460
 9188WAT      O27805   7.843   1.053   3.048
 9188WAT     H127806   7.840   1.062   3.148
 9188WAT     H227807   7.793   0.972   3.021
 9189WAT      O27808   8.073   3.407   8.914
 9189WAT     H127809   8.005   3.349   8.959
 9189WAT     H227810   8.070   3.498   8.955
 9190WAT      O27811   5.753   1.478   0.941
 9190WAT     H127812   5.745   1.543   0.866
 9190WAT     H227813   5.827   1.414   0.921
 9191WAT      O27814   5.480   3.444   6.716
 9191WAT     H127815   5.558   3.450   6.653
 9191WAT     H227816   5.452   3.537   6.743
 9192WAT      O27817   0.673   8.302   0.347
 9192WAT     H127818   0.736   8.254   0.408
 9192WAT     H227819   0.581   8.262   0.355
 9193WAT      O27820   9.446   4.846   9.870
 9193WAT     H127821   9.544   4.858   9.852
 9193WAT     H227822   9.397   4.928   9.840
 9194WAT      O27823   8.563   8.849   6.614
 9194WAT     H127824   8.587   8.902   6.534
 9194WAT     H227825   8.470   8.814   6.604
 9195WAT      O27826   7.135   8.472   5.183
 9195WAT     H127827   7.168   8.511   5.097
 9195WAT     H227828   7.090   8.384   5.164
 9196WAT      O27829   3.042   1.044   1.635
 9196WAT     H127830   3.006   1.137   1.621
 9196WAT     H227831   3.007   0.984   1.564
 9197WAT      O27832   0.142   4.145   2.323
 9197WAT     H127833   0.046   4.171   2.337
 9197WAT     H227834   0.200   4.225   2.337
 9198WAT      O27835   3.383   1.840   3.932
 9198WAT     H127836   3.387   1.798   4.022
 9198WAT     H227837   3.468   1.821   3.882
 9199WAT      O27838   2.176   3.335   2.653
 9199WAT     H127839   2.185   3.240   2.622
 9199WAT     H227840   2.090   3.345   2.703
 9200WAT      O27841   2.396   3.367   6.678
 9200WAT     H127842   2.425   3.296   6.613
 9200WAT     H227843   2.387   3.454   6.631
 9201WAT      O27844   4.312   4.847   6.391
 9201WAT     H127845   4.213   4.828   6.388
 9201WAT     H227846   4.359   4.785   6.329
 9202WAT      O27847   0.368   9.664   6.215
 9202WAT     H127848   0.389   9.609   6.296
 9202WAT     H227849   0.305   9.613   6.156
 9203WAT      O27850   0.623   1.577   5.595
 9203WAT     H127851   0.542   1.534   5.635
 9203WAT     H227852   0.649   1.527   5.511
 9204WAT      O27853   3.845   0.661   3.853
 9204WAT     H127854   3.902   0.741   3.835
 9204WAT     H227855   3.753   0.690   3.878
 9205WAT      O27856   5.195   4.583   8.246
 9205WAT     H127857   5.119   4.531   8.286
 9205WAT     H227858   5.255   4.616   8.319
 9206WAT      O27859   9.613   5.541   1.138
 9206WAT     H127860   9.566   5.510   1.055
 9206WAT     H227861   9.555   5.606   1.187
 9207WAT      O27862   6.663   5.129   5.627
 9207WAT     H127863   6.702   5.111   5.718
 9207WAT     H227864   6.728   5.180   5.572
 9208WAT      O27865   2.801   3.719   2.148
 9208WAT     H127866   2.818   3.813   2.179
 9208WAT     H227867   2.862   3.698   2.071
 9209WAT      O27868   3.574   6.268   7.772
 9209WAT     H127869   3.657   6.212   7.774
 9209WAT     H227870   3.531   6.260   7.682
 9210WAT      O27871   3.536   1.451   4.581
 9210WAT     H127872   3.529   1.351   4.574
 9210WAT     H227873   3.589   1.486   4.504
 9211WAT      O27874   4.457   6.949   3.938
 9211WAT     H127875   4.504   6.861   3.953
 9211WAT     H227876   4.368   6.947   3.982
 9212WAT      O27877   4.508   0.384   2.768
 9212WAT     H127878   4.534   0.443   2.692
 9212WAT     H227879   4.521   0.433   2.854
 9213WAT      O27880   0.816   9.048   9.850
 9213WAT     H127881   0.798   8.990   9.771
 9213WAT     H227882   0.730   9.079   9.890
 9214WAT      O27883   3.083   1.969   8.292
 9214WAT     H127884   3.102   1.985   8.389
 9214WAT     H227885   3.169   1.971   8.241
 9215WAT      O27886   1.674   2.877   0.260
 9215WAT     H127887   1.656   2.933   0.341
 9215WAT     H227888   1.704   2.935   0.185
 9216WAT      O27889   1.258   6.164   6.012
 9216WAT     H127890   1.271   6.110   6.096
 9216WAT     H227891   1.247   6.260   6.036
 9217WAT      O27892   9.227   3.237   6.068
 9217WAT     H127893   9.193   3.146   6.046
 9217WAT     H227894   9.321   3.247   6.035
 9218WAT      O27895   3.854   9.439   5.257
 9218WAT     H127896   3.927   9.481   5.311
 9218WAT     H227897   3.890   9.362   5.206
 9219WAT      O27898   1.685   7.454   5.795
 9219WAT     H127899   1.686   7.354   5.800
 9219WAT     H227900   1.592   7.487   5.811
 9220WAT      O27901   2.060   4.342   7.045
 9220WAT     H127902   2.001   4.390   7.111
 9220WAT     H227903   2.151   4.384   7.045
 9221WAT      O27904   9.274   5.731   9.652
 9221WAT     H127905   9.274   5.790   9.571
 9221WAT     H227906   9.314   5.781   9.729
 9222WAT      O27907   1.390   9.576   1.997
 9222WAT     H127908   1.333   9.498   2.022
 9222WAT     H227909   1.470   9.544   1.947
 9223WAT      O27910   7.627   0.894   3.801
 9223WAT     H127911   7.638   0.882   3.703
 9223WAT     H227912   7.533   0.924   3.821
 9224WAT      O27913   1.075   4.306   4.291
 9224WAT     H127914   0.976   4.293   4.279
 9224WAT     H227915   1.115   4.225   4.334
 9225WAT      O27916   2.917   3.117   5.251
 9225WAT     H127917   2.890   3.034   5.201
 9225WAT     H227918   2.916   3.195   5.189
 9226WAT      O27919   0.869   4.235   6.176
 9226WAT     H127920   0.867   4.144   6.217
 9226WAT     H227921   0.947   4.242   6.114
 9227WAT      O27922   2.143   7.939   1.050
 9227WAT     H127923   2.128   8.038   1.048
 9227WAT     H227924   2.214   7.918   1.117
 9228WAT      O27925   3.417   8.974   2.034
 9228WAT     H127926   3.335   8.918   2.019
 9228WAT     H227927   3.446   8.966   2.129
 9229WAT      O27928   4.525   3.380   1.475
 9229WAT     H127929   4.587   3.302   1.471
 9229WAT     H227930   4.579   3.465   1.467
 9230WAT      O27931   1.492   2.394   5.928
 9230WAT     H127932   1.545   2.371   5.846
 9230WAT     H227933   1.395   2.396   5.905
 9231WAT      O27934   5.808   7.206   3.306
 9231WAT     H127935   5.899   7.164   3.306
 9231WAT     H227936   5.798   7.264   3.387
 9232WAT      O27937   8.903   3.430   1.158
 9232WAT     H127938   8.880   3.466   1.248
 9232WAT     H227939   8.964   3.493   1.110
 9233WAT      O27940   6.503   6.545   0.376
 9233WAT     H127941   6.441   6.554   0.454
 9233WAT     H227942   6.598   6.544   0.408
 9234WAT      O27943   9.128   5.428   9.571
 9234WAT     H127944   9.178   5.378   9.501
 9234WAT     H227945   9.072   5.499   9.528
 9235WAT      O27946   0.367   1.328   6.193
 9235WAT     H127947   0.391   1.313   6.097
 9235WAT     H227948   0.312   1.251   6.226
 9236WAT      O27949   4.349   9.841   5.241
 9236WAT     H127950   4.386   9.926   5.205
 9236WAT     H227951   4.420   9.794   5.295
 9237WAT      O27952   3.021   6.356   4.570
 9237WAT     H127953   2.947   6.379   4.506
 9237WAT     H227954   3.033   6.430   4.635
 9238WAT      O27955   3.621   6.344   9.767
 9238WAT     H127956   3.672   6.278   9.712
 9238WAT     H227957   3.679   6.423   9.786
 9239WAT      O27958   1.027   7.560   6.852
 9239WAT     H127959   1.084   7.618   6.910
 9239WAT     H227960   0.945   7.611   6.824
 9240WAT      O27961   8.261   0.304   2.015
 9240WAT     H127962   8.189   0.243   1.983
 9240WAT     H227963   8.345   0.252   2.028
 9241WAT      O27964   4.456   7.131   1.679
 9241WAT     H127965   4.362   7.099   1.684
 9241WAT     H227966   4.469   7.209   1.741
 9242WAT      O27967   6.978   1.327   5.124
 9242WAT     H127968   7.022   1.237   5.119
 9242WAT     H227969   6.954   1.357   5.032
 9243WAT      O27970   3.541   8.639   7.245
 9243WAT     H127971   3.504   8.618   7.335
 9243WAT     H227972   3.475   8.693   7.193
 9244WAT      O27973   2.024   4.852   0.881
 9244WAT     H127974   1.975   4.790   0.942
 9244WAT     H227975   1.980   4.851   0.791
 9245WAT      O27976   3.602   4.451   2.338
 9245WAT     H127977   3.523   4.465   2.398
 9245WAT     H227978   3.572   4.451   2.243
 9246WAT      O27979   3.047   8.972   9.036
 9246WAT     H127980   3.088   9.064   9.037
 9246WAT     H227981   3.081   8.920   9.114
 9247WAT      O27982   0.198   7.906   8.010
 9247WAT     H127983   0.192   7.818   7.961
 9247WAT     H227984   0.284   7.909   8.061
 9248WAT      O27985   2.452   4.601   5.633
 9248WAT     H127986   2.414   4.645   5.714
 9248WAT     H227987   2.486   4.510   5.657
 9249WAT      O27988   1.539   5.193   0.347
 9249WAT     H127989   1.623   5.194   0.294
 9249WAT     H227990   1.538   5.112   0.406
 9250WAT      O27991   6.538   5.142   9.421
 9250WAT     H127992   6.587   5.224   9.391
 9250WAT     H227993   6.508   5.090   9.341
 9251WAT      O27994   8.501   0.334   3.224
 9251WAT     H127995   8.414   0.284   3.222
 9251WAT     H227996   8.496   0.413   3.163
 9252WAT      O27997   3.651   1.586   7.635
 9252WAT     H127998   3.564   1.632   7.652
 9252WAT     H227999   3.663   1.575   7.536
 9253WAT      O28000   3.691   1.329   2.166
 9253WAT     H128001   3.621   1.292   2.227
 9253WAT     H228002   3.767   1.365   2.221
 9254WAT      O28003   7.196   5.509   3.450
 9254WAT     H128004   7.166   5.602   3.470
 9254WAT     H228005   7.255   5.476   3.523
 9255WAT      O28006   3.475   3.345   9.424
 9255WAT     H128007   3.478   3.245   9.429
 9255WAT     H228008   3.568   3.382   9.426
 9256WAT      O28009   3.702   5.705   2.020
 9256WAT     H128010   3.645   5.632   1.982
 9256WAT     H228011   3.671   5.793   1.982
 9257WAT      O28012   9.380   8.317   8.862
 9257WAT     H128013   9.379   8.414   8.840
 9257WAT     H228014   9.468   8.294   8.905
 9258WAT      O28015   9.479   0.929   9.366
 9258WAT     H128016   9.553   0.873   9.402
 9258WAT     H228017   9.392   0.898   9.403
 9259WAT      O28018   2.487   4.663   0.109
 9259WAT     H128019   2.408   4.669   0.170
 9259WAT     H228020   2.569   4.693   0.158
 9260WAT      O28021   4.071   7.881   9.662
 9260WAT     H128022   3.974   7.862   9.646
 9260WAT     H228023   4.086   7.897   9.759
 9261WAT      O28024   7.362   5.607   1.143
 9261WAT     H128025   7.421   5.549   1.087
 9261WAT     H228026   7.276   5.560   1.161
 9262WAT      O28027   1.331   5.057   4.638
 9262WAT     H128028   1.237   5.083   4.660
 9262WAT     H228029   1.393   5.090   4.708
 9263WAT      O28030   5.959   1.052   7.148
 9263WAT     H128031   5.878   1.005   7.114
 9263WAT     H228032   5.988   1.010   7.234
 9264WAT      O28033   1.625   1.120   7.443
 9264WAT     H128034   1.686   1.142   7.368
 9264WAT     H228035   1.671   1.060   7.508
 9265WAT      O28036   1.332   0.941   2.765
 9265WAT     H128037   1.424   0.981   2.770
 9265WAT     H228038   1.264   1.014   2.761
 9266WAT      O28039   2.367   8.441   2.569
 9266WAT     H128040   2.299   8.420   2.498
 9266WAT     H228041   2.355   8.535   2.600
 9267WAT      O28042   9.441   5.412   3.048
 9267WAT     H128043   9.512   5.415   3.118
 9267WAT     H228044   9.351   5.420   3.091
 9268WAT      O28045   5.690   5.662   3.132
 9268WAT     H128046   5.632   5.729   3.180
 9268WAT     H228047   5.737   5.708   3.056
 9269WAT      O28048   4.598   4.354   0.487
 9269WAT     H128049   4.634   4.330   0.577
 9269WAT     H228050   4.648   4.431   0.449
 9270WAT      O28051   9.774   8.010   2.614
 9270WAT     H128052   9.725   7.934   2.655
 9270WAT     H228053   9.819   7.980   2.530
 9271WAT      O28054   7.747   1.530   0.587
 9271WAT     H128055   7.812   1.509   0.660
 9271WAT     H228056   7.797   1.559   0.506
 9272WAT      O28057   2.136   0.561   8.897
 9272WAT     H128058   2.205   0.513   8.842
 9272WAT     H228059   2.048   0.516   8.886
 9273WAT      O28060   1.008   9.039   7.880
 9273WAT     H128061   0.992   8.957   7.935
 9273WAT     H228062   0.941   9.109   7.904
 9274WAT      O28063   6.777   1.543   1.805
 9274WAT     H128064   6.812   1.580   1.719
 9274WAT     H228065   6.842   1.477   1.842
 9275WAT      O28066   4.658   3.045   2.922
 9275WAT     H128067   4.616   3.001   3.001
 9275WAT     H228068   4.750   3.008   2.908
 9276WAT      O28069   2.040   2.960   6.960
 9276WAT     H128070   2.074   2.978   6.868
 9276WAT     H228071   1.950   3.002   6.971
 9277WAT      O28072   0.694   8.859   8.373
 9277WAT     H128073   0.635   8.793   8.326
 9277WAT     H228074   0.760   8.811   8.429
 9278WAT      O28075   3.281   1.438   6.923
 9278WAT     H128076   3.231   1.356   6.897
 9278WAT     H228077   3.282   1.446   7.023
 9279WAT      O28078   7.914   5.352   1.561
 9279WAT     H128079   7.877   5.443   1.581
 9279WAT     H228080   7.863   5.310   1.486
 9280WAT      O28081   3.216   6.486   4.892
 9280WAT     H128082   3.272   6.406   4.870
 9280WAT     H228083   3.127   6.477   4.848
 9281WAT      O28084   7.713   7.152   7.355
 9281WAT     H128085   7.702   7.219   7.428
 9281WAT     H228086   7.793   7.175   7.299
 9282WAT      O28087   1.414   3.576   0.469
 9282WAT     H128088   1.354   3.655   0.482
 9282WAT     H228089   1.415   3.551   0.372
 9283WAT      O28090   3.013   7.841   8.554
 9283WAT     H128091   3.084   7.834   8.624
 9283WAT     H228092   2.951   7.764   8.561
 9284WAT      O28093   6.100   2.015   2.831
 9284WAT     H128094   6.152   1.970   2.759
 9284WAT     H228095   6.063   2.101   2.797
 9285WAT      O28096   3.741   9.831   4.785
 9285WAT     H128097   3.823   9.774   4.798
 9285WAT     H228098   3.769   9.920   4.747
 9286WAT      O28099   4.582   2.513   3.552
 9286WAT     H128100   4.654   2.547   3.491
 9286WAT     H228101   4.609   2.425   3.590
 9287WAT      O28102   1.253   8.826   3.150
 9287WAT     H128103   1.171   8.882   3.140
 9287WAT     H228104   1.315   8.870   3.215
 9288WAT      O28105   9.017   0.409   8.203
 9288WAT     H128106   9.092   0.393   8.268
 9288WAT     H228107   8.975   0.498   8.223
 9289WAT      O28108   5.950   4.194   8.412
 9289WAT     H128109   5.904   4.153   8.333
 9289WAT     H228110   6.048   4.181   8.404
 9290WAT      O28111   5.092   1.204   1.826
 9290WAT     H128112   5.062   1.139   1.756
 9290WAT     H228113   5.160   1.265   1.787
 9291WAT      O28114   1.107   6.341   3.548
 9291WAT     H128115   1.017   6.377   3.568
 9291WAT     H228116   1.107   6.242   3.558
 9292WAT      O28117   7.792   1.648   6.672
 9292WAT     H128118   7.761   1.665   6.578
 9292WAT     H228119   7.892   1.640   6.673
 9293WAT      O28120   9.394   8.811   8.363
 9293WAT     H128121   9.350   8.734   8.409
 9293WAT     H228122   9.324   8.877   8.334
 9294WAT      O28123   6.910   5.785   4.322
 9294WAT     H128124   6.961   5.786   4.236
 9294WAT     H228125   6.816   5.813   4.305
 9295WAT      O28126   9.109   0.874   7.767
 9295WAT     H128127   9.146   0.908   7.854
 9295WAT     H228128   9.038   0.936   7.734
 9296WAT      O28129   1.671   8.601   5.984
 9296WAT     H128130   1.572   8.609   5.990
 9296WAT     H228131   1.699   8.510   6.015
 9297WAT      O28132   6.429   0.756   7.841
 9297WAT     H128133   6.339   0.767   7.797
 9297WAT     H228134   6.429   0.803   7.929
 9298WAT      O28135   0.327   2.624   4.618
 9298WAT     H128136   0.303   2.531   4.648
 9298WAT     H228137   0.247   2.669   4.580
 9299WAT      O28138   8.186   8.984   1.920
 9299WAT     H128139   8.268   8.965   1.975
 9299WAT     H228140   8.106   8.989   1.980
 9300WAT      O28141   1.522   3.436   2.509
 9300WAT     H128142   1.535   3.505   2.581
 9300WAT     H228143   1.519   3.482   2.420
 9301WAT      O28144   0.055   7.639   2.785
 9301WAT     H128145  -0.039   7.605   2.788
 9301WAT     H228146   0.114   7.571   2.740
 9302WAT      O28147   4.217   6.471   9.038
 9302WAT     H128148   4.193   6.568   9.040
 9302WAT     H228149   4.150   6.419   9.092
 9303WAT      O28150   2.245   2.003   2.560
 9303WAT     H128151   2.281   1.932   2.620
 9303WAT     H228152   2.145   1.998   2.558
 9304WAT      O28153   4.581   4.535   0.913
 9304WAT     H128154   4.486   4.546   0.942
 9304WAT     H228155   4.642   4.568   0.985
 9305WAT      O28156   8.421   4.804   3.427
 9305WAT     H128157   8.395   4.713   3.458
 9305WAT     H228158   8.360   4.832   3.352
 9306WAT      O28159   9.698   0.277   1.926
 9306WAT     H128160   9.747   0.191   1.912
 9306WAT     H228161   9.757   0.354   1.901
 9307WAT      O28162   6.104   7.517   2.771
 9307WAT     H128163   6.076   7.436   2.721
 9307WAT     H228164   6.179   7.494   2.833
 9308WAT      O28165   3.218   7.960   7.843
 9308WAT     H128166   3.234   7.888   7.911
 9308WAT     H228167   3.222   8.049   7.887
 9309WAT      O28168   7.542   8.102   4.170
 9309WAT     H128169   7.612   8.147   4.226
 9309WAT     H228170   7.451   8.126   4.204
 9310WAT      O28171   6.239   1.951   6.399
 9310WAT     H128172   6.159   1.903   6.436
 9310WAT     H228173   6.292   1.991   6.474
 9311WAT      O28174   4.614   5.025   8.603
 9311WAT     H128175   4.553   4.985   8.671
 9311WAT     H228176   4.617   4.967   8.522
 9312WAT      O28177   2.973   4.859   5.617
 9312WAT     H128178   2.959   4.766   5.652
 9312WAT     H228179   2.915   4.875   5.538
 9313WAT      O28180   0.908   5.689   0.102
 9313WAT     H128181   0.872   5.781   0.120
 9313WAT     H228182   0.895   5.632   0.183
 9314WAT      O28183   4.639   8.600   4.567
 9314WAT     H128184   4.543   8.621   4.552
 9314WAT     H228185   4.677   8.662   4.635
 9315WAT      O28186   9.249   7.399   5.199
 9315WAT     H128187   9.260   7.497   5.215
 9315WAT     H228188   9.185   7.385   5.123
 9316WAT      O28189   5.322   2.624   8.325
 9316WAT     H128190   5.367   2.692   8.381
 9316WAT     H228191   5.236   2.597   8.367
 9317WAT      O28192   8.347   2.689   7.929
 9317WAT     H128193   8.315   2.702   7.836
 9317WAT     H228194   8.337   2.774   7.981
 9318WAT      O28195   9.507   5.273   0.128
 9318WAT     H128196   9.526   5.365   0.094
 9318WAT     H228197   9.414   5.269   0.164
 9319WAT      O28198   1.421   5.066   7.815
 9319WAT     H128199   1.336   5.067   7.868
 9319WAT     H228200   1.400   5.077   7.717
 9320WAT      O28201   6.026   2.682   7.497
 9320WAT     H128202   6.027   2.616   7.572
 9320WAT     H228203   6.028   2.775   7.535
 9321WAT      O28204   7.425   6.403   6.571
 9321WAT     H128205   7.439   6.333   6.501
 9321WAT     H228206   7.417   6.492   6.526
 9322WAT      O28207   7.590   9.066   8.710
 9322WAT     H128208   7.609   8.992   8.774
 9322WAT     H228209   7.676   9.097   8.669
 9323WAT      O28210   5.916   1.797   2.898
 9323WAT     H128211   5.978   1.722   2.924
 9323WAT     H228212   5.970   1.874   2.864
 9324WAT      O28213   9.516   2.676   8.867
 9324WAT     H128214   9.590   2.744   8.866
 9324WAT     H228215   9.480   2.666   8.774
 9325WAT      O28216   1.244   9.809   8.392
 9325WAT     H128217   1.299   9.734   8.354
 9325WAT     H228218   1.158   9.816   8.342
 9326WAT      O28219   6.500   0.721   0.365
 9326WAT     H128220   6.592   0.721   0.403
 9326WAT     H228221   6.453   0.806   0.390
 9327WAT      O28222   5.733   0.281   9.870
 9327WAT     H128223   5.738   0.249   9.965
 9327WAT     H228224   5.702   0.376   9.869
 9328WAT      O28225   8.757   5.278   4.968
 9328WAT     H128226   8.767   5.189   4.924
 9328WAT     H228227   8.668   5.283   5.014
 9329WAT      O28228   8.377   1.433   5.365
 9329WAT     H128229   8.335   1.495   5.298
 9329WAT     H228230   8.467   1.469   5.391
 9330WAT      O28231   6.464   6.831   2.872
 9330WAT     H128232   6.550   6.870   2.841
 9330WAT     H228233   6.419   6.784   2.796
 9331WAT      O28234   5.257   9.127   2.483
 9331WAT     H128235   5.182   9.092   2.427
 9331WAT     H228236   5.227   9.138   2.577
 9332WAT      O28237   4.436   7.243   8.269
 9332WAT     H128238   4.390   7.174   8.214
 9332WAT     H228239   4.455   7.323   8.213
 9333WAT      O28240   3.956   6.836   3.393
 9333WAT     H128241   3.993   6.903   3.457
 9333WAT     H228242   3.887   6.879   3.336
 9334WAT      O28243   0.215   5.929   9.176
 9334WAT     H128244   0.310   5.902   9.165
 9334WAT     H228245   0.156   5.850   9.162
 9335WAT      O28246   6.604   3.440   8.213
 9335WAT     H128247   6.627   3.538   8.216
 9335WAT     H228248   6.543   3.418   8.289
 9336WAT      O28249   4.843   9.548   5.862
 9336WAT     H128250   4.858   9.455   5.896
 9336WAT     H228251   4.835   9.611   5.939
 9337WAT      O28252   7.321   5.760   9.463
 9337WAT     H128253   7.248   5.815   9.424
 9337WAT     H228254   7.302   5.743   9.560
 9338WAT      O28255   5.807   2.392   2.895
 9338WAT     H128256   5.764   2.433   2.814
 9338WAT     H228257   5.808   2.458   2.969
 9339WAT      O28258   4.676   0.211   5.426
 9339WAT     H128259   4.757   0.153   5.413
 9339WAT     H228260   4.659   0.264   5.343
 9340WAT      O28261   7.860   7.999   7.604
 9340WAT     H128262   7.860   8.089   7.560
 9340WAT     H228263   7.767   7.963   7.606
 9341WAT      O28264   2.007   3.392   8.213
 9341WAT     H128265   2.052   3.348   8.291
 9341WAT     H228266   1.937   3.455   8.247
 9342WAT      O28267   1.997   6.763   3.408
 9342WAT     H128268   1.988   6.761   3.508
 9342WAT     H228269   2.078   6.711   3.381
 9343WAT      O28270   8.803   9.554   2.103
 9343WAT     H128271   8.892   9.571   2.060
 9343WAT     H228272   8.780   9.631   2.163
 9344WAT      O28273   1.450   9.475   4.563
 9344WAT     H128274   1.396   9.558   4.548
 9344WAT     H228275   1.545   9.493   4.540
 9345WAT      O28276   0.858   0.596   4.179
 9345WAT     H128277   0.914   0.671   4.143
 9345WAT     H228278   0.918   0.525   4.216
 9346WAT      O28279   3.254   2.453   5.435
 9346WAT     H128280   3.340   2.486   5.473
 9346WAT     H228281   3.222   2.517   5.365
 9347WAT      O28282   5.155   0.257   8.436
 9347WAT     H128283   5.248   0.288   8.457
 9347WAT     H228284   5.147   0.160   8.460
 9348WAT      O28285   7.079   7.953   9.287
 9348WAT     H128286   7.049   7.885   9.220
 9348WAT     H228287   7.003   8.013   9.310
 9349WAT      O28288   5.336   3.860   7.431
 9349WAT     H128289   5.375   3.951   7.419
 9349WAT     H228290   5.254   3.851   7.373
 9350WAT      O28291   4.293   4.143   9.480
 9350WAT     H128292   4.228   4.182   9.414
 9350WAT     H228293   4.326   4.216   9.541
 9351WAT      O28294   1.793   5.146   9.484
 9351WAT     H128295   1.795   5.238   9.447
 9351WAT     H228296   1.819   5.148   9.581
 9352WAT      O28297   9.280   0.401   1.607
 9352WAT     H128298   9.183   0.379   1.615
 9352WAT     H228299   9.330   0.362   1.684
 9353WAT      O28300   4.765   7.146   3.354
 9353WAT     H128301   4.779   7.081   3.280
 9353WAT     H228302   4.834   7.131   3.425
 9354WAT      O28303   5.573   2.162   2.519
 9354WAT     H128304   5.521   2.123   2.444
 9354WAT     H228305   5.598   2.256   2.497
 9355WAT      O28306   7.302   1.196   5.741
 9355WAT     H128307   7.380   1.193   5.679
 9355WAT     H228308   7.269   1.103   5.758
 9356WAT      O28309   7.475   2.896   0.557
 9356WAT     H128310   7.546   2.829   0.535
 9356WAT     H228311   7.488   2.931   0.649
 9357WAT      O28312   6.154   2.263   8.644
 9357WAT     H128313   6.231   2.299   8.698
 9357WAT     H228314   6.074   2.255   8.703
 9358WAT      O28315   1.748   5.799   8.257
 9358WAT     H128316   1.680   5.787   8.185
 9358WAT     H228317   1.818   5.863   8.226
 9359WAT      O28318   8.292   4.052   8.494
 9359WAT     H128319   8.260   4.035   8.401
 9359WAT     H228320   8.231   4.117   8.539
 9360WAT      O28321   9.140   0.690   1.428
 9360WAT     H128322   9.159   0.786   1.447
 9360WAT     H228323   9.042   0.678   1.412
 9361WAT      O28324   1.885   9.210   5.882
 9361WAT     H128325   1.878   9.152   5.800
 9361WAT     H228326   1.972   9.260   5.879
 9362WAT      O28327   6.995   6.558   6.381
 9362WAT     H128328   6.900   6.554   6.348
 9362WAT     H228329   7.000   6.518   6.472
 9363WAT      O28330   5.533   9.387   4.552
 9363WAT     H128331   5.468   9.413   4.624
 9363WAT     H228332   5.500   9.304   4.506
 9364WAT      O28333   6.242   4.850   1.557
 9364WAT     H128334   6.257   4.751   1.561
 9364WAT     H228335   6.240   4.887   1.649
 9365WAT      O28336   3.689   9.146   7.343
 9365WAT     H128337   3.598   9.185   7.354
 9365WAT     H228338   3.682   9.048   7.327
 9366WAT      O28339   4.948   7.465   6.440
 9366WAT     H128340   4.980   7.515   6.520
 9366WAT     H228341   5.024   7.449   6.377
 9367WAT      O28342   4.815   9.345   5.559
 9367WAT     H128343   4.795   9.443   5.566
 9367WAT     H228344   4.772   9.307   5.477
 9368WAT      O28345   5.077   7.834   1.759
 9368WAT     H128346   5.016   7.862   1.833
 9368WAT     H228347   5.165   7.880   1.768
 9369WAT      O28348   4.073   5.182   0.548
 9369WAT     H128349   4.160   5.186   0.597
 9369WAT     H228350   4.024   5.268   0.561
 9370WAT      O28351   5.446   7.905   9.644
 9370WAT     H128352   5.422   7.891   9.548
 9370WAT     H228353   5.380   7.968   9.686
 9371WAT      O28354   9.124   5.070   9.108
 9371WAT     H128355   9.134   5.161   9.149
 9371WAT     H228356   9.141   5.000   9.178
 9372WAT      O28357   0.646   1.840   3.248
 9372WAT     H128358   0.700   1.899   3.188
 9372WAT     H228359   0.704   1.807   3.323
 9373WAT      O28360   7.456   1.439   2.514
 9373WAT     H128361   7.537   1.380   2.514
 9373WAT     H228362   7.429   1.459   2.609
 9374WAT      O28363   2.437   5.624   2.469
 9374WAT     H128364   2.419   5.619   2.568
 9374WAT     H228365   2.522   5.574   2.449
 9375WAT      O28366   0.940   8.237   9.715
 9375WAT     H128367   1.021   8.285   9.749
 9375WAT     H228368   0.937   8.145   9.753
 9376WAT      O28369   2.614   9.255   8.381
 9376WAT     H128370   2.596   9.296   8.292
 9376WAT     H228371   2.567   9.167   8.388
 9377WAT      O28372   8.571   2.628   4.700
 9377WAT     H128373   8.560   2.594   4.607
 9377WAT     H228374   8.648   2.693   4.702
 9378WAT      O28375   3.945   9.137   6.590
 9378WAT     H128376   3.904   9.170   6.505
 9378WAT     H228377   4.029   9.188   6.609
 9379WAT      O28378   8.216   2.482   7.597
 9379WAT     H128379   8.229   2.398   7.650
 9379WAT     H228380   8.305   2.521   7.574
 9380WAT      O28381   0.610   8.725   0.723
 9380WAT     H128382   0.689   8.784   0.710
 9380WAT     H228383   0.601   8.663   0.644
 9381WAT      O28384   4.712   1.458   0.773
 9381WAT     H128385   4.722   1.552   0.806
 9381WAT     H228386   4.761   1.448   0.687
 9382WAT      O28387   3.205   7.523   2.067
 9382WAT     H128388   3.258   7.608   2.077
 9382WAT     H228389   3.128   7.539   2.006
 9383WAT      O28390   0.452   2.564   2.572
 9383WAT     H128391   0.501   2.633   2.624
 9383WAT     H228392   0.444   2.594   2.477
 9384WAT      O28393   6.502   1.388   8.846
 9384WAT     H128394   6.592   1.422   8.873
 9384WAT     H228395   6.494   1.387   8.747
 9385WAT      O28396   1.560   1.417   5.429
 9385WAT     H128397   1.524   1.447   5.517
 9385WAT     H228398   1.621   1.486   5.392
 9386WAT      O28399   8.057   0.221   0.508
 9386WAT     H128400   8.052   0.180   0.417
 9386WAT     H228401   8.008   0.163   0.573
 9387WAT      O28402   8.041   1.114   4.355
 9387WAT     H128403   8.120   1.068   4.395
 9387WAT     H228404   8.048   1.112   4.255
 9388WAT      O28405   0.165   4.127   5.895
 9388WAT     H128406   0.081   4.155   5.940
 9388WAT     H228407   0.244   4.167   5.942
 9389WAT      O28408   1.628   4.253   3.485
 9389WAT     H128409   1.719   4.293   3.495
 9389WAT     H228410   1.579   4.258   3.572
 9390WAT      O28411   7.151   7.035   6.111
 9390WAT     H128412   7.248   7.009   6.114
 9390WAT     H228413   7.144   7.133   6.091
 9391WAT      O28414   2.368   0.506   0.454
 9391WAT     H128415   2.367   0.501   0.354
 9391WAT     H228416   2.456   0.472   0.487
 9392WAT      O28417   1.478   8.173   0.780
 9392WAT     H128418   1.406   8.137   0.720
 9392WAT     H228419   1.439   8.242   0.841
 9393WAT      O28420   5.553   3.920   0.737
 9393WAT     H128421   5.608   3.850   0.781
 9393WAT     H228422   5.501   3.879   0.661
 9394WAT      O28423   7.436   1.822   8.227
 9394WAT     H128424   7.524   1.856   8.258
 9394WAT     H228425   7.432   1.824   8.127
 9395WAT      O28426   4.015   8.871   0.431
 9395WAT     H128427   4.007   8.773   0.450
 9395WAT     H228428   3.962   8.923   0.498
 9396WAT      O28429   8.146   5.112   8.399
 9396WAT     H128430   8.158   5.199   8.446
 9396WAT     H228431   8.168   5.122   8.302
 9397WAT      O28432   0.985   6.425   8.597
 9397WAT     H128433   0.989   6.415   8.497
 9397WAT     H228434   0.995   6.521   8.621
 9398WAT      O28435   6.158   0.253   9.670
 9398WAT     H128436   6.223   0.322   9.701
 9398WAT     H228437   6.208   0.168   9.651
 9399WAT      O28438   8.234   9.705   3.002
 9399WAT     H128439   8.225   9.702   2.902
 9399WAT     H228440   8.168   9.642   3.043
 9400WAT      O28441   0.990   5.773   8.305
 9400WAT     H128442   0.954   5.680   8.313
 9400WAT     H228443   1.076   5.780   8.357
 9401WAT      O28444   0.072   2.733   4.566
 9401WAT     H128445  -0.021   2.695   4.573
 9401WAT     H228446   0.089   2.794   4.643
 9402WAT      O28447   8.167   4.805   6.573
 9402WAT     H128448   8.116   4.757   6.645
 9402WAT     H228449   8.105   4.867   6.524
 9403WAT      O28450   5.032   8.700   0.837
 9403WAT     H128451   5.001   8.668   0.747
 9403WAT     H228452   4.956   8.695   0.902
 9404WAT      O28453   1.915   2.973   8.033
 9404WAT     H128454   1.842   2.941   7.972
 9404WAT     H228455   1.902   3.070   8.052
 9405WAT      O28456   8.357   2.384   2.445
 9405WAT     H128457   8.295   2.451   2.401
 9405WAT     H228458   8.448   2.391   2.404
 9406WAT      O28459   9.527   5.806   1.944
 9406WAT     H128460   9.605   5.757   1.982
 9406WAT     H228461   9.517   5.893   1.991
 9407WAT      O28462   5.001   8.110   4.626
 9407WAT     H128463   4.927   8.057   4.667
 9407WAT     H228464   5.015   8.079   4.532
 9408WAT      O28465   6.106   5.660   7.644
 9408WAT     H128466   6.102   5.594   7.719
 9408WAT     H228467   6.084   5.751   7.679
 9409WAT      O28468   6.658   2.884   3.740
 9409WAT     H128469   6.679   2.898   3.643
 9409WAT     H228470   6.655   2.786   3.760
 9410WAT      O28471   1.817   5.498   8.184
 9410WAT     H128472   1.794   5.488   8.087
 9410WAT     H228473   1.788   5.588   8.215
 9411WAT      O28474   2.970   7.973   0.842
 9411WAT     H128475   2.896   7.905   0.844
 9411WAT     H228476   2.953   8.038   0.768
 9412WAT      O28477   5.884   9.482   4.779
 9412WAT     H128478   5.920   9.574   4.765
 9412WAT     H228479   5.847   9.447   4.693
 9413WAT      O28480   6.196   4.777   0.233
 9413WAT     H128481   6.131   4.779   0.309
 9413WAT     H228482   6.154   4.734   0.153
 9414WAT      O28483   4.116   6.431   3.849
 9414WAT     H128484   4.140   6.520   3.809
 9414WAT     H228485   4.035   6.442   3.906
 9415WAT      O28486   4.560   7.693   7.527
 9415WAT     H128487   4.520   7.601   7.523
 9415WAT     H228488   4.629   7.701   7.455
 9416WAT      O28489   7.018   0.146   3.603
 9416WAT     H128490   7.096   0.164   3.543
 9416WAT     H228491   6.983   0.232   3.638
 9417WAT      O28492   6.745   6.372   5.795
 9417WAT     H128493   6.669   6.412   5.846
 9417WAT     H228494   6.780   6.292   5.845
 9418WAT      O28495   3.840   2.093   4.824
 9418WAT     H128496   3.809   2.163   4.760
 9418WAT     H228497   3.870   2.136   4.909
 9419WAT      O28498   0.249   5.312   9.840
 9419WAT     H128499   0.320   5.382   9.839
 9419WAT     H228500   0.166   5.348   9.796
 9420WAT      O28501   6.668   3.332   6.195
 9420WAT     H128502   6.640   3.272   6.120
 9420WAT     H228503   6.759   3.368   6.177
 9421WAT      O28504   1.380   2.684   5.968
 9421WAT     H128505   1.310   2.729   5.913
 9421WAT     H228506   1.365   2.585   5.966
 9422WAT      O28507   1.900   3.233   1.283
 9422WAT     H128508   1.998   3.220   1.272
 9422WAT     H228509   1.852   3.154   1.243
 9423WAT      O28510   1.194   5.505   3.074
 9423WAT     H128511   1.276   5.562   3.075
 9423WAT     H228512   1.201   5.436   3.145
 9424WAT      O28513   1.027   1.675   0.814
 9424WAT     H128514   0.949   1.627   0.773
 9424WAT     H228515   1.106   1.668   0.753
 9425WAT      O28516   6.948   7.281   6.438
 9425WAT     H128517   7.023   7.304   6.500
 9425WAT     H228518   6.958   7.187   6.407
 9426WAT      O28519   5.752   1.684   8.035
 9426WAT     H128520   5.775   1.597   8.079
 9426WAT     H228521   5.708   1.665   7.947
 9427WAT      O28522   0.186   4.253   4.408
 9427WAT     H128523   0.172   4.213   4.318
 9427WAT     H228524   0.188   4.353   4.400
 9428WAT      O28525   5.462   8.030   7.584
 9428WAT     H128526   5.537   8.093   7.567
 9428WAT     H228527   5.467   7.996   7.678
 9429WAT      O28528   6.808   8.991   9.376
 9429WAT     H128529   6.854   9.079   9.365
 9429WAT     H228530   6.751   8.973   9.296
 9430WAT      O28531   3.790   9.327   7.520
 9430WAT     H128532   3.793   9.291   7.614
 9430WAT     H228533   3.757   9.255   7.459
 9431WAT      O28534   7.965   8.879   3.350
 9431WAT     H128535   7.901   8.953   3.325
 9431WAT     H228536   7.913   8.798   3.375
 9432WAT      O28537   6.071   8.651   2.832
 9432WAT     H128538   6.071   8.593   2.751
 9432WAT     H228539   6.140   8.722   2.823
 9433WAT      O28540   1.512   1.343   2.707
 9433WAT     H128541   1.551   1.428   2.671
 9433WAT     H228542   1.434   1.365   2.766
 9434WAT      O28543   9.067   7.417   6.018
 9434WAT     H128544   9.155   7.379   6.045
 9434WAT     H228545   8.995   7.350   6.034
 9435WAT      O28546   9.062   6.552   5.186
 9435WAT     H128547   9.047   6.472   5.127
 9435WAT     H228548   9.132   6.530   5.254
 9436WAT      O28549   7.021   7.823   5.388
 9436WAT     H128550   6.971   7.891   5.335
 9436WAT     H228551   6.975   7.734   5.381
 9437WAT      O28552   3.588   9.102   8.684
 9437WAT     H128553   3.579   9.005   8.661
 9437WAT     H228554   3.574   9.157   8.602
 9438WAT      O28555   2.881   5.810   2.936
 9438WAT     H128556   2.936   5.831   2.855
 9438WAT     H228557   2.844   5.894   2.974
 9439WAT      O28558   0.011   8.324   6.618
 9439WAT     H128559   0.091   8.266   6.636
 9439WAT     H228560   0.036   8.396   6.552
 9440WAT      O28561   2.723   6.750   5.182
 9440WAT     H128562   2.776   6.738   5.267
 9440WAT     H228563   2.785   6.779   5.109
 9441WAT      O28564   9.078   5.939   6.818
 9441WAT     H128565   9.033   6.027   6.832
 9441WAT     H228566   9.164   5.938   6.869
 9442WAT      O28567   6.272   1.856   9.798
 9442WAT     H128568   6.194   1.822   9.850
 9442WAT     H228569   6.309   1.782   9.741
 9443WAT      O28570   6.914   7.565   9.697
 9443WAT     H128571   6.911   7.560   9.597
 9443WAT     H228572   6.936   7.658   9.725
 9444WAT      O28573   1.158   4.050   3.706
 9444WAT     H128574   1.153   4.011   3.797
 9444WAT     H228575   1.067   4.052   3.664
 9445WAT      O28576   3.105   5.712   6.544
 9445WAT     H128577   3.026   5.747   6.595
 9445WAT     H228578   3.088   5.617   6.518
 9446WAT      O28579   4.195   1.161   3.675
 9446WAT     H128580   4.259   1.200   3.741
 9446WAT     H228581   4.105   1.202   3.688
 9447WAT      O28582   9.155   6.089   7.749
 9447WAT     H128583   9.086   6.047   7.689
 9447WAT     H228584   9.133   6.069   7.844
 9448WAT      O28585   3.144   1.211   6.849
 9448WAT     H128586   3.071   1.154   6.809
 9448WAT     H228587   3.179   1.167   6.931
 9449WAT      O28588   5.814   1.314   2.910
 9449WAT     H128589   5.773   1.240   2.857
 9449WAT     H228590   5.913   1.313   2.898
 9450WAT      O28591   4.445   9.440   4.923
 9450WAT     H128592   4.474   9.501   4.849
 9450WAT     H228593   4.453   9.345   4.892
 9451WAT      O28594   5.618   2.171   7.929
 9451WAT     H128595   5.584   2.129   7.845
 9451WAT     H228596   5.703   2.125   7.957
 9452WAT      O28597   7.360   9.391   5.982
 9452WAT     H128598   7.369   9.488   5.958
 9452WAT     H228599   7.302   9.383   6.063
 9453WAT      O28600   7.319   8.812   7.801
 9453WAT     H128601   7.392   8.745   7.784
 9453WAT     H228602   7.246   8.800   7.734
 9454WAT      O28603   1.884   3.854   9.569
 9454WAT     H128604   1.925   3.919   9.505
 9454WAT     H228605   1.784   3.854   9.556
 9455WAT      O28606   4.579   2.843   6.886
 9455WAT     H128607   4.631   2.927   6.904
 9455WAT     H228608   4.486   2.853   6.921
 9456WAT      O28609   3.903   4.327   6.976
 9456WAT     H128610   3.888   4.372   7.064
 9456WAT     H228611   3.986   4.271   6.981
 9457WAT      O28612   7.550   6.413   0.507
 9457WAT     H128613   7.482   6.351   0.544
 9457WAT     H228614   7.627   6.361   0.472
 9458WAT      O28615   5.093   3.397   0.557
 9458WAT     H128616   5.049   3.397   0.468
 9458WAT     H228617   5.135   3.308   0.574
 9459WAT      O28618   2.006   3.634   6.463
 9459WAT     H128619   2.016   3.696   6.540
 9459WAT     H228620   1.960   3.681   6.388
 9460WAT      O28621   3.042   3.482   2.375
 9460WAT     H128622   2.951   3.518   2.353
 9460WAT     H228623   3.088   3.454   2.292
 9461WAT      O28624   5.720   6.262   3.505
 9461WAT     H128625   5.791   6.264   3.576
 9461WAT     H228626   5.732   6.340   3.444
 9462WAT      O28627   1.586   1.214   6.354
 9462WAT     H128628   1.614   1.199   6.259
 9462WAT     H228629   1.575   1.125   6.399
 9463WAT      O28630   5.525   1.863   0.950
 9463WAT     H128631   5.494   1.941   1.004
 9463WAT     H228632   5.617   1.882   0.915
 9464WAT      O28633   2.997   4.311   6.185
 9464WAT     H128634   2.923   4.342   6.245
 9464WAT     H228635   3.036   4.226   6.221
 9465WAT      O28636   5.705   6.774   3.797
 9465WAT     H128637   5.769   6.850   3.811
 9465WAT     H228638   5.721   6.704   3.867
 9466WAT      O28639   8.234   8.467   9.233
 9466WAT     H128640   8.175   8.475   9.153
 9466WAT     H228641   8.178   8.450   9.314
 9467WAT      O28642   9.426   1.897   2.753
 9467WAT     H128643   9.445   1.956   2.675
 9467WAT     H228644   9.484   1.815   2.748
 9468WAT      O28645   4.106   4.107   6.484
 9468WAT     H128646   4.179   4.132   6.548
 9468WAT     H228647   4.129   4.021   6.438
 9469WAT      O28648   2.435   8.603   8.144
 9469WAT     H128649   2.483   8.521   8.114
 9469WAT     H228650   2.429   8.668   8.069
 9470WAT      O28651   9.471   6.759   3.675
 9470WAT     H128652   9.410   6.798   3.607
 9470WAT     H228653   9.441   6.666   3.696
 9471WAT      O28654   1.239   7.898   7.786
 9471WAT     H128655   1.190   7.980   7.816
 9471WAT     H228656   1.255   7.903   7.688
 9472WAT      O28657   4.714   1.704   0.880
 9472WAT     H128658   4.761   1.780   0.924
 9472WAT     H228659   4.634   1.737   0.830
 9473WAT      O28660   9.297   7.917   3.911
 9473WAT     H128661   9.367   7.850   3.884
 9473WAT     H228662   9.210   7.893   3.867
 9474WAT      O28663   0.804   9.154   0.834
 9474WAT     H128664   0.774   9.119   0.923
 9474WAT     H228665   0.903   9.143   0.826
 9475WAT      O28666   0.541   3.377   8.611
 9475WAT     H128667   0.584   3.417   8.692
 9475WAT     H228668   0.472   3.440   8.575
 9476WAT      O28669   8.488   1.219   0.568
 9476WAT     H128670   8.454   1.280   0.497
 9476WAT     H228671   8.478   1.124   0.538
 9477WAT      O28672   1.850   5.199   8.047
 9477WAT     H128673   1.880   5.103   8.039
 9477WAT     H228674   1.759   5.209   8.007
 9478WAT      O28675   5.678   2.295   0.878
 9478WAT     H128676   5.770   2.327   0.903
 9478WAT     H228677   5.610   2.355   0.920
 9479WAT      O28678   3.711   1.318   2.482
 9479WAT     H128679   3.743   1.224   2.496
 9479WAT     H228680   3.615   1.324   2.506
 9480WAT      O28681   6.492   9.174   1.489
 9480WAT     H128682   6.587   9.202   1.494
 9480WAT     H228683   6.479   9.088   1.537
 9481WAT      O28684   4.723   9.636   3.706
 9481WAT     H128685   4.806   9.583   3.686
 9481WAT     H228686   4.658   9.578   3.754
 9482WAT      O28687   5.943   4.552   9.454
 9482WAT     H128688   5.933   4.652   9.450
 9482WAT     H228689   5.927   4.522   9.548
 9483WAT      O28690   1.566   1.555   5.098
 9483WAT     H128691   1.584   1.598   5.010
 9483WAT     H228692   1.653   1.521   5.136
 9484WAT      O28693   1.213   5.011   0.349
 9484WAT     H128694   1.203   5.104   0.313
 9484WAT     H228695   1.224   5.015   0.448
 9485WAT      O28696   1.619   0.070   6.183
 9485WAT     H128697   1.649   0.079   6.088
 9485WAT     H228698   1.647  -0.019   6.219
 9486WAT      O28699   0.030   2.028   9.783
 9486WAT     H128700   0.085   2.106   9.751
 9486WAT     H228701  -0.061   2.032   9.742
 9487WAT      O28702   5.519   2.753   8.009
 9487WAT     H128703   5.591   2.685   8.020
 9487WAT     H228704   5.549   2.824   7.945
 9488WAT      O28705   9.149   6.757   6.276
 9488WAT     H128706   9.209   6.830   6.244
 9488WAT     H228707   9.070   6.751   6.215
 9489WAT      O28708   7.820   2.527   7.309
 9489WAT     H128709   7.782   2.559   7.396
 9489WAT     H228710   7.885   2.453   7.327
 9490WAT      O28711   9.709   0.399   6.525
 9490WAT     H128712   9.756   0.333   6.583
 9490WAT     H228713   9.719   0.491   6.564
 9491WAT      O28714   2.427   1.208   3.041
 9491WAT     H128715   2.482   1.286   3.012
 9491WAT     H228716   2.375   1.232   3.123
 9492WAT      O28717   4.426   2.276   6.756
 9492WAT     H128718   4.453   2.266   6.852
 9492WAT     H228719   4.506   2.266   6.697
 9493WAT      O28720   1.369   6.112   3.355
 9493WAT     H128721   1.307   6.190   3.367
 9493WAT     H228722   1.373   6.088   3.258
 9494WAT      O28723   7.928   2.953   5.025
 9494WAT     H128724   7.956   2.868   4.981
 9494WAT     H228725   7.904   2.935   5.120
 9495WAT      O28726   9.147   1.219   4.219
 9495WAT     H128727   9.122   1.264   4.305
 9495WAT     H228728   9.102   1.131   4.213
 9496WAT      O28729   9.775   6.513   7.442
 9496WAT     H128730   9.676   6.509   7.461
 9496WAT     H228731   9.795   6.593   7.386
 9497WAT      O28732   5.213   2.600   9.551
 9497WAT     H128733   5.175   2.511   9.524
 9497WAT     H228734   5.285   2.627   9.488
 9498WAT      O28735   6.847   5.125   9.591
 9498WAT     H128736   6.821   5.081   9.677
 9498WAT     H228737   6.931   5.177   9.604
 9499WAT      O28738   7.871   9.664   6.649
 9499WAT     H128739   7.915   9.603   6.715
 9499WAT     H228740   7.806   9.612   6.594
 9500WAT      O28741   7.631   6.896   7.360
 9500WAT     H128742   7.644   6.995   7.373
 9500WAT     H228743   7.540   6.870   7.393
 9501WAT      O28744   1.835   3.690   6.775
 9501WAT     H128745   1.792   3.601   6.760
 9501WAT     H228746   1.767   3.756   6.808
 9502WAT      O28747   8.592   9.632   7.516
 9502WAT     H128748   8.605   9.717   7.568
 9502WAT     H228749   8.517   9.643   7.452
 9503WAT      O28750   0.489   5.316   8.444
 9503WAT     H128751   0.501   5.294   8.348
 9503WAT     H228752   0.446   5.239   8.491
 9504WAT      O28753   3.908   4.889   2.113
 9504WAT     H128754   4.004   4.877   2.085
 9504WAT     H228755   3.865   4.800   2.123
 9505WAT      O28756   4.882   1.327   3.591
 9505WAT     H128757   4.867   1.229   3.609
 9505WAT     H228758   4.920   1.338   3.499
 9506WAT      O28759   7.797   6.962   1.850
 9506WAT     H128760   7.722   6.933   1.908
 9506WAT     H228761   7.849   6.882   1.819
 9507WAT      O28762   2.559   4.242   9.230
 9507WAT     H128763   2.621   4.311   9.194
 9507WAT     H228764   2.611   4.164   9.264
 9508WAT      O28765   4.931   4.802   5.980
 9508WAT     H128766   5.010   4.862   5.988
 9508WAT     H228767   4.861   4.847   5.923
 9509WAT      O28768   9.506   0.923   8.648
 9509WAT     H128769   9.495   1.022   8.636
 9509WAT     H228770   9.417   0.878   8.642
 9510WAT      O28771   8.460   6.758   7.163
 9510WAT     H128772   8.547   6.740   7.118
 9510WAT     H228773   8.469   6.738   7.261
 9511WAT      O28774   6.716   1.520   5.483
 9511WAT     H128775   6.744   1.492   5.391
 9511WAT     H228776   6.630   1.570   5.477
 9512WAT      O28777   8.805   5.154   8.133
 9512WAT     H128778   8.801   5.160   8.034
 9512WAT     H228779   8.714   5.135   8.169
 9513WAT      O28780   8.490   9.533   3.336
 9513WAT     H128781   8.525   9.616   3.380
 9513WAT     H228782   8.391   9.540   3.325
 9514WAT      O28783   9.409   5.466   6.609
 9514WAT     H128784   9.390   5.520   6.527
 9514WAT     H228785   9.350   5.385   6.611
 9515WAT      O28786   9.305   7.683   1.377
 9515WAT     H128787   9.270   7.590   1.376
 9515WAT     H228788   9.276   7.729   1.461
 9516WAT      O28789   6.045   8.156   9.044
 9516WAT     H128790   6.102   8.214   8.986
 9516WAT     H228791   6.005   8.083   8.988
 9517WAT      O28792   2.854   5.615   9.501
 9517WAT     H128793   2.850   5.516   9.490
 9517WAT     H228794   2.876   5.637   9.596
 9518WAT      O28795   6.303   1.065   1.281
 9518WAT     H128796   6.355   0.990   1.240
 9518WAT     H228797   6.211   1.034   1.303
 9519WAT      O28798   1.288   2.148   9.018
 9519WAT     H128799   1.305   2.230   9.073
 9519WAT     H228800   1.302   2.067   9.075
 9520WAT      O28801   4.469   4.891   2.301
 9520WAT     H128802   4.451   4.945   2.219
 9520WAT     H228803   4.393   4.901   2.365
 9521WAT      O28804   8.195   2.517   5.869
 9521WAT     H128805   8.231   2.431   5.832
 9521WAT     H228806   8.251   2.593   5.839
 9522WAT      O28807   1.982   9.757   1.869
 9522WAT     H128808   2.061   9.811   1.841
 9522WAT     H228809   2.009   9.697   1.945
 9523WAT      O28810   5.930   1.442   4.881
 9523WAT     H128811   5.968   1.400   4.964
 9523WAT     H228812   5.993   1.512   4.848
 9524WAT      O28813   6.165   1.120   6.918
 9524WAT     H128814   6.264   1.113   6.932
 9524WAT     H228815   6.118   1.074   6.993
 9525WAT      O28816   2.865   7.796   3.322
 9525WAT     H128817   2.893   7.706   3.290
 9525WAT     H228818   2.891   7.807   3.418
 9526WAT      O28819   8.105   9.164   6.338
 9526WAT     H128820   8.017   9.136   6.374
 9526WAT     H228821   8.117   9.263   6.350
 9527WAT      O28822   1.556   1.783   3.354
 9527WAT     H128823   1.500   1.832   3.421
 9527WAT     H228824   1.631   1.736   3.401
 9528WAT      O28825   1.968   3.936   3.551
 9528WAT     H128826   1.971   3.986   3.464
 9528WAT     H228827   1.942   3.841   3.534
 9529WAT      O28828   9.251   6.080   9.773
 9529WAT     H128829   9.258   6.015   9.849
 9529WAT     H228830   9.216   6.167   9.808
 9530WAT      O28831   4.340   4.465   2.175
 9530WAT     H128832   4.247   4.441   2.202
 9530WAT     H228833   4.404   4.437   2.247
 9531WAT      O28834   8.347   4.230   3.671
 9531WAT     H128835   8.352   4.180   3.584
 9531WAT     H228836   8.295   4.315   3.658
 9532WAT      O28837   8.300   2.603   2.697
 9532WAT     H128838   8.351   2.524   2.732
 9532WAT     H228839   8.236   2.635   2.767
 9533WAT      O28840   8.260   8.644   8.362
 9533WAT     H128841   8.251   8.706   8.440
 9533WAT     H228842   8.316   8.566   8.388
 9534WAT      O28843   0.125   0.090   4.561
 9534WAT     H128844   0.047   0.031   4.582
 9534WAT     H228845   0.146   0.147   4.640
 9535WAT      O28846   0.959   3.977   4.130
 9535WAT     H128847   0.860   3.960   4.137
 9535WAT     H228848   0.999   3.973   4.222
 9536WAT      O28849   5.470   3.251   2.761
 9536WAT     H128850   5.469   3.193   2.679
 9536WAT     H228851   5.379   3.252   2.802
 9537WAT      O28852   4.645   6.086   3.667
 9537WAT     H128853   4.613   6.151   3.598
 9537WAT     H228854   4.587   6.005   3.666
 9538WAT      O28855   8.634   6.643   3.617
 9538WAT     H128856   8.651   6.544   3.618
 9538WAT     H228857   8.544   6.662   3.656
 9539WAT      O28858   8.196   6.810   4.923
 9539WAT     H128859   8.213   6.812   5.022
 9539WAT     H228860   8.282   6.825   4.874
 9540WAT      O28861   1.394   8.777   7.964
 9540WAT     H128862   1.331   8.699   7.960
 9540WAT     H228863   1.344   8.858   7.997
 9541WAT      O28864   1.043   5.457   5.412
 9541WAT     H128865   1.025   5.486   5.318
 9541WAT     H228866   0.974   5.391   5.440
 9542WAT      O28867   4.200   2.304   0.339
 9542WAT     H128868   4.236   2.392   0.310
 9542WAT     H228869   4.169   2.310   0.434
 9543WAT      O28870   7.669   0.132   5.150
 9543WAT     H128871   7.578   0.125   5.111
 9543WAT     H228872   7.736   0.098   5.084
 9544WAT      O28873   2.736   6.153   2.527
 9544WAT     H128874   2.755   6.207   2.609
 9544WAT     H228875   2.816   6.155   2.467
 9545WAT      O28876   8.677   8.845   5.875
 9545WAT     H128877   8.702   8.910   5.803
 9545WAT     H228878   8.753   8.782   5.891
 9546WAT      O28879   0.294   5.003   7.874
 9546WAT     H128880   0.235   4.997   7.955
 9546WAT     H228881   0.361   4.929   7.876
 9547WAT      O28882   4.844   0.755   6.487
 9547WAT     H128883   4.916   0.691   6.515
 9547WAT     H228884   4.782   0.709   6.424
 9548WAT      O28885   5.478   1.696   2.332
 9548WAT     H128886   5.394   1.715   2.282
 9548WAT     H228887   5.495   1.597   2.332
 9549WAT      O28888   6.226   1.864   1.469
 9549WAT     H128889   6.181   1.829   1.551
 9549WAT     H228890   6.165   1.856   1.390
 9550WAT      O28891   4.992   5.406   5.428
 9550WAT     H128892   4.907   5.426   5.476
 9550WAT     H228893   5.069   5.443   5.480
 9551WAT      O28894   7.557   6.177   7.516
 9551WAT     H128895   7.488   6.116   7.477
 9551WAT     H228896   7.632   6.188   7.450
 9552WAT      O28897   8.424   5.597   9.188
 9552WAT     H128898   8.489   5.523   9.172
 9552WAT     H228899   8.378   5.621   9.103
 9553WAT      O28900   6.116   4.488   4.820
 9553WAT     H128901   6.093   4.443   4.906
 9553WAT     H228902   6.032   4.522   4.777
 9554WAT      O28903   6.227   8.109   6.495
 9554WAT     H128904   6.187   8.195   6.465
 9554WAT     H228905   6.326   8.118   6.500
 9555WAT      O28906   5.286   8.486   1.347
 9555WAT     H128907   5.353   8.560   1.340
 9555WAT     H228908   5.214   8.500   1.278
 9556WAT      O28909   5.085   0.726   8.150
 9556WAT     H128910   5.009   0.782   8.116
 9556WAT     H228911   5.142   0.781   8.211
 9557WAT      O28912   0.080   7.127   7.147
 9557WAT     H128913   0.161   7.166   7.103
 9557WAT     H228914   0.013   7.103   7.077
 9558WAT      O28915   5.269   1.135   4.612
 9558WAT     H128916   5.235   1.115   4.520
 9558WAT     H228917   5.197   1.117   4.679
 9559WAT      O28918   8.806   2.757   4.701
 9559WAT     H128919   8.838   2.664   4.720
 9559WAT     H228920   8.835   2.817   4.776
 9560WAT      O28921   9.412   2.526   5.428
 9560WAT     H128922   9.313   2.521   5.432
 9560WAT     H228923   9.450   2.524   5.520
 9561WAT      O28924   9.428   9.739   4.319
 9561WAT     H128925   9.400   9.834   4.311
 9561WAT     H228926   9.357   9.686   4.365
 9562WAT      O28927   5.132   8.616   2.025
 9562WAT     H128928   5.107   8.524   2.056
 9562WAT     H228929   5.050   8.662   1.990
 9563WAT      O28930   8.533   2.163   7.847
 9563WAT     H128931   8.482   2.081   7.875
 9563WAT     H228932   8.587   2.196   7.924
 9564WAT      O28933   3.821   1.402   0.473
 9564WAT     H128934   3.921   1.403   0.465
 9564WAT     H228935   3.786   1.310   0.455
 9565WAT      O28936   6.793   2.298   1.845
 9565WAT     H128937   6.787   2.386   1.893
 9565WAT     H228938   6.704   2.276   1.805
 9566WAT      O28939   8.631   3.206   1.847
 9566WAT     H128940   8.681   3.282   1.889
 9566WAT     H228941   8.533   3.217   1.863
 9567WAT      O28942   7.327   5.060   0.153
 9567WAT     H128943   7.394   4.985   0.161
 9567WAT     H228944   7.279   5.053   0.066
 9568WAT      O28945   7.607   2.255   5.183
 9568WAT     H128946   7.596   2.187   5.111
 9568WAT     H228947   7.532   2.321   5.178
 9569WAT      O28948   8.395   8.082   3.498
 9569WAT     H128949   8.312   8.064   3.445
 9569WAT     H228950   8.429   8.173   3.476
 9570WAT      O28951   0.659   0.600   4.747
 9570WAT     H128952   0.724   0.552   4.688
 9570WAT     H228953   0.710   0.650   4.817
 9571WAT      O28954   5.711   2.522   8.084
 9571WAT     H128955   5.797   2.554   8.121
 9571WAT     H228956   5.707   2.422   8.090
 9572WAT      O28957   9.527   8.539   2.192
 9572WAT     H128958   9.435   8.576   2.181
 9572WAT     H228959   9.583   8.603   2.245
 9573WAT      O28960   0.925   5.133   8.743
 9573WAT     H128961   1.013   5.096   8.714
 9573WAT     H228962   0.932   5.232   8.754
 9574WAT      O28963   7.571   9.183   1.296
 9574WAT     H128964   7.559   9.089   1.329
 9574WAT     H228965   7.493   9.238   1.325
 9575WAT      O28966   0.346   7.464   8.156
 9575WAT     H128967   0.370   7.479   8.061
 9575WAT     H228968   0.427   7.475   8.214
 9576WAT      O28969   8.535   5.536   9.733
 9576WAT     H128970   8.598   5.551   9.809
 9576WAT     H228971   8.441   5.552   9.765
 9577WAT      O28972   8.323   8.114   7.092
 9577WAT     H128973   8.341   8.098   6.995
 9577WAT     H228974   8.363   8.201   7.119
 9578WAT      O28975   9.119   5.649   7.437
 9578WAT     H128976   9.024   5.619   7.429
 9578WAT     H228977   9.143   5.656   7.534
 9579WAT      O28978   7.872   8.589   2.181
 9579WAT     H128979   7.875   8.689   2.173
 9579WAT     H228980   7.781   8.557   2.157
 9580WAT      O28981   0.963   4.915   9.328
 9580WAT     H128982   1.048   4.956   9.294
 9580WAT     H228983   0.890   4.932   9.262
 9581WAT      O28984   5.448   7.710   4.900
 9581WAT     H128985   5.484   7.621   4.930
 9581WAT     H228986   5.523   7.774   4.887
 9582WAT      O28987   6.780   5.605   8.801
 9582WAT     H128988   6.715   5.675   8.772
 9582WAT     H228989   6.821   5.563   8.720
 9583WAT      O28990   3.673   7.405   1.422
 9583WAT     H128991   3.686   7.393   1.520
 9583WAT     H228992   3.714   7.328   1.373
 9584WAT      O28993   8.211   2.435   9.559
 9584WAT     H128994   8.256   2.459   9.645
 9584WAT     H228995   8.159   2.350   9.572
 9585WAT      O28996   1.175   3.396   4.987
 9585WAT     H128997   1.101   3.346   5.032
 9585WAT     H228998   1.243   3.423   5.055
 9586WAT      O28999   3.089   3.557   1.359
 9586WAT     H129000   3.027   3.503   1.302
 9586WAT     H229001   3.162   3.595   1.302
 9587WAT      O29002   7.843   1.462   3.518
 9587WAT     H129003   7.876   1.445   3.611
 9587WAT     H229004   7.745   1.484   3.522
 9588WAT      O29005   8.222   8.890   6.041
 9588WAT     H129006   8.175   8.978   6.044
 9588WAT     H229007   8.155   8.816   6.039
 9589WAT      O29008   8.730   8.930   6.827
 9589WAT     H129009   8.653   8.894   6.775
 9589WAT     H229010   8.733   9.030   6.817
 9590WAT      O29011   8.464   3.024   2.713
 9590WAT     H129012   8.561   3.022   2.687
 9590WAT     H229013   8.419   2.943   2.675
 9591WAT      O29014   1.172   7.519   0.851
 9591WAT     H129015   1.127   7.472   0.926
 9591WAT     H229016   1.208   7.451   0.786
 9592WAT      O29017   1.174   6.178   7.260
 9592WAT     H129018   1.131   6.097   7.301
 9592WAT     H229019   1.145   6.186   7.164
 9593WAT      O29020   3.358   3.272   5.244
 9593WAT     H129021   3.281   3.334   5.224
 9593WAT     H229022   3.346   3.232   5.335
 9594WAT      O29023   5.374   1.729   5.253
 9594WAT     H129024   5.293   1.734   5.194
 9594WAT     H229025   5.410   1.820   5.268
 9595WAT      O29026   4.304   9.338   6.403
 9595WAT     H129027   4.280   9.257   6.350
 9595WAT     H229028   4.343   9.408   6.343
 9596WAT      O29029   5.350   2.717   0.843
 9596WAT     H129030   5.378   2.812   0.854
 9596WAT     H229031   5.295   2.689   0.922
 9597WAT      O29032   5.480   7.977   6.103
 9597WAT     H129033   5.546   8.052   6.094
 9597WAT     H229034   5.401   8.010   6.155
 9598WAT      O29035   2.596   7.781   0.195
 9598WAT     H129036   2.664   7.854   0.186
 9598WAT     H229037   2.523   7.794   0.128
 9599WAT      O29038   6.852   6.483   9.685
 9599WAT     H129039   6.805   6.559   9.730
 9599WAT     H229040   6.851   6.498   9.586
 9600WAT      O29041   2.817   4.894   5.125
 9600WAT     H129042   2.737   4.928   5.075
 9600WAT     H229043   2.879   4.848   5.062
 9601WAT      O29044   4.032   8.001   4.820
 9601WAT     H129045   3.982   7.925   4.776
 9601WAT     H229046   4.082   8.052   4.750
 9602WAT      O29047   0.882   9.747   1.933
 9602WAT     H129048   0.913   9.710   2.020
 9602WAT     H229049   0.854   9.842   1.945
 9603WAT      O29050   3.572   7.500   3.169
 9603WAT     H129051   3.593   7.470   3.076
 9603WAT     H229052   3.473   7.516   3.177
 9604WAT      O29053   3.225   7.049   7.753
 9604WAT     H129054   3.126   7.067   7.751
 9604WAT     H229055   3.274   7.136   7.762
 9605WAT      O29056   7.354   3.185   1.074
 9605WAT     H129057   7.290   3.210   1.147
 9605WAT     H229058   7.433   3.138   1.113
 9606WAT      O29059   7.707   9.436   0.524
 9606WAT     H129060   7.639   9.459   0.455
 9606WAT     H229061   7.671   9.363   0.583
 9607WAT      O29062   7.983   6.181   3.049
 9607WAT     H129063   7.934   6.129   2.979
 9607WAT     H229064   7.954   6.277   3.045
 9608WAT      O29065   3.768   6.154   4.841
 9608WAT     H129066   3.703   6.228   4.824
 9608WAT     H229067   3.727   6.088   4.903
 9609WAT      O29068   3.309   1.094   2.448
 9609WAT     H129069   3.345   1.042   2.525
 9609WAT     H229070   3.366   1.076   2.367
 9610WAT      O29071   0.455   5.868   7.992
 9610WAT     H129072   0.502   5.860   8.080
 9610WAT     H229073   0.453   5.778   7.948
 9611WAT      O29074   5.096   9.000   3.939
 9611WAT     H129075   5.029   9.001   3.865
 9611WAT     H229076   5.120   9.094   3.964
 9612WAT      O29077   7.631   7.684   6.665
 9612WAT     H129078   7.701   7.734   6.717
 9612WAT     H229079   7.606   7.737   6.584
 9613WAT      O29080   6.233   5.970   3.663
 9613WAT     H129081   6.244   5.990   3.566
 9613WAT     H229082   6.225   5.871   3.676
 9614WAT      O29083   6.634   1.344   0.474
 9614WAT     H129084   6.669   1.261   0.517
 9614WAT     H229085   6.570   1.389   0.535
 9615WAT      O29086   9.723   3.264   7.163
 9615WAT     H129087   9.713   3.354   7.120
 9615WAT     H229088   9.633   3.224   7.179
 9616WAT      O29089   0.167   5.560   4.533
 9616WAT     H129090   0.128   5.645   4.567
 9616WAT     H229091   0.265   5.571   4.518
 9617WAT      O29092   0.617   2.270   2.956
 9617WAT     H129093   0.698   2.238   3.005
 9617WAT     H229094   0.565   2.192   2.923
 9618WAT      O29095   0.530   5.701   1.077
 9618WAT     H129096   0.456   5.681   1.142
 9618WAT     H229097   0.491   5.721   0.988
 9619WAT      O29098   5.140   4.312   3.522
 9619WAT     H129099   5.229   4.330   3.563
 9619WAT     H229100   5.078   4.275   3.591
 9620WAT      O29101   0.269   8.644   1.760
 9620WAT     H129102   0.208   8.566   1.745
 9620WAT     H229103   0.353   8.613   1.804
 9621WAT      O29104   8.253   3.895   1.101
 9621WAT     H129105   8.334   3.890   1.043
 9621WAT     H229106   8.172   3.905   1.044
 9622WAT      O29107   0.927   6.557   0.312
 9622WAT     H129108   0.891   6.574   0.220
 9622WAT     H229109   1.011   6.504   0.306
 9623WAT      O29110   3.940   2.136   8.543
 9623WAT     H129111   4.012   2.123   8.475
 9623WAT     H229112   3.852   2.112   8.503
 9624WAT      O29113   1.458   1.218   5.269
 9624WAT     H129114   1.388   1.237   5.200
 9624WAT     H229115   1.485   1.304   5.313
 9625WAT      O29116   3.565   1.516   5.931
 9625WAT     H129117   3.644   1.529   5.991
 9625WAT     H229118   3.488   1.483   5.984
 9626WAT      O29119   9.521   9.565   7.082
 9626WAT     H129120   9.430   9.526   7.090
 9626WAT     H229121   9.532   9.639   7.148
 9627WAT      O29122   7.537   9.479   5.018
 9627WAT     H129123   7.456   9.503   5.071
 9627WAT     H229124   7.606   9.551   5.028
 9628WAT      O29125   4.054   5.827   2.031
 9628WAT     H129126   4.025   5.860   1.941
 9628WAT     H229127   4.081   5.731   2.025
 9629WAT      O29128   2.668   0.796   5.646
 9629WAT     H129129   2.665   0.696   5.654
 9629WAT     H229130   2.610   0.825   5.569
 9630WAT      O29131   7.857   0.056   8.294
 9630WAT     H129132   7.815   0.146   8.308
 9630WAT     H229133   7.928   0.063   8.224
 9631WAT      O29134   3.803   1.558   2.350
 9631WAT     H129135   3.883   1.516   2.307
 9631WAT     H229136   3.749   1.487   2.397
 9632WAT      O29137   8.927   1.421   8.065
 9632WAT     H129138   8.870   1.339   8.067
 9632WAT     H229139   8.870   1.502   8.082
 9633WAT      O29140   2.304   3.920   0.224
 9633WAT     H129141   2.204   3.927   0.222
 9633WAT     H229142   2.336   3.873   0.142
 9634WAT      O29143   7.787   8.345   1.711
 9634WAT     H129144   7.768   8.373   1.617
 9634WAT     H229145   7.715   8.381   1.771
 9635WAT      O29146   4.503   9.705   0.429
 9635WAT     H129147   4.447   9.656   0.495
 9635WAT     H229148   4.447   9.769   0.377
 9636WAT      O29149   8.080   1.117   2.724
 9636WAT     H129150   8.138   1.178   2.669
 9636WAT     H229151   8.123   1.028   2.731
 9637WAT      O29152   0.776   7.219   8.893
 9637WAT     H129153   0.748   7.134   8.848
 9637WAT     H229154   0.708   7.244   8.962
 9638WAT      O29155   8.273   6.806   5.180
 9638WAT     H129156   8.234   6.721   5.216
 9638WAT     H229157   8.372   6.796   5.172
 9639WAT      O29158   3.373   1.210   7.449
 9639WAT     H129159   3.441   1.142   7.421
 9639WAT     H229160   3.415   1.275   7.513
 9640WAT      O29161   0.384   7.358   4.427
 9640WAT     H129162   0.335   7.425   4.371
 9640WAT     H229163   0.328   7.275   4.435
 9641WAT      O29164   3.320   7.924   1.137
 9641WAT     H129165   3.287   7.851   1.197
 9641WAT     H229166   3.420   7.920   1.131
 9642WAT      O29167   8.661   3.357   3.339
 9642WAT     H129168   8.568   3.340   3.374
 9642WAT     H229169   8.664   3.338   3.241
 9643WAT      O29170   8.755   9.398   0.566
 9643WAT     H129171   8.841   9.448   0.570
 9643WAT     H229172   8.679   9.462   0.578
 9644WAT      O29173   1.456   7.837   7.021
 9644WAT     H129174   1.477   7.854   6.924
 9644WAT     H229175   1.452   7.925   7.069
 9645WAT      O29176   0.295   3.788   9.829
 9645WAT     H129177   0.242   3.809   9.746
 9645WAT     H229178   0.344   3.702   9.816
 9646WAT      O29179   0.889   1.896   5.282
 9646WAT     H129180   0.881   1.798   5.299
 9646WAT     H229181   0.807   1.943   5.316
 9647WAT      O29182   0.238   8.179   6.659
 9647WAT     H129183   0.252   8.116   6.583
 9647WAT     H229184   0.217   8.127   6.742
 9648WAT      O29185   1.025   4.648   5.764
 9648WAT     H129186   1.123   4.650   5.784
 9648WAT     H229187   0.977   4.709   5.827
 9649WAT      O29188   4.175   0.717   3.639
 9649WAT     H129189   4.148   0.703   3.734
 9649WAT     H229190   4.111   0.779   3.594
 9650WAT      O29191   2.234   7.031   4.732
 9650WAT     H129192   2.161   7.030   4.800
 9650WAT     H229193   2.320   7.057   4.776
 9651WAT      O29194   6.534   2.959   5.555
 9651WAT     H129195   6.514   2.971   5.458
 9651WAT     H229196   6.600   2.885   5.567
 9652WAT      O29197   2.975   7.807   7.253
 9652WAT     H129198   2.972   7.736   7.323
 9652WAT     H229199   3.064   7.806   7.208
 9653WAT      O29200   5.553   7.466   0.690
 9653WAT     H129201   5.524   7.501   0.779
 9653WAT     H229202   5.478   7.474   0.625
 9654WAT      O29203   1.517   6.803   1.535
 9654WAT     H129204   1.442   6.739   1.551
 9654WAT     H229205   1.498   6.857   1.452
 9655WAT      O29206   0.417   4.558   7.060
 9655WAT     H129207   0.416   4.546   7.160
 9655WAT     H229208   0.496   4.510   7.022
 9656WAT      O29209   1.970   1.260   0.311
 9656WAT     H129210   1.928   1.176   0.348
 9656WAT     H229211   1.902   1.311   0.259
 9657WAT      O29212   9.540   5.963   3.980
 9657WAT     H129213   9.577   5.931   4.068
 9657WAT     H229214   9.500   6.054   3.993
 9658WAT      O29215   5.423   3.974   6.704
 9658WAT     H129216   5.481   3.962   6.624
 9658WAT     H229217   5.459   4.048   6.761
 9659WAT      O29218   5.277   6.341   7.420
 9659WAT     H129219   5.298   6.401   7.497
 9659WAT     H229220   5.184   6.360   7.388
 9660WAT      O29221   8.827   2.669   0.229
 9660WAT     H129222   8.919   2.632   0.225
 9660WAT     H229223   8.808   2.701   0.322
 9661WAT      O29224   6.322   7.685   4.426
 9661WAT     H129225   6.307   7.628   4.506
 9661WAT     H229226   6.306   7.781   4.450
 9662WAT      O29227   4.879   3.389   7.626
 9662WAT     H129228   4.808   3.437   7.575
 9662WAT     H229229   4.885   3.295   7.594
 9663WAT      O29230   7.448   8.473   8.100
 9663WAT     H129231   7.492   8.386   8.119
 9663WAT     H229232   7.516   8.546   8.102
 9664WAT      O29233   2.015   2.505   4.355
 9664WAT     H129234   2.043   2.466   4.267
 9664WAT     H229235   1.961   2.587   4.339
 9665WAT      O29236   7.370   6.285   3.602
 9665WAT     H129237   7.366   6.342   3.520
 9665WAT     H229238   7.281   6.287   3.648
 9666WAT      O29239   3.178   8.790   2.295
 9666WAT     H129240   3.132   8.823   2.212
 9666WAT     H229241   3.266   8.751   2.270
 9667WAT      O29242   1.693   5.169   5.786
 9667WAT     H129243   1.629   5.245   5.779
 9667WAT     H229244   1.661   5.093   5.728
 9668WAT      O29245   0.774   0.514   6.107
 9668WAT     H129246   0.737   0.584   6.168
 9668WAT     H229247   0.792   0.430   6.159
 9669WAT      O29248   9.811   2.303   1.298
 9669WAT     H129249   9.768   2.219   1.329
 9669WAT     H229250   9.820   2.366   1.376
 9670WAT      O29251   0.349   7.304   3.815
 9670WAT     H129252   0.373   7.333   3.908
 9670WAT     H229253   0.425   7.323   3.754
 9671WAT      O29254   8.285   8.572   3.494
 9671WAT     H129255   8.252   8.631   3.420
 9671WAT     H229256   8.382   8.589   3.510
 9672WAT      O29257   8.512   0.871   2.833
 9672WAT     H129258   8.450   0.799   2.863
 9672WAT     H229259   8.468   0.926   2.762
 9673WAT      O29260   9.386   9.730   5.310
 9673WAT     H129261   9.398   9.737   5.409
 9673WAT     H229262   9.460   9.675   5.272
 9674WAT      O29263   7.789   8.260   2.790
 9674WAT     H129264   7.847   8.194   2.743
 9674WAT     H229265   7.794   8.244   2.889
 9675WAT      O29266   2.423   1.660   8.289
 9675WAT     H129267   2.424   1.619   8.380
 9675WAT     H229268   2.355   1.613   8.232
 9676WAT      O29269   4.691   1.274   5.952
 9676WAT     H129270   4.735   1.191   5.916
 9676WAT     H229271   4.746   1.312   6.025
 9677WAT      O29272   8.434   2.664   7.562
 9677WAT     H129273   8.470   2.637   7.473
 9677WAT     H229274   8.496   2.728   7.605
 9678WAT      O29275   5.904   5.892   0.368
 9678WAT     H129276   5.856   5.962   0.420
 9678WAT     H229277   5.871   5.892   0.274
 9679WAT      O29278   5.291   5.235   1.492
 9679WAT     H129279   5.206   5.257   1.444
 9679WAT     H229280   5.273   5.232   1.590
 9680WAT      O29281   5.420   1.753   8.841
 9680WAT     H129282   5.443   1.827   8.904
 9680WAT     H229283   5.390   1.792   8.754
 9681WAT      O29284   8.675   1.160   3.884
 9681WAT     H129285   8.610   1.153   3.959
 9681WAT     H229286   8.626   1.169   3.798
 9682WAT      O29287   9.302   6.992   3.541
 9682WAT     H129288   9.257   6.912   3.502
 9682WAT     H229289   9.304   7.065   3.474
 9683WAT      O29290   4.238   4.940   9.862
 9683WAT     H129291   4.170   4.895   9.804
 9683WAT     H229292   4.213   5.037   9.873
 9684WAT      O29293   2.687   4.457   9.105
 9684WAT     H129294   2.660   4.551   9.128
 9684WAT     H229295   2.664   4.438   9.009
 9685WAT      O29296   9.301   3.431   9.016
 9685WAT     H129297   9.329   3.418   8.922
 9685WAT     H229298   9.355   3.372   9.076
 9686WAT      O29299   3.214   9.621   6.233
 9686WAT     H129300   3.211   9.627   6.333
 9686WAT     H229301   3.303   9.655   6.201
 9687WAT      O29302   0.576   7.586   8.003
 9687WAT     H129303   0.666   7.548   8.025
 9687WAT     H229304   0.533   7.531   7.932
 9688WAT      O29305   2.981   7.785   2.540
 9688WAT     H129306   3.070   7.802   2.584
 9688WAT     H229307   2.908   7.813   2.602
 9689WAT      O29308   3.052   8.370   3.895
 9689WAT     H129309   3.031   8.342   3.802
 9689WAT     H229310   3.029   8.466   3.908
 9690WAT      O29311   3.127   5.881   6.299
 9690WAT     H129312   3.158   5.975   6.312
 9690WAT     H229313   3.137   5.830   6.384
 9691WAT      O29314   8.482   0.921   4.653
 9691WAT     H129315   8.476   0.990   4.725
 9691WAT     H229316   8.556   0.857   4.674
 9692WAT      O29317   3.371   7.375   2.317
 9692WAT     H129318   3.283   7.345   2.355
 9692WAT     H229319   3.364   7.471   2.290
 9693WAT      O29320   2.861   4.034   9.614
 9693WAT     H129321   2.831   4.075   9.700
 9693WAT     H229322   2.899   4.104   9.554
 9694WAT      O29323   4.882   4.460   8.066
 9694WAT     H129324   4.940   4.472   7.986
 9694WAT     H229325   4.936   4.473   8.149
 9695WAT      O29326   7.464   7.381   5.357
 9695WAT     H129327   7.389   7.390   5.423
 9695WAT     H229328   7.429   7.343   5.272
 9696WAT      O29329   6.825   3.824   7.836
 9696WAT     H129330   6.852   3.729   7.852
 9696WAT     H229331   6.906   3.883   7.840
 9697WAT      O29332   6.334   0.034   4.733
 9697WAT     H129333   6.297  -0.048   4.776
 9697WAT     H229334   6.368   0.097   4.803
 9698WAT      O29335   4.109   7.596   0.854
 9698WAT     H129336   4.019   7.638   0.838
 9698WAT     H229337   4.133   7.539   0.776
 9699WAT      O29338   9.650   2.384   8.215
 9699WAT     H129339   9.630   2.354   8.122
 9699WAT     H229340   9.579   2.447   8.245
 9700WAT      O29341   1.424   6.925   6.489
 9700WAT     H129342   1.502   6.977   6.454
 9700WAT     H229343   1.360   6.987   6.534
 9701WAT      O29344   2.775   1.176   2.080
 9701WAT     H129345   2.817   1.258   2.042
 9701WAT     H229346   2.702   1.144   2.019
 9702WAT      O29347   5.507   8.207   7.875
 9702WAT     H129348   5.505   8.107   7.873
 9702WAT     H229349   5.557   8.238   7.955
 9703WAT      O29350   3.703   4.507   2.731
 9703WAT     H129351   3.707   4.605   2.747
 9703WAT     H229352   3.782   4.463   2.774
 9704WAT      O29353   0.894   0.678   8.426
 9704WAT     H129354   0.809   0.704   8.382
 9704WAT     H229355   0.932   0.597   8.381
 9705WAT      O29356   7.766   8.666   1.605
 9705WAT     H129357   7.737   8.654   1.700
 9705WAT     H229358   7.734   8.589   1.551
 9706WAT      O29359   9.001   0.899   5.555
 9706WAT     H129360   8.917   0.884   5.502
 9706WAT     H229361   9.079   0.902   5.492
 9707WAT      O29362   3.966   7.240   9.797
 9707WAT     H129363   3.931   7.216   9.707
 9707WAT     H229364   3.900   7.298   9.844
 9708WAT      O29365   0.802   7.610   5.573
 9708WAT     H129366   0.798   7.674   5.649
 9708WAT     H229367   0.892   7.613   5.531
 9709WAT      O29368   6.241   7.064   4.551
 9709WAT     H129369   6.216   7.072   4.454
 9709WAT     H229370   6.161   7.034   4.603
 9710WAT      O29371   1.132   8.530   5.469
 9710WAT     H129372   1.041   8.545   5.430
 9710WAT     H229373   1.146   8.592   5.547
 9711WAT      O29374   3.075   3.292   0.990
 9711WAT     H129375   3.099   3.216   0.929
 9711WAT     H229376   3.088   3.378   0.941
 9712WAT      O29377   7.105   1.495   7.906
 9712WAT     H129378   7.171   1.568   7.926
 9712WAT     H229379   7.140   1.436   7.833
 9713WAT      O29380   9.159   1.537   0.630
 9713WAT     H129381   9.177   1.440   0.646
 9713WAT     H229382   9.229   1.592   0.674
 9714WAT      O29383   9.371   2.524   4.181
 9714WAT     H129384   9.334   2.521   4.088
 9714WAT     H229385   9.466   2.492   4.180
 9715WAT      O29386   7.430   6.517   4.841
 9715WAT     H129387   7.412   6.521   4.743
 9715WAT     H229388   7.455   6.424   4.867
 9716WAT      O29389   5.934   1.674   9.696
 9716WAT     H129390   5.964   1.734   9.770
 9716WAT     H229391   6.011   1.652   9.637
 9717WAT      O29392   1.601   5.707   9.273
 9717WAT     H129393   1.545   5.624   9.280
 9717WAT     H229394   1.542   5.785   9.252
 9718WAT      O29395   8.076   4.181   8.585
 9718WAT     H129396   8.056   4.263   8.532
 9718WAT     H229397   8.002   4.115   8.573
 9719WAT      O29398   0.821   7.443   8.711
 9719WAT     H129399   0.811   7.355   8.757
 9719WAT     H229400   0.845   7.514   8.778
 9720WAT      O29401   9.741   0.845   3.309
 9720WAT     H129402   9.790   0.772   3.260
 9720WAT     H229403   9.792   0.930   3.301
 9721WAT      O29404   6.619   7.077   2.096
 9721WAT     H129405   6.677   7.103   2.018
 9721WAT     H229406   6.527   7.055   2.063
 9722WAT      O29407   1.745   1.958   4.447
 9722WAT     H129408   1.684   1.903   4.505
 9722WAT     H229409   1.797   2.021   4.504
 9723WAT      O29410   5.634   3.275   0.145
 9723WAT     H129411   5.650   3.177   0.133
 9723WAT     H229412   5.633   3.297   0.242
 9724WAT      O29413   3.532   6.531   9.504
 9724WAT     H129414   3.582   6.577   9.577
 9724WAT     H229415   3.589   6.458   9.465
 9725WAT      O29416   2.489   4.930   7.753
 9725WAT     H129417   2.425   4.916   7.830
 9725WAT     H229418   2.437   4.944   7.669
 9726WAT      O29419   4.502   6.199   9.279
 9726WAT     H129420   4.479   6.235   9.369
 9726WAT     H229421   4.480   6.266   9.209
 9727WAT      O29422   3.373   0.242   2.800
 9727WAT     H129423   3.323   0.233   2.714
 9727WAT     H229424   3.338   0.320   2.851
 9728WAT      O29425   0.698   4.741   3.531
 9728WAT     H129426   0.705   4.834   3.565
 9728WAT     H229427   0.630   4.737   3.457
 9729WAT      O29428   3.883   0.531   1.279
 9729WAT     H129429   3.784   0.536   1.262
 9729WAT     H229430   3.910   0.435   1.289
 9730WAT      O29431   0.473   1.177   1.881
 9730WAT     H129432   0.536   1.229   1.823
 9730WAT     H229433   0.461   1.225   1.968
 9731WAT      O29434   8.706   2.450   0.103
 9731WAT     H129435   8.764   2.514   0.153
 9731WAT     H229436   8.623   2.431   0.157
 9732WAT      O29437   6.243   8.722   3.930
 9732WAT     H129438   6.322   8.664   3.914
 9732WAT     H229439   6.172   8.700   3.864
 9733WAT      O29440   0.721   2.704   2.147
 9733WAT     H129441   0.771   2.749   2.073
 9733WAT     H229442   0.784   2.643   2.197
 9734WAT      O29443   7.998   7.443   9.432
 9734WAT     H129444   7.903   7.464   9.408
 9734WAT     H229445   8.006   7.437   9.532
 9735WAT      O29446   2.106   6.701   7.625
 9735WAT     H129447   2.165   6.632   7.582
 9735WAT     H229448   2.132   6.712   7.721
 9736WAT      O29449   2.570   4.284   7.362
 9736WAT     H129450   2.661   4.326   7.366
 9736WAT     H229451   2.500   4.354   7.378
 9737WAT      O29452   6.835   2.483   3.638
 9737WAT     H129453   6.932   2.477   3.616
 9737WAT     H229454   6.783   2.501   3.554
 9738WAT      O29455   7.284   9.212   9.346
 9738WAT     H129456   7.233   9.144   9.294
 9738WAT     H229457   7.382   9.201   9.329
 9739WAT      O29458   9.527   1.599   6.745
 9739WAT     H129459   9.433   1.599   6.712
 9739WAT     H229460   9.558   1.504   6.756
 9740WAT      O29461   1.904   6.164   6.235
 9740WAT     H129462   1.863   6.073   6.240
 9740WAT     H229463   1.884   6.205   6.146
 9741WAT      O29464   3.405   8.849   4.491
 9741WAT     H129465   3.374   8.765   4.535
 9741WAT     H229466   3.327   8.897   4.451
 9742WAT      O29467   0.480   4.274   8.835
 9742WAT     H129468   0.555   4.334   8.806
 9742WAT     H229469   0.512   4.212   8.906
 9743WAT      O29470   9.528   6.842   6.714
 9743WAT     H129471   9.453   6.831   6.650
 9743WAT     H229472   9.514   6.925   6.768
 9744WAT      O29473   7.566   8.459   6.377
 9744WAT     H129474   7.616   8.470   6.291
 9744WAT     H229475   7.485   8.402   6.360
 9745WAT      O29476   4.272   1.764   5.928
 9745WAT     H129477   4.329   1.731   6.003
 9745WAT     H229478   4.328   1.774   5.845
 9746WAT      O29479   8.206   2.407   1.046
 9746WAT     H129480   8.198   2.308   1.040
 9746WAT     H229481   8.173   2.438   1.135
 9747WAT      O29482   9.425   1.381   5.855
 9747WAT     H129483   9.363   1.304   5.872
 9747WAT     H229484   9.372   1.465   5.841
 9748WAT      O29485   0.519   8.998   6.978
 9748WAT     H129486   0.433   9.039   7.009
 9748WAT     H229487   0.510   8.899   6.976
 9749WAT      O29488   7.569   4.688   3.639
 9749WAT     H129489   7.504   4.738   3.696
 9749WAT     H229490   7.625   4.753   3.587
 9750WAT      O29491   4.086   8.062   2.207
 9750WAT     H129492   4.056   8.062   2.302
 9750WAT     H229493   4.028   8.123   2.153
 9751WAT      O29494   3.874   0.258   9.791
 9751WAT     H129495   3.966   0.229   9.820
 9751WAT     H229496   3.809   0.238   9.864
 9752WAT      O29497   2.526   2.458   5.600
 9752WAT     H129498   2.525   2.546   5.646
 9752WAT     H229499   2.464   2.459   5.522
 9753WAT      O29500   2.694   9.734   6.079
 9753WAT     H129501   2.733   9.731   5.987
 9753WAT     H229502   2.739   9.666   6.136
 9754WAT      O29503   0.023   1.968   3.688
 9754WAT     H129504  -0.068   1.960   3.648
 9754WAT     H229505   0.015   1.988   3.786
 9755WAT      O29506   7.628   7.267   6.901
 9755WAT     H129507   7.691   7.206   6.948
 9755WAT     H229508   7.584   7.218   6.826
 9756WAT      O29509   7.289   7.953   1.264
 9756WAT     H129510   7.238   8.030   1.302
 9756WAT     H229511   7.373   7.986   1.221
 9757WAT      O29512   0.424   8.783   1.552
 9757WAT     H129513   0.503   8.726   1.529
 9757WAT     H229514   0.359   8.729   1.605
 9758WAT      O29515   8.638   5.598   9.484
 9758WAT     H129516   8.607   5.577   9.577
 9758WAT     H229517   8.573   5.661   9.441
 9759WAT      O29518   4.289   9.127   0.676
 9759WAT     H129519   4.348   9.136   0.596
 9759WAT     H229520   4.255   9.217   0.703
 9760WAT      O29521   3.532   7.230   9.124
 9760WAT     H129522   3.439   7.198   9.104
 9760WAT     H229523   3.590   7.216   9.043
 9761WAT      O29524   9.286   8.701   4.217
 9761WAT     H129525   9.188   8.722   4.221
 9761WAT     H229526   9.326   8.741   4.134
 9762WAT      O29527   4.339   4.061   6.639
 9762WAT     H129528   4.268   4.029   6.701
 9762WAT     H229529   4.413   4.104   6.692
 9763WAT      O29530   0.599   0.416   7.588
 9763WAT     H129531   0.585   0.463   7.675
 9763WAT     H229532   0.513   0.375   7.558
 9764WAT      O29533   4.925   2.402   5.528
 9764WAT     H129534   4.899   2.315   5.570
 9764WAT     H229535   4.923   2.392   5.428
 9765WAT      O29536   0.926   4.412   5.686
 9765WAT     H129537   0.835   4.406   5.726
 9765WAT     H229538   0.970   4.496   5.715
 9766WAT      O29539   2.439   4.606   1.693
 9766WAT     H129540   2.485   4.517   1.702
 9766WAT     H229541   2.499   4.670   1.645
 9767WAT      O29542   3.275   8.185   5.465
 9767WAT     H129543   3.249   8.091   5.485
 9767WAT     H229544   3.374   8.190   5.449
 9768WAT      O29545   5.424   1.998   5.464
 9768WAT     H129546   5.389   1.957   5.548
 9768WAT     H229547   5.377   2.084   5.446
 9769WAT      O29548   2.615   3.227   0.663
 9769WAT     H129549   2.646   3.142   0.707
 9769WAT     H229550   2.681   3.300   0.682
 9770WAT      O29551   0.312   8.548   1.239
 9770WAT     H129552   0.340   8.635   1.198
 9770WAT     H229553   0.393   8.493   1.259
 9771WAT      O29554   2.562   9.008   7.754
 9771WAT     H129555   2.491   9.077   7.741
 9771WAT     H229556   2.556   8.940   7.681
 9772WAT      O29557   5.549   5.781   1.019
 9772WAT     H129558   5.529   5.821   1.109
 9772WAT     H229559   5.626   5.828   0.978
 9773WAT      O29560   6.552   0.200   0.909
 9773WAT     H129561   6.491   0.237   0.840
 9773WAT     H229562   6.538   0.248   0.996
 9774WAT      O29563   9.881   6.442   6.981
 9774WAT     H129564   9.806   6.507   6.965
 9774WAT     H229565   9.843   6.355   7.014
 9775WAT      O29566   3.660   8.191   4.984
 9775WAT     H129567   3.607   8.122   5.034
 9775WAT     H229568   3.670   8.162   4.888
 9776WAT      O29569   9.146   7.766   6.840
 9776WAT     H129570   9.143   7.784   6.742
 9776WAT     H229571   9.234   7.798   6.878
 9777WAT      O29572   8.870   3.738   6.768
 9777WAT     H129573   8.936   3.752   6.842
 9777WAT     H229574   8.780   3.771   6.797
 9778WAT      O29575   0.976   0.783   2.918
 9778WAT     H129576   0.960   0.688   2.946
 9778WAT     H229577   0.889   0.832   2.919
 9779WAT      O29578   4.448   1.037   6.123
 9779WAT     H129579   4.427   1.071   6.214
 9779WAT     H229580   4.415   1.103   6.055
 9780WAT      O29581   3.456   3.085   9.736
 9780WAT     H129582   3.376   3.138   9.765
 9780WAT     H229583   3.453   2.995   9.779
 9781WAT      O29584   9.089   8.114   5.087
 9781WAT     H129585   9.129   8.056   5.016
 9781WAT     H229586   9.118   8.082   5.177
 9782WAT      O29587   6.270   3.423   7.758
 9782WAT     H129588   6.311   3.459   7.841
 9782WAT     H229589   6.339   3.419   7.685
 9783WAT      O29590   8.761   7.485   6.533
 9783WAT     H129591   8.678   7.540   6.522
 9783WAT     H229592   8.801   7.465   6.444
 9784WAT      O29593   7.387   7.068   0.122
 9784WAT     H129594   7.416   7.137   0.189
 9784WAT     H229595   7.365   6.983   0.169
 9785WAT      O29596   8.294   1.322   0.101
 9785WAT     H129597   8.322   1.227   0.109
 9785WAT     H229598   8.261   1.339   0.008
 9786WAT      O29599   6.142   1.992   9.159
 9786WAT     H129600   6.096   2.017   9.244
 9786WAT     H229601   6.156   1.893   9.155
 9787WAT      O29602   6.439   8.859   6.093
 9787WAT     H129603   6.479   8.870   6.183
 9787WAT     H229604   6.490   8.914   6.027
 9788WAT      O29605   0.931   2.126   7.721
 9788WAT     H129606   0.854   2.166   7.670
 9788WAT     H229607   0.990   2.075   7.658
 9789WAT      O29608   1.104   8.472   4.278
 9789WAT     H129609   1.164   8.479   4.199
 9789WAT     H229610   1.016   8.434   4.249
 9790WAT      O29611   6.092   3.781   6.656
 9790WAT     H129612   6.091   3.683   6.676
 9790WAT     H229613   6.184   3.807   6.624
 9791WAT      O29614   4.055   2.850   8.722
 9791WAT     H129615   4.004   2.932   8.748
 9791WAT     H229616   4.117   2.872   8.647
 9792WAT      O29617   0.241   9.142   3.307
 9792WAT     H129618   0.277   9.230   3.339
 9792WAT     H229619   0.222   9.148   3.209
 9793WAT      O29620   7.435   2.406   2.767
 9793WAT     H129621   7.461   2.443   2.677
 9793WAT     H229622   7.509   2.348   2.801
 9794WAT      O29623   7.337   9.153   8.446
 9794WAT     H129624   7.292   9.108   8.523
 9794WAT     H229625   7.354   9.249   8.470
 9795WAT      O29626   0.786   0.146   8.286
 9795WAT     H129627   0.853   0.107   8.350
 9795WAT     H229628   0.803   0.109   8.195
 9796WAT      O29629   9.668   2.308   2.652
 9796WAT     H129630   9.617   2.327   2.735
 9796WAT     H229631   9.763   2.285   2.675
 9797WAT      O29632   0.114   9.147   9.805
 9797WAT     H129633   0.035   9.086   9.796
 9797WAT     H229634   0.169   9.117   9.883
 9798WAT      O29635   6.136   8.283   4.689
 9798WAT     H129636   6.140   8.379   4.717
 9798WAT     H229637   6.200   8.230   4.744
 9799WAT      O29638   2.916   8.206   9.244
 9799WAT     H129639   2.864   8.243   9.167
 9799WAT     H229640   2.962   8.122   9.216
 9800WAT      O29641   1.255   4.376   5.914
 9800WAT     H129642   1.250   4.335   5.823
 9800WAT     H229643   1.186   4.334   5.973
 9801WAT      O29644   1.052   3.419   6.870
 9801WAT     H129645   1.035   3.443   6.774
 9801WAT     H229646   1.085   3.500   6.919
 9802WAT      O29647   5.640   3.019   7.445
 9802WAT     H129648   5.698   3.005   7.525
 9802WAT     H229649   5.694   3.009   7.362
 9803WAT      O29650   2.593   6.185   6.442
 9803WAT     H129651   2.619   6.281   6.453
 9803WAT     H229652   2.604   6.159   6.346
 9804WAT      O29653   8.615   9.703   7.966
 9804WAT     H129654   8.675   9.675   7.890
 9804WAT     H229655   8.653   9.786   8.009
 9805WAT      O29656   9.664   4.140   7.602
 9805WAT     H129657   9.703   4.204   7.537
 9805WAT     H229658   9.687   4.168   7.695
 9806WAT      O29659   3.644   9.651   0.734
 9806WAT     H129660   3.560   9.611   0.696
 9806WAT     H229661   3.720   9.634   0.671
 9807WAT      O29662   8.933   6.413   6.382
 9807WAT     H129663   8.842   6.452   6.403
 9807WAT     H229664   8.922   6.327   6.333
 9808WAT      O29665   0.096   5.035   8.362
 9808WAT     H129666   0.016   5.091   8.386
 9808WAT     H229667   0.171   5.057   8.424
 9809WAT      O29668   3.830   8.553   7.413
 9809WAT     H129669   3.785   8.477   7.461
 9809WAT     H229670   3.804   8.550   7.316
 9810WAT      O29671   4.664   0.585   4.325
 9810WAT     H129672   4.762   0.596   4.311
 9810WAT     H229673   4.617   0.671   4.302
 9811WAT      O29674   4.765   2.029   6.061
 9811WAT     H129675   4.742   2.060   6.153
 9811WAT     H229676   4.864   2.020   6.052
 9812WAT      O29677   8.364   2.733   5.765
 9812WAT     H129678   8.462   2.717   5.754
 9812WAT     H229679   8.338   2.815   5.713
 9813WAT      O29680   7.933   9.051   9.649
 9813WAT     H129681   7.880   9.028   9.730
 9813WAT     H229682   7.932   8.973   9.586
 9814WAT      O29683   4.562   7.829   8.297
 9814WAT     H129684   4.505   7.825   8.379
 9814WAT     H229685   4.658   7.822   8.322
 9815WAT      O29686   3.835   0.699   2.409
 9815WAT     H129687   3.772   0.729   2.337
 9815WAT     H229688   3.828   0.600   2.421
 9816WAT      O29689   8.605   4.931   2.104
 9816WAT     H129690   8.545   5.000   2.144
 9816WAT     H229691   8.561   4.892   2.023
 9817WAT      O29692   6.257   2.758   5.370
 9817WAT     H129693   6.339   2.816   5.371
 9817WAT     H229694   6.263   2.690   5.443
 9818WAT      O29695   7.884   0.402   3.147
 9818WAT     H129696   7.945   0.329   3.116
 9818WAT     H229697   7.806   0.362   3.196
 9819WAT      O29698   1.168   3.246   2.349
 9819WAT     H129699   1.095   3.310   2.324
 9819WAT     H229700   1.206   3.271   2.438
 9820WAT      O29701   1.036   8.945   0.082
 9820WAT     H129702   1.059   9.013   0.152
 9820WAT     H229703   0.967   8.983   0.021
 9821WAT      O29704   8.448   4.732   8.595
 9821WAT     H129705   8.411   4.640   8.585
 9821WAT     H229706   8.539   4.737   8.554
 9822WAT      O29707   1.242   9.105   5.669
 9822WAT     H129708   1.177   9.074   5.738
 9822WAT     H229709   1.310   9.165   5.713
 9823WAT      O29710   0.617   1.988   5.884
 9823WAT     H129711   0.527   2.020   5.856
 9823WAT     H229712   0.671   1.966   5.803
 9824WAT      O29713   4.041   8.268   0.073
 9824WAT     H129714   4.093   8.300  -0.006
 9824WAT     H229715   3.996   8.182   0.050
 9825WAT      O29716   7.038   0.301   4.605
 9825WAT     H129717   6.940   0.318   4.594
 9825WAT     H229718   7.090   0.357   4.541
 9826WAT      O29719   2.580   6.047   5.812
 9826WAT     H129720   2.540   6.044   5.904
 9826WAT     H229721   2.640   5.968   5.800
 9827WAT      O29722   6.481   2.877   4.161
 9827WAT     H129723   6.531   2.961   4.140
 9827WAT     H229724   6.546   2.801   4.170
 9828WAT      O29725   2.538   6.925   7.035
 9828WAT     H129726   2.562   6.982   6.957
 9828WAT     H229727   2.602   6.942   7.111
 9829WAT      O29728   1.612   3.921   4.872
 9829WAT     H129729   1.644   3.828   4.858
 9829WAT     H229730   1.567   3.928   4.962
 9830WAT      O29731   6.340   4.336   6.856
 9830WAT     H129732   6.343   4.383   6.767
 9830WAT     H229733   6.356   4.239   6.843
 9831WAT      O29734   9.713   0.667   6.250
 9831WAT     H129735   9.784   0.624   6.194
 9831WAT     H229736   9.662   0.596   6.299
 9832WAT      O29737   8.786   2.441   6.949
 9832WAT     H129738   8.871   2.419   6.901
 9832WAT     H229739   8.746   2.357   6.987
 9833WAT      O29740   1.745   8.814   4.017
 9833WAT     H129741   1.791   8.815   3.929
 9833WAT     H229742   1.745   8.906   4.056
 9834WAT      O29743   2.598   0.279   1.257
 9834WAT     H129744   2.688   0.242   1.232
 9834WAT     H229745   2.565   0.338   1.184
 9835WAT      O29746   0.236   5.382   0.349
 9835WAT     H129747   0.227   5.283   0.360
 9835WAT     H229748   0.297   5.401   0.272
 9836WAT      O29749   8.021   7.024   2.041
 9836WAT     H129750   8.074   6.949   2.081
 9836WAT     H229751   7.958   6.988   1.972
 9837WAT      O29752   5.049   3.337   1.163
 9837WAT     H129753   5.056   3.421   1.108
 9837WAT     H229754   5.067   3.359   1.259
 9838WAT      O29755   7.989   5.807   7.510
 9838WAT     H129756   8.006   5.774   7.417
 9838WAT     H229757   8.048   5.885   7.529
 9839WAT      O29758   4.169   8.835   4.008
 9839WAT     H129759   4.216   8.747   3.996
 9839WAT     H229760   4.154   8.852   4.105
 9840WAT      O29761   4.140   2.707   1.847
 9840WAT     H129762   4.063   2.695   1.910
 9840WAT     H229763   4.169   2.617   1.814
 9841WAT      O29764   3.576   7.381   9.405
 9841WAT     H129765   3.565   7.353   9.501
 9841WAT     H229766   3.494   7.355   9.354
 9842WAT      O29767   5.808   1.744   8.571
 9842WAT     H129768   5.892   1.689   8.562
 9842WAT     H229769   5.729   1.683   8.576
 9843WAT      O29770   8.817   2.578   9.446
 9843WAT     H129771   8.868   2.563   9.361
 9843WAT     H229772   8.856   2.520   9.518
 9844WAT      O29773   9.246   1.782   1.531
 9844WAT     H129774   9.306   1.703   1.542
 9844WAT     H229775   9.178   1.782   1.604
 9845WAT      O29776   1.925   2.045   3.721
 9845WAT     H129777   1.914   1.949   3.748
 9845WAT     H229778   1.846   2.098   3.751
 9846WAT      O29779   6.978   4.855   8.019
 9846WAT     H129780   7.037   4.834   7.941
 9846WAT     H229781   6.890   4.810   8.007
 9847WAT      O29782   6.129   9.167   5.564
 9847WAT     H129783   6.217   9.125   5.542
 9847WAT     H229784   6.063   9.143   5.493
 9848WAT      O29785   9.801   1.036   6.828
 9848WAT     H129786   9.825   1.045   6.925
 9848WAT     H229787   9.836   1.114   6.777
 9849WAT      O29788   5.462   8.965   5.186
 9849WAT     H129789   5.436   8.940   5.093
 9849WAT     H229790   5.394   9.029   5.223
 9850WAT      O29791   1.408   9.647   8.252
 9850WAT     H129792   1.389   9.648   8.154
 9850WAT     H229793   1.400   9.553   8.286
 9851WAT      O29794   3.156   7.664   0.705
 9851WAT     H129795   3.197   7.579   0.739
 9851WAT     H229796   3.187   7.741   0.760
 9852WAT      O29797   4.559   8.638   3.061
 9852WAT     H129798   4.593   8.655   2.969
 9852WAT     H229799   4.478   8.579   3.055
 9853WAT      O29800   1.897   6.303   5.988
 9853WAT     H129801   1.948   6.386   6.015
 9853WAT     H229802   1.958   6.243   5.935
 9854WAT      O29803   1.368   8.881   8.575
 9854WAT     H129804   1.430   8.883   8.496
 9854WAT     H229805   1.279   8.848   8.547
 9855WAT      O29806   4.525   5.870   7.913
 9855WAT     H129807   4.488   5.960   7.893
 9855WAT     H229808   4.579   5.874   7.997
 9856WAT      O29809   5.545   4.730   4.062
 9856WAT     H129810   5.627   4.712   4.117
 9856WAT     H229811   5.537   4.660   3.991
 9857WAT      O29812   1.612   7.100   4.902
 9857WAT     H129813   1.685   7.073   4.839
 9857WAT     H229814   1.650   7.116   4.993
 9858WAT      O29815   1.047   5.200   3.194
 9858WAT     H129816   0.950   5.208   3.217
 9858WAT     H229817   1.099   5.270   3.244
 9859WAT      O29818   5.890   9.274   2.823
 9859WAT     H129819   5.813   9.317   2.872
 9859WAT     H229820   5.942   9.217   2.887
 9860WAT      O29821   8.266   6.208   6.436
 9860WAT     H129822   8.206   6.153   6.494
 9860WAT     H229823   8.217   6.289   6.403
 9861WAT      O29824   0.349   6.590   3.024
 9861WAT     H129825   0.344   6.572   2.926
 9861WAT     H229826   0.297   6.673   3.045
 9862WAT      O29827   3.542   6.302   0.873
 9862WAT     H129828   3.450   6.274   0.897
 9862WAT     H229829   3.601   6.300   0.954
 9863WAT      O29830   1.323   3.344   4.765
 9863WAT     H129831   1.284   3.307   4.681
 9863WAT     H229832   1.258   3.332   4.840
 9864WAT      O29833   0.159   6.734   4.990
 9864WAT     H129834   0.152   6.796   5.067
 9864WAT     H229835   0.068   6.721   4.949
 9865WAT      O29836   7.039   3.097   6.025
 9865WAT     H129837   6.995   3.016   6.065
 9865WAT     H229838   7.018   3.101   5.927
 9866WAT      O29839   8.727   0.994   2.523
 9866WAT     H129840   8.796   0.930   2.490
 9866WAT     H229841   8.768   1.057   2.589
 9867WAT      O29842   1.704   3.939   2.544
 9867WAT     H129843   1.629   3.992   2.583
 9867WAT     H229844   1.789   3.992   2.549
 9868WAT      O29845   3.496   5.770   6.454
 9868WAT     H129846   3.589   5.763   6.420
 9868WAT     H229847   3.436   5.709   6.401
 9869WAT      O29848   0.178   8.047   6.377
 9869WAT     H129849   0.093   8.078   6.418
 9869WAT     H229850   0.164   7.957   6.335
 9870WAT      O29851   6.123   0.433   4.612
 9870WAT     H129852   6.044   0.408   4.556
 9870WAT     H229853   6.092   0.456   4.704
 9871WAT      O29854   3.591   0.295   5.017
 9871WAT     H129855   3.638   0.377   5.048
 9871WAT     H229856   3.533   0.259   5.090
 9872WAT      O29857   3.054   4.064   6.285
 9872WAT     H129858   3.110   4.000   6.339
 9872WAT     H229859   2.996   4.012   6.222
 9873WAT      O29860   9.747   7.372   7.893
 9873WAT     H129861   9.767   7.430   7.814
 9873WAT     H229862   9.699   7.425   7.962
 9874WAT      O29863   3.655   0.847   7.219
 9874WAT     H129864   3.610   0.811   7.137
 9874WAT     H229865   3.710   0.775   7.261
 9875WAT      O29866   0.581   7.368   2.295
 9875WAT     H129867   0.658   7.304   2.286
 9875WAT     H229868   0.602   7.452   2.245
 9876WAT      O29869   4.962   6.108   7.291
 9876WAT     H129870   5.052   6.136   7.256
 9876WAT     H229871   4.897   6.182   7.276
 9877WAT      O29872   3.492   8.223   9.320
 9877WAT     H129873   3.423   8.234   9.391
 9877WAT     H229874   3.567   8.167   9.355
 9878WAT      O29875   7.335   5.331   5.314
 9878WAT     H129876   7.374   5.243   5.288
 9878WAT     H229877   7.329   5.337   5.413
 9879WAT      O29878   3.717   6.729   1.951
 9879WAT     H129879   3.723   6.675   1.867
 9879WAT     H229880   3.621   6.742   1.976
 9880WAT      O29881   7.470   3.624   7.886
 9880WAT     H129882   7.517   3.546   7.927
 9880WAT     H229883   7.485   3.624   7.787
 9881WAT      O29884   6.441   0.862   2.522
 9881WAT     H129885   6.516   0.889   2.461
 9881WAT     H229886   6.469   0.783   2.576
 9882WAT      O29887   7.642   0.030   1.463
 9882WAT     H129888   7.714   0.065   1.403
 9882WAT     H229889   7.555   0.030   1.413
 9883WAT      O29890   8.213   9.706   5.130
 9883WAT     H129891   8.164   9.651   5.063
 9883WAT     H229892   8.147   9.756   5.186
 9884WAT      O29893   0.632   8.588   0.466
 9884WAT     H129894   0.725   8.609   0.495
 9884WAT     H229895   0.632   8.503   0.414
 9885WAT      O29896   1.739   4.761   2.883
 9885WAT     H129897   1.747   4.730   2.978
 9885WAT     H229898   1.809   4.717   2.827
 9886WAT      O29899   8.920   1.982   7.812
 9886WAT     H129900   8.932   2.081   7.816
 9886WAT     H229901   8.835   1.961   7.764
 9887WAT      O29902   5.605   7.527   7.629
 9887WAT     H129903   5.667   7.590   7.675
 9887WAT     H229904   5.523   7.512   7.685
 9888WAT      O29905   9.714   8.631   1.987
 9888WAT     H129906   9.654   8.704   2.020
 9888WAT     H229907   9.750   8.581   2.066
 9889WAT      O29908   3.395   8.231   0.656
 9889WAT     H129909   3.410   8.251   0.753
 9889WAT     H229910   3.313   8.278   0.625
 9890WAT      O29911   6.257   0.664   0.905
 9890WAT     H129912   6.202   0.746   0.921
 9890WAT     H229913   6.244   0.600   0.981
 9891WAT      O29914   8.971   6.697   0.411
 9891WAT     H129915   8.989   6.771   0.476
 9891WAT     H229916   8.894   6.724   0.352
 9892WAT      O29917   9.268   2.995   8.107
 9892WAT     H129918   9.264   2.932   8.185
 9892WAT     H229919   9.347   3.054   8.115
 9893WAT      O29920   5.184   4.105   7.688
 9893WAT     H129921   5.109   4.100   7.622
 9893WAT     H229922   5.233   4.018   7.688
 9894WAT      O29923   9.659   6.885   2.401
 9894WAT     H129924   9.605   6.953   2.451
 9894WAT     H229925   9.693   6.816   2.465
 9895WAT      O29926   3.599   3.440   1.275
 9895WAT     H129927   3.636   3.356   1.236
 9895WAT     H229928   3.662   3.477   1.343
 9896WAT      O29929   4.085   4.361   2.270
 9896WAT     H129930   4.093   4.282   2.209
 9896WAT     H229931   3.993   4.362   2.311
 9897WAT      O29932   6.352   8.407   2.891
 9897WAT     H129933   6.427   8.390   2.955
 9897WAT     H229934   6.270   8.432   2.941
 9898WAT      O29935   0.313   4.376   1.367
 9898WAT     H129936   0.386   4.441   1.345
 9898WAT     H229937   0.288   4.325   1.285
 9899WAT      O29938   8.530   7.759   5.542
 9899WAT     H129939   8.529   7.672   5.590
 9899WAT     H229940   8.594   7.822   5.587
 9900WAT      O29941   5.148   2.209   1.330
 9900WAT     H129942   5.129   2.218   1.427
 9900WAT     H229943   5.244   2.184   1.316
 9901WAT      O29944   6.446   7.161   2.657
 9901WAT     H129945   6.421   7.086   2.596
 9901WAT     H229946   6.497   7.230   2.607
 9902WAT      O29947   1.574   2.779   7.194
 9902WAT     H129948   1.673   2.793   7.186
 9902WAT     H229949   1.544   2.716   7.122
 9903WAT      O29950   4.779   2.320   0.267
 9903WAT     H129951   4.811   2.354   0.179
 9903WAT     H229952   4.713   2.385   0.305
 9904WAT      O29953   3.625   6.887   4.702
 9904WAT     H129954   3.573   6.805   4.680
 9904WAT     H229955   3.649   6.887   4.799
 9905WAT      O29956   9.702   1.071   4.679
 9905WAT     H129957   9.666   0.991   4.632
 9905WAT     H229958   9.650   1.153   4.652
 9906WAT      O29959   3.698   7.901   9.760
 9906WAT     H129960   3.660   7.866   9.845
 9906WAT     H229961   3.670   7.842   9.684
 9907WAT      O29962   5.430   2.763   5.269
 9907WAT     H129963   5.468   2.806   5.351
 9907WAT     H229964   5.502   2.714   5.221
 9908WAT      O29965   9.224   6.665   8.375
 9908WAT     H129966   9.140   6.619   8.405
 9908WAT     H229967   9.301   6.632   8.429
 9909WAT      O29968   5.675   4.478   8.301
 9909WAT     H129969   5.609   4.512   8.234
 9909WAT     H229970   5.721   4.555   8.344
 9910WAT      O29971   4.402   5.993   1.188
 9910WAT     H129972   4.342   5.937   1.245
 9910WAT     H229973   4.454   6.056   1.245
 9911WAT      O29974   3.136   2.915   6.150
 9911WAT     H129975   3.037   2.920   6.141
 9911WAT     H229976   3.179   2.951   6.067
 9912WAT      O29977   6.821   0.647   8.494
 9912WAT     H129978   6.870   0.560   8.502
 9912WAT     H229979   6.887   0.722   8.491
 9913WAT      O29980   2.157   2.436   2.221
 9913WAT     H129981   2.145   2.442   2.122
 9913WAT     H229982   2.086   2.491   2.266
 9914WAT      O29983   4.411   9.406   5.585
 9914WAT     H129984   4.483   9.418   5.653
 9914WAT     H229985   4.339   9.475   5.599
 9915WAT      O29986   8.093   5.071   3.269
 9915WAT     H129987   8.066   5.159   3.230
 9915WAT     H229988   8.078   5.073   3.368
 9916WAT      O29989   2.273   5.109   1.335
 9916WAT     H129990   2.320   5.021   1.342
 9916WAT     H229991   2.197   5.111   1.401
 9917WAT      O29992   1.032   3.346   1.643
 9917WAT     H129993   0.966   3.393   1.701
 9917WAT     H229994   0.996   3.256   1.618
 9918WAT      O29995   3.546   6.633   5.035
 9918WAT     H129996   3.540   6.548   5.086
 9918WAT     H229997   3.476   6.697   5.068
 9919WAT      O29998   7.113   6.936   3.933
 9919WAT     H129999   7.122   7.014   3.996
 9919WAT     H230000   7.055   6.962   3.856
 9920WAT      O30001   3.523   1.645   3.148
 9920WAT     H130002   3.459   1.661   3.224
 9920WAT     H230003   3.609   1.611   3.184
 9921WAT      O30004   6.883   6.628   3.132
 9921WAT     H130005   6.785   6.642   3.118
 9921WAT     H230006   6.899   6.534   3.160
 9922WAT      O30007   0.374   3.546   4.573
 9922WAT     H130008   0.314   3.626   4.564
 9922WAT     H230009   0.320   3.462   4.565
 9923WAT      O30010   0.977   2.349   3.012
 9923WAT     H130011   0.943   2.373   2.922
 9923WAT     H230012   0.923   2.274   3.050
 9924WAT      O30013   9.591   1.331   6.764
 9924WAT     H130014   9.688   1.345   6.746
 9924WAT     H230015   9.554   1.266   6.698
 9925WAT      O30016   0.916   6.342   2.122
 9925WAT     H130017   0.987   6.329   2.192
 9925WAT     H230018   0.890   6.438   2.119
 9926WAT      O30019   2.659   2.159   7.834
 9926WAT     H130020   2.718   2.239   7.851
 9926WAT     H230021   2.645   2.108   7.919
 9927WAT      O30022   2.393   7.723   6.880
 9927WAT     H130023   2.448   7.739   6.798
 9927WAT     H230024   2.451   7.688   6.953
 9928WAT      O30025   1.069   4.957   2.126
 9928WAT     H130026   1.068   4.886   2.196
 9928WAT     H230027   1.149   4.944   2.068
 9929WAT      O30028   8.406   7.125   2.322
 9929WAT     H130029   8.454   7.122   2.234
 9929WAT     H230030   8.328   7.187   2.315
 9930WAT      O30031   6.122   9.572   4.542
 9930WAT     H130032   6.218   9.599   4.533
 9930WAT     H230033   6.065   9.634   4.488
 9931WAT      O30034   9.516   2.338   3.200
 9931WAT     H130035   9.575   2.393   3.141
 9931WAT     H230036   9.485   2.392   3.278
 9932WAT      O30037   8.850   5.728   8.174
 9932WAT     H130038   8.775   5.662   8.166
 9932WAT     H230039   8.933   5.682   8.205
 9933WAT      O30040   9.623   0.175   7.556
 9933WAT     H130041   9.689   0.107   7.525
 9933WAT     H230042   9.648   0.206   7.648
 9934WAT      O30043   7.765   7.499   2.726
 9934WAT     H130044   7.684   7.441   2.731
 9934WAT     H230045   7.813   7.497   2.813
 9935WAT      O30046   6.254   1.311   7.670
 9935WAT     H130047   6.195   1.280   7.595
 9935WAT     H230048   6.267   1.236   7.735
 9936WAT      O30049   9.228   7.806   8.786
 9936WAT     H130050   9.189   7.714   8.777
 9936WAT     H230051   9.298   7.819   8.716
 9937WAT      O30052   1.766   4.888   9.864
 9937WAT     H130053   1.778   4.864   9.961
 9937WAT     H230054   1.835   4.840   9.809
 9938WAT      O30055   2.997   8.859   3.333
 9938WAT     H130056   3.079   8.831   3.284
 9938WAT     H230057   2.984   8.958   3.324
 9939WAT      O30058   8.144   8.804   2.567
 9939WAT     H130059   8.055   8.769   2.538
 9939WAT     H230060   8.132   8.868   2.642
 9940WAT      O30061   6.580   0.287   9.532
 9940WAT     H130062   6.577   0.187   9.524
 9940WAT     H230063   6.676   0.317   9.538
 9941WAT      O30064   7.367   2.097   5.508
 9941WAT     H130065   7.432   2.104   5.583
 9941WAT     H230066   7.408   2.044   5.433
 9942WAT      O30067   1.084   3.430   9.173
 9942WAT     H130068   1.134   3.508   9.136
 9942WAT     H230069   0.989   3.433   9.142
 9943WAT      O30070   0.772   5.081   5.752
 9943WAT     H130071   0.738   4.989   5.771
 9943WAT     H230072   0.747   5.107   5.658
 9944WAT      O30073   7.899   8.224   3.452
 9944WAT     H130074   7.800   8.234   3.448
 9944WAT     H230075   7.927   8.205   3.546
 9945WAT      O30076   9.726   4.659   0.920
 9945WAT     H130077   9.688   4.698   0.836
 9945WAT     H230078   9.814   4.617   0.900
 9946WAT      O30079   0.640   7.742   2.194
 9946WAT     H130080   0.687   7.775   2.276
 9946WAT     H230081   0.653   7.808   2.119
 9947WAT      O30082   0.057   9.765   2.468
 9947WAT     H130083   0.123   9.696   2.497
 9947WAT     H230084   0.098   9.856   2.477
 9948WAT      O30085   9.200   7.262   3.414
 9948WAT     H130086   9.262   7.267   3.336
 9948WAT     H230087   9.213   7.341   3.473
 9949WAT      O30088   4.450   4.683   6.232
 9949WAT     H130089   4.526   4.745   6.210
 9949WAT     H230090   4.484   4.607   6.287
 9950WAT      O30091   5.169   8.758   9.433
 9950WAT     H130092   5.228   8.789   9.508
 9950WAT     H230093   5.220   8.694   9.376
 9951WAT      O30094   6.181   6.026   8.685
 9951WAT     H130095   6.119   6.079   8.626
 9951WAT     H230096   6.158   6.042   8.781
 9952WAT      O30097   0.779   7.469   4.662
 9952WAT     H130098   0.863   7.451   4.712
 9952WAT     H230099   0.718   7.525   4.718
 9953WAT      O30100   1.464   7.328   7.421
 9953WAT     H130101   1.472   7.418   7.465
 9953WAT     H230102   1.555   7.286   7.416
 9954WAT      O30103   1.858   2.873   1.918
 9954WAT     H130104   1.911   2.809   1.862
 9954WAT     H230105   1.917   2.911   1.989
 9955WAT      O30106   2.114   0.464   3.243
 9955WAT     H130107   2.068   0.551   3.258
 9955WAT     H230108   2.154   0.431   3.328
 9956WAT      O30109   5.196   7.663   2.081
 9956WAT     H130110   5.250   7.580   2.064
 9956WAT     H230111   5.100   7.637   2.097
 9957WAT      O30112   5.276   2.455   1.280
 9957WAT     H130113   5.225   2.369   1.273
 9957WAT     H230114   5.362   2.439   1.329
 9958WAT      O30115   9.705   7.721   5.599
 9958WAT     H130116   9.689   7.741   5.696
 9958WAT     H230117   9.659   7.789   5.542
 9959WAT      O30118   6.261   4.530   0.467
 9959WAT     H130119   6.210   4.598   0.521
 9959WAT     H230120   6.349   4.569   0.440
 9960WAT      O30121   0.799   5.466   1.914
 9960WAT     H130122   0.766   5.374   1.932
 9960WAT     H230123   0.759   5.500   1.829
 9961WAT      O30124   8.243   2.599   8.546
 9961WAT     H130125   8.242   2.505   8.580
 9961WAT     H230126   8.320   2.611   8.483
 9962WAT      O30127   0.749   3.871   0.485
 9962WAT     H130128   0.836   3.830   0.454
 9962WAT     H230129   0.702   3.806   0.545
 9963WAT      O30130   3.743   1.750   5.034
 9963WAT     H130131   3.836   1.784   5.049
 9963WAT     H230132   3.716   1.693   5.112
 9964WAT      O30133   7.269   5.185   2.399
 9964WAT     H130134   7.280   5.102   2.345
 9964WAT     H230135   7.265   5.264   2.338
 9965WAT      O30136   2.668   2.230   5.900
 9965WAT     H130137   2.717   2.183   5.974
 9965WAT     H230138   2.580   2.262   5.934
 9966WAT      O30139   9.750   3.582   5.366
 9966WAT     H130140   9.788   3.672   5.389
 9966WAT     H230141   9.825   3.522   5.337
 9967WAT      O30142   5.608   5.509   7.682
 9967WAT     H130143   5.637   5.534   7.590
 9967WAT     H230144   5.531   5.567   7.710
 9968WAT      O30145   1.978   1.257   1.978
 9968WAT     H130146   1.928   1.322   2.034
 9968WAT     H230147   2.051   1.215   2.033
 9969WAT      O30148   0.839   8.222   7.630
 9969WAT     H130149   0.747   8.213   7.592
 9969WAT     H230150   0.833   8.248   7.726
 9970WAT      O30151   2.238   3.648   7.370
 9970WAT     H130152   2.253   3.555   7.405
 9970WAT     H230153   2.180   3.644   7.289
 9971WAT      O30154   4.663   7.802   9.283
 9971WAT     H130155   4.644   7.707   9.308
 9971WAT     H230156   4.751   7.807   9.238
 9972WAT      O30157   5.047   5.722   6.389
 9972WAT     H130158   5.055   5.793   6.458
 9972WAT     H230159   5.076   5.634   6.429
 9973WAT      O30160   7.978   4.077   7.244
 9973WAT     H130161   7.999   3.981   7.263
 9973WAT     H230162   7.918   4.083   7.164
 9974WAT      O30163   4.554   0.712   5.373
 9974WAT     H130164   4.608   0.774   5.316
 9974WAT     H230165   4.457   0.731   5.362
 9975WAT      O30166   1.566   7.923   5.876
 9975WAT     H130167   1.556   8.016   5.839
 9975WAT     H230168   1.561   7.927   5.976
 9976WAT      O30169   7.264   5.580   8.504
 9976WAT     H130170   7.182   5.540   8.462
 9976WAT     H230171   7.285   5.667   8.459
 9977WAT      O30172   7.581   3.626   9.172
 9977WAT     H130173   7.503   3.688   9.161
 9977WAT     H230174   7.567   3.569   9.253
 9978WAT      O30175   0.804   8.946   1.281
 9978WAT     H130176   0.903   8.933   1.270
 9978WAT     H230177   0.757   8.860   1.259
 9979WAT      O30178   5.940   6.666   9.707
 9979WAT     H130179   6.039   6.654   9.708
 9979WAT     H230180   5.916   6.749   9.657
 9980WAT      O30181   0.993   3.017   3.159
 9980WAT     H130182   0.901   2.979   3.152
 9980WAT     H230183   1.056   2.947   3.193
 9981WAT      O30184   2.575   6.472   9.063
 9981WAT     H130185   2.525   6.413   9.127
 9981WAT     H230186   2.511   6.531   9.015
 9982WAT      O30187   7.170   9.647   8.827
 9982WAT     H130188   7.230   9.727   8.823
 9982WAT     H230189   7.145   9.628   8.922
 9983WAT      O30190   8.219   4.809   1.772
 9983WAT     H130191   8.188   4.721   1.737
 9983WAT     H230192   8.145   4.854   1.821
 9984WAT      O30193   3.976   2.046   2.257
 9984WAT     H130194   3.992   2.107   2.178
 9984WAT     H230195   3.985   1.951   2.228
 9985WAT      O30196   8.648   7.785   5.030
 9985WAT     H130197   8.559   7.741   5.021
 9985WAT     H230198   8.710   7.749   4.960
 9986WAT      O30199   1.351   0.782   6.510
 9986WAT     H130200   1.257   0.816   6.511
 9986WAT     H230201   1.362   0.710   6.578
 9987WAT      O30202   4.500   9.079   6.223
 9987WAT     H130203   4.480   9.004   6.161
 9987WAT     H230204   4.520   9.043   6.314
 9988WAT      O30205   6.845   3.809   6.630
 9988WAT     H130206   6.804   3.737   6.687
 9988WAT     H230207   6.942   3.788   6.615
 9989WAT      O30208   5.054   2.320   2.094
 9989WAT     H130209   4.966   2.283   2.122
 9989WAT     H230210   5.083   2.279   2.008
 9990WAT      O30211   2.965   5.912   0.459
 9990WAT     H130212   2.931   5.942   0.370
 9990WAT     H230213   2.930   5.973   0.531
 9991WAT      O30214   3.251   1.790   4.369
 9991WAT     H130215   3.310   1.776   4.449
 9991WAT     H230216   3.235   1.888   4.356
 9992WAT      O30217   9.616   4.729   6.389
 9992WAT     H130218   9.701   4.697   6.348
 9992WAT     H230219   9.618   4.828   6.399
 9993WAT      O30220   6.567   5.380   0.519
 9993WAT     H130221   6.502   5.326   0.464
 9993WAT     H230222   6.658   5.339   0.512
 9994WAT      O30223   6.905   0.849   4.710
 9994WAT     H130224   6.950   0.773   4.756
 9994WAT     H230225   6.853   0.902   4.777
 9995WAT      O30226   0.143   1.984   4.591
 9995WAT     H130227   0.240   1.962   4.596
 9995WAT     H230228   0.110   2.012   4.681
 9996WAT      O30229   7.345   8.526   2.496
 9996WAT     H130230   7.246   8.515   2.494
 9996WAT     H230231   7.388   8.438   2.475
 9997WAT      O30232   4.836   8.127   0.362
 9997WAT     H130233   4.857   8.214   0.317
 9997WAT     H230234   4.901   8.112   0.437
 9998WAT      O30235   3.552   4.795   8.636
 9998WAT     H130236   3.581   4.712   8.685
 9998WAT     H230237   3.584   4.790   8.542
 9999WAT      O30238   6.216   8.433   1.290
 9999WAT     H130239   6.307   8.394   1.281
 9999WAT     H230240   6.162   8.411   1.208
10000WAT      O30241   3.843   2.788   6.432
10000WAT     H130242   3.868   2.883   6.414
10000WAT     H230243   3.759   2.765   6.383
10001WAT      O30244   7.984   4.941   6.428
10001WAT     H130245   8.036   4.996   6.362
10001WAT     H230246   7.898   4.987   6.449
10002WAT      O30247   6.500   1.842   7.326
10002WAT     H130248   6.434   1.844   7.251
10002WAT     H230249   6.500   1.751   7.367
10003WAT      O30250   4.379   8.536   0.997
10003WAT     H130251   4.465   8.491   1.019
10003WAT     H230252   4.324   8.476   0.939
10004WAT      O30253   0.598   8.715   9.786
10004WAT     H130254   0.544   8.632   9.774
10004WAT     H230255   0.654   8.707   9.869
10005WAT      O30256   5.820   6.191   4.792
10005WAT     H130257   5.895   6.217   4.853
10005WAT     H230258   5.855   6.131   4.720
10006WAT      O30259   3.229   7.431   0.816
10006WAT     H130260   3.222   7.475   0.906
10006WAT     H230261   3.304   7.365   0.817
10007WAT      O30262   9.617   1.048   9.728
10007WAT     H130263   9.643   1.119   9.793
10007WAT     H230264   9.674   1.055   9.646
10008WAT      O30265   0.714   4.529   8.369
10008WAT     H130266   0.648   4.594   8.405
10008WAT     H230267   0.709   4.529   8.269
10009WAT      O30268   2.577   9.247   0.944
10009WAT     H130269   2.675   9.242   0.962
10009WAT     H230270   2.544   9.338   0.969
10010WAT      O30271   3.423   1.040   0.523
10010WAT     H130272   3.456   1.134   0.520
10010WAT     H230273   3.328   1.037   0.491
10011WAT      O30274   7.799   2.832   6.502
10011WAT     H130275   7.869   2.893   6.539
10011WAT     H230276   7.811   2.825   6.403
10012WAT      O30277   2.734   0.145   8.629
10012WAT     H130278   2.686   0.187   8.706
10012WAT     H230279   2.774   0.217   8.572
10013WAT      O30280   0.565   1.260   7.270
10013WAT     H130281   0.617   1.175   7.267
10013WAT     H230282   0.507   1.267   7.189
10014WAT      O30283   7.401   6.135   4.685
10014WAT     H130284   7.374   6.060   4.745
10014WAT     H230285   7.487   6.112   4.639
10015WAT      O30286   4.209   3.827   5.443
10015WAT     H130287   4.178   3.745   5.395
10015WAT     H230288   4.289   3.865   5.396
10016WAT      O30289   2.860   0.383   8.513
10016WAT     H130290   2.959   0.376   8.518
10016WAT     H230291   2.830   0.464   8.562
10017WAT      O30292   7.053   4.181   0.541
10017WAT     H130293   7.029   4.117   0.468
10017WAT     H230294   7.152   4.190   0.547
10018WAT      O30295   5.753   8.413   0.680
10018WAT     H130296   5.816   8.390   0.605
10018WAT     H230297   5.675   8.464   0.643
10019WAT      O30298   0.962   4.588   9.117
10019WAT     H130299   0.951   4.533   9.034
10019WAT     H230300   0.875   4.596   9.164
10020WAT      O30301   9.683   2.635   0.259
10020WAT     H130302   9.683   2.708   0.327
10020WAT     H230303   9.592   2.625   0.221
10021WAT      O30304   4.578   8.125   2.265
10021WAT     H130305   4.497   8.182   2.255
10021WAT     H230306   4.553   8.029   2.250
10022WAT      O30307   9.827   9.518   8.995
10022WAT     H130308   9.802   9.613   8.978
10022WAT     H230309   9.812   9.464   8.912
10023WAT      O30310   0.085   8.367   5.016
10023WAT     H130311   0.126   8.290   5.064
10023WAT     H230312   0.133   8.452   5.040
10024WAT      O30313   9.729   4.835   5.509
10024WAT     H130314   9.784   4.758   5.477
10024WAT     H230315   9.664   4.803   5.578
10025WAT      O30316   9.078   0.226   8.017
10025WAT     H130317   9.044   0.294   8.083
10025WAT     H230318   9.006   0.207   7.950
10026WAT      O30319   2.956   9.390   9.631
10026WAT     H130320   3.028   9.408   9.698
10026WAT     H230321   2.926   9.295   9.640
10027WAT      O30322   6.269   6.419   6.178
10027WAT     H130323   6.368   6.429   6.193
10027WAT     H230324   6.220   6.483   6.237
10028WAT      O30325   4.820   6.765   1.039
10028WAT     H130326   4.864   6.843   0.993
10028WAT     H230327   4.751   6.799   1.103
10029WAT      O30328   4.681   0.816   7.069
10029WAT     H130329   4.589   0.801   7.105
10029WAT     H230330   4.712   0.908   7.093
10030WAT      O30331   8.350   4.808   2.322
10030WAT     H130332   8.309   4.721   2.347
10030WAT     H230333   8.443   4.813   2.360
10031WAT      O30334   8.012   2.546   8.183
10031WAT     H130335   8.000   2.593   8.096
10031WAT     H230336   8.013   2.612   8.257
10032WAT      O30337   8.076   1.226   9.677
10032WAT     H130338   8.127   1.178   9.607
10032WAT     H230339   8.037   1.160   9.742
10033WAT      O30340   9.623   1.362   1.377
10033WAT     H130341   9.585   1.336   1.465
10033WAT     H230342   9.711   1.407   1.390
10034WAT      O30343   1.810   3.072   3.754
10034WAT     H130344   1.808   2.972   3.745
10034WAT     H230345   1.810   3.113   3.662
10035WAT      O30346   5.714   0.551   1.838
10035WAT     H130347   5.681   0.491   1.911
10035WAT     H230348   5.765   0.628   1.878
10036WAT      O30349   8.490   1.160   1.247
10036WAT     H130350   8.400   1.158   1.290
10036WAT     H230351   8.551   1.219   1.299
10037WAT      O30352   8.235   8.345   5.910
10037WAT     H130353   8.144   8.338   5.870
10037WAT     H230354   8.283   8.258   5.899
10038WAT      O30355   9.576   8.814   0.366
10038WAT     H130356   9.560   8.867   0.449
10038WAT     H230357   9.489   8.800   0.318
10039WAT      O30358   5.146   5.177   8.501
10039WAT     H130359   5.127   5.202   8.406
10039WAT     H230360   5.064   5.136   8.542
10040WAT      O30361   5.325   7.684   7.286
10040WAT     H130362   5.356   7.779   7.288
10040WAT     H230363   5.304   7.658   7.192
10041WAT      O30364   8.999   5.508   3.188
10041WAT     H130365   8.969   5.543   3.100
10041WAT     H230366   8.922   5.468   3.237
10042WAT      O30367   3.149   4.897   0.424
10042WAT     H130368   3.217   4.963   0.456
10042WAT     H230369   3.102   4.934   0.344
10043WAT      O30370   0.668   5.948   9.853
10043WAT     H130371   0.678   5.974   9.757
10043WAT     H230372   0.619   6.020   9.902
10044WAT      O30373   3.034   5.713   6.900
10044WAT     H130374   2.948   5.756   6.871
10044WAT     H230375   3.046   5.627   6.851
10045WAT      O30376   0.373   7.337   5.501
10045WAT     H130377   0.362   7.436   5.486
10045WAT     H230378   0.402   7.321   5.595
10046WAT      O30379   4.302   3.965   0.369
10046WAT     H130380   4.241   3.911   0.311
10046WAT     H230381   4.397   3.951   0.340
10047WAT      O30382   8.056   2.254   5.475
10047WAT     H130383   7.984   2.318   5.502
10047WAT     H230384   8.018   2.161   5.473
10048WAT      O30385   3.130   6.873   8.476
10048WAT     H130386   3.178   6.789   8.498
10048WAT     H230387   3.139   6.891   8.378
10049WAT      O30388   8.566   4.736   6.936
10049WAT     H130389   8.517   4.741   7.023
10049WAT     H230390   8.607   4.825   6.916
10050WAT      O30391   4.342   5.776   7.233
10050WAT     H130392   4.387   5.694   7.197
10050WAT     H230393   4.298   5.825   7.158
10051WAT      O30394   3.070   1.240   8.699
10051WAT     H130395   2.989   1.279   8.655
10051WAT     H230396   3.075   1.143   8.678
10052WAT      O30397   0.251   6.819   9.822
10052WAT     H130398   0.285   6.737   9.868
10052WAT     H230399   0.323   6.858   9.765
10053WAT      O30400   3.417   8.436   1.235
10053WAT     H130401   3.410   8.536   1.237
10053WAT     H230402   3.512   8.409   1.254
10054WAT      O30403   7.786   6.512   4.318
10054WAT     H130404   7.697   6.527   4.361
10054WAT     H230405   7.855   6.494   4.388
10055WAT      O30406   4.069   4.050   1.581
10055WAT     H130407   4.151   4.050   1.524
10055WAT     H230408   3.989   4.070   1.523
10056WAT      O30409   5.674   8.143   7.417
10056WAT     H130410   5.743   8.202   7.460
10056WAT     H230411   5.715   8.056   7.393
10057WAT      O30412   6.415   4.290   0.161
10057WAT     H130413   6.398   4.289   0.259
10057WAT     H230414   6.331   4.314   0.112
10058WAT      O30415   6.795   9.291   6.374
10058WAT     H130416   6.714   9.284   6.433
10058WAT     H230417   6.841   9.202   6.371
10059WAT      O30418   2.219   4.068   6.000
10059WAT     H130419   2.255   4.161   6.002
10059WAT     H230420   2.172   4.052   5.913
10060WAT      O30421   5.476   3.675   0.309
10060WAT     H130422   5.472   3.715   0.217
10060WAT     H230423   5.571   3.658   0.334
10061WAT      O30424   3.426   7.642   8.418
10061WAT     H130425   3.492   7.691   8.473
10061WAT     H230426   3.448   7.653   8.321
10062WAT      O30427   8.370   1.890   9.584
10062WAT     H130428   8.448   1.827   9.588
10062WAT     H230429   8.402   1.983   9.602
10063WAT      O30430   5.220   5.933   2.340
10063WAT     H130431   5.264   5.874   2.272
10063WAT     H230432   5.123   5.944   2.318
10064WAT      O30433   0.321   0.855   9.263
10064WAT     H130434   0.366   0.774   9.302
10064WAT     H230435   0.257   0.826   9.192
10065WAT      O30436   4.492   7.947   9.894
10065WAT     H130437   4.495   7.869   9.830
10065WAT     H230438   4.439   8.021   9.853
10066WAT      O30439   5.171   8.071   6.989
10066WAT     H130440   5.215   8.139   7.048
10066WAT     H230441   5.172   7.982   7.034
10067WAT      O30442   0.893   7.297   4.194
10067WAT     H130443   0.900   7.283   4.293
10067WAT     H230444   0.915   7.392   4.172
10068WAT      O30445   1.895   4.462   4.831
10068WAT     H130446   1.827   4.443   4.903
10068WAT     H230447   1.987   4.463   4.872
10069WAT      O30448   4.534   5.108   3.631
10069WAT     H130449   4.465   5.092   3.702
10069WAT     H230450   4.625   5.105   3.673
10070WAT      O30451   9.258   3.619   5.022
10070WAT     H130452   9.317   3.553   4.975
10070WAT     H230453   9.299   3.642   5.110
10071WAT      O30454   1.083   8.486   0.571
10071WAT     H130455   1.017   8.559   0.555
10071WAT     H230456   1.071   8.415   0.502
10072WAT      O30457   4.280   1.123   4.114
10072WAT     H130458   4.323   1.051   4.059
10072WAT     H230459   4.269   1.206   4.060
10073WAT      O30460   1.497   6.111   3.864
10073WAT     H130461   1.434   6.059   3.806
10073WAT     H230462   1.458   6.201   3.883
10074WAT      O30463   3.523   1.133   5.565
10074WAT     H130464   3.437   1.142   5.513
10074WAT     H230465   3.558   1.225   5.585
10075WAT      O30466   0.622   4.291   8.486
10075WAT     H130467   0.658   4.375   8.445
10075WAT     H230468   0.528   4.306   8.516
10076WAT      O30469   2.075   4.973   5.316
10076WAT     H130470   2.005   4.919   5.269
10076WAT     H230471   2.061   4.966   5.415
10077WAT      O30472   2.558   9.208   0.276
10077WAT     H130473   2.552   9.294   0.225
10077WAT     H230474   2.467   9.182   0.309
10078WAT      O30475   2.492   7.103   3.972
10078WAT     H130476   2.467   7.117   4.068
10078WAT     H230477   2.448   7.173   3.916
10079WAT      O30478   1.325   3.276   2.881
10079WAT     H130479   1.336   3.267   2.782
10079WAT     H230480   1.259   3.209   2.914
10080WAT      O30481   9.819   4.597   4.305
10080WAT     H130482   9.786   4.589   4.399
10080WAT     H230483   9.919   4.591   4.304
10081WAT      O30484   2.326   7.697   3.561
10081WAT     H130485   2.315   7.733   3.468
10081WAT     H230486   2.266   7.619   3.574
10082WAT      O30487   7.658   7.763   2.043
10082WAT     H130488   7.679   7.696   2.114
10082WAT     H230489   7.744   7.797   2.004
10083WAT      O30490   8.256   1.359   1.199
10083WAT     H130491   8.283   1.360   1.295
10083WAT     H230492   8.207   1.275   1.178
10084WAT      O30493   1.533   4.488   3.328
10084WAT     H130494   1.538   4.568   3.387
10084WAT     H230495   1.557   4.406   3.379
10085WAT      O30496   1.298   2.041   4.095
10085WAT     H130497   1.346   1.955   4.073
10085WAT     H230498   1.323   2.070   4.187
10086WAT      O30499   0.455   8.327   2.378
10086WAT     H130500   0.513   8.312   2.458
10086WAT     H230501   0.456   8.423   2.353
10087WAT      O30502   0.776   4.132   0.939
10087WAT     H130503   0.834   4.064   0.895
10087WAT     H230504   0.742   4.097   1.026
10088WAT      O30505   3.287   4.396   5.009
10088WAT     H130506   3.187   4.389   4.997
10088WAT     H230507   3.326   4.304   5.015
10089WAT      O30508   5.321   8.218   6.568
10089WAT     H130509   5.277   8.138   6.609
10089WAT     H230510   5.254   8.292   6.559
10090WAT      O30511   6.351   3.285   3.893
10090WAT     H130512   6.332   3.246   3.983
10090WAT     H230513   6.358   3.385   3.901
10091WAT      O30514   7.977   0.550   1.028
10091WAT     H130515   7.907   0.608   0.987
10091WAT     H230516   8.005   0.589   1.116
10092WAT      O30517   4.567   7.030   7.666
10092WAT     H130518   4.554   7.059   7.761
10092WAT     H230519   4.650   6.975   7.659
10093WAT      O30520   4.161   5.562   6.012
10093WAT     H130521   4.125   5.629   6.077
10093WAT     H230522   4.086   5.512   5.971
10094WAT      O30523   4.293   8.346   7.986
10094WAT     H130524   4.250   8.258   7.967
10094WAT     H230525   4.379   8.330   8.035
10095WAT      O30526   3.793   9.442   1.216
10095WAT     H130527   3.808   9.344   1.208
10095WAT     H230528   3.868   9.483   1.269
10096WAT      O30529   7.879   6.129   9.191
10096WAT     H130530   7.958   6.118   9.251
10096WAT     H230531   7.798   6.094   9.236
10097WAT      O30532   7.095   3.518   1.382
10097WAT     H130533   7.157   3.458   1.331
10097WAT     H230534   7.014   3.466   1.411
10098WAT      O30535   8.940   1.571   1.788
10098WAT     H130536   8.860   1.606   1.740
10098WAT     H230537   8.911   1.515   1.865
10099WAT      O30538   6.548   7.563   4.355
10099WAT     H130539   6.471   7.621   4.385
10099WAT     H230540   6.517   7.503   4.281
10100WAT      O30541   4.826   0.047   9.215
10100WAT     H130542   4.877   0.088   9.292
10100WAT     H230543   4.878  -0.029   9.177
10101WAT      O30544   0.303   2.997   9.032
10101WAT     H130545   0.260   3.010   9.121
10101WAT     H230546   0.369   3.070   9.016
10102WAT      O30547   7.449   5.935   2.321
10102WAT     H130548   7.397   5.972   2.244
10102WAT     H230549   7.386   5.894   2.387
10103WAT      O30550   0.581   1.624   6.601
10103WAT     H130551   0.523   1.696   6.639
10103WAT     H230552   0.674   1.659   6.589
10104WAT      O30553   7.205   6.925   6.742
10104WAT     H130554   7.124   6.957   6.694
10104WAT     H230555   7.187   6.924   6.840
10105WAT      O30556   0.976   1.997   6.270
10105WAT     H130557   0.917   2.028   6.195
10105WAT     H230558   1.069   1.985   6.237
10106WAT      O30559   8.483   9.015   0.995
10106WAT     H130560   8.478   9.110   0.962
10106WAT     H230561   8.414   8.960   0.948
10107WAT      O30562   8.973   6.302   8.383
10107WAT     H130563   9.018   6.295   8.293
10107WAT     H230564   8.942   6.395   8.397
10108WAT      O30565   9.355   7.685   0.441
10108WAT     H130566   9.335   7.781   0.462
10108WAT     H230567   9.309   7.659   0.356
10109WAT      O30568   6.638   8.489   1.992
10109WAT     H130569   6.701   8.566   1.984
10109WAT     H230570   6.592   8.494   2.081
10110WAT      O30571   0.367   3.779   4.845
10110WAT     H130572   0.452   3.760   4.795
10110WAT     H230573   0.386   3.839   4.922
10111WAT      O30574   8.339   2.507   9.791
10111WAT     H130575   8.269   2.546   9.850
10111WAT     H230576   8.420   2.566   9.792
10112WAT      O30577   9.546   1.410   2.288
10112WAT     H130578   9.529   1.328   2.342
10112WAT     H230579   9.590   1.386   2.202
10113WAT      O30580   5.665   8.011   0.801
10113WAT     H130581   5.608   7.948   0.854
10113WAT     H230582   5.761   7.995   0.822
10114WAT      O30583   8.703   3.450   0.775
10114WAT     H130584   8.629   3.423   0.712
10114WAT     H230585   8.729   3.373   0.832
10115WAT      O30586   5.625   7.532   2.398
10115WAT     H130587   5.529   7.510   2.382
10115WAT     H230588   5.677   7.447   2.410
10116WAT      O30589   3.842   0.730   6.962
10116WAT     H130590   3.833   0.646   7.015
10116WAT     H230591   3.871   0.805   7.022
10117WAT      O30592   2.801   3.283   6.162
10117WAT     H130593   2.727   3.320   6.107
10117WAT     H230594   2.802   3.183   6.155
10118WAT      O30595   7.259   0.106   9.730
10118WAT     H130596   7.252   0.133   9.634
10118WAT     H230597   7.210   0.171   9.787
10119WAT      O30598   8.877   8.503   1.161
10119WAT     H130599   8.913   8.558   1.237
10119WAT     H230600   8.782   8.480   1.180
10120WAT      O30601   4.577   5.421   1.062
10120WAT     H130602   4.497   5.386   1.014
10120WAT     H230603   4.634   5.474   1.000
10121WAT      O30604   1.073   2.912   4.964
10121WAT     H130605   0.995   2.899   5.025
10121WAT     H230606   1.051   2.982   4.896
10122WAT      O30607   8.078   5.714   4.416
10122WAT     H130608   8.062   5.773   4.495
10122WAT     H230609   8.016   5.636   4.420
10123WAT      O30610   1.215   6.331   3.181
10123WAT     H130611   1.141   6.326   3.114
10123WAT     H230612   1.302   6.343   3.134
10124WAT      O30613   1.164   9.076   6.181
10124WAT     H130614   1.129   8.986   6.156
10124WAT     H230615   1.264   9.077   6.171
10125WAT      O30616   9.037   6.998   8.872
10125WAT     H130617   9.042   6.903   8.844
10125WAT     H230618   8.952   7.039   8.840
10126WAT      O30619   6.778   6.220   9.737
10126WAT     H130620   6.794   6.312   9.700
10126WAT     H230621   6.837   6.205   9.816
10127WAT      O30622   5.413   9.196   8.058
10127WAT     H130623   5.400   9.292   8.081
10127WAT     H230624   5.456   9.149   8.135
10128WAT      O30625   7.594   2.960   8.030
10128WAT     H130626   7.661   2.900   7.987
10128WAT     H230627   7.537   3.002   7.959
10129WAT      O30628   1.663   7.539   4.754
10129WAT     H130629   1.605   7.460   4.772
10129WAT     H230630   1.746   7.532   4.809
10130WAT      O30631   3.579   7.342   8.112
10130WAT     H130632   3.543   7.379   8.198
10130WAT     H230633   3.591   7.416   8.046
10131WAT      O30634   8.183   8.616   5.502
10131WAT     H130635   8.276   8.585   5.486
10131WAT     H230636   8.120   8.566   5.443
10132WAT      O30637   0.604   4.274   3.004
10132WAT     H130638   0.644   4.317   3.085
10132WAT     H230639   0.544   4.338   2.958
10133WAT      O30640   5.577   3.486   9.859
10133WAT     H130641   5.618   3.413   9.913
10133WAT     H230642   5.485   3.459   9.831
10134WAT      O30643   9.611   9.360   9.123
10134WAT     H130644   9.642   9.416   9.046
10134WAT     H230645   9.552   9.287   9.090
10135WAT      O30646   8.184   6.909   5.423
10135WAT     H130647   8.223   6.912   5.331
10135WAT     H230648   8.165   6.814   5.448
10136WAT      O30649   5.904   1.365   8.698
10136WAT     H130650   5.813   1.339   8.728
10136WAT     H230651   5.926   1.317   8.613
10137WAT      O30652   1.122   6.036   1.271
10137WAT     H130653   1.148   6.132   1.273
10137WAT     H230654   1.022   6.028   1.276
10138WAT      O30655   3.924   0.385   6.776
10138WAT     H130656   3.946   0.349   6.685
10138WAT     H230657   3.997   0.361   6.840
10139WAT      O30658   5.158   5.339   8.253
10139WAT     H130659   5.243   5.371   8.295
10139WAT     H230660   5.122   5.410   8.193
10140WAT      O30661   8.107   2.244   1.560
10140WAT     H130662   8.171   2.184   1.513
10140WAT     H230663   8.131   2.250   1.657
10141WAT      O30664   7.905   8.372   0.656
10141WAT     H130665   7.986   8.331   0.697
10141WAT     H230666   7.885   8.459   0.701
10142WAT      O30667   6.183   4.743   3.101
10142WAT     H130668   6.151   4.761   3.194
10142WAT     H230669   6.161   4.821   3.043
10143WAT      O30670   6.391   2.583   8.340
10143WAT     H130671   6.316   2.526   8.305
10143WAT     H230672   6.399   2.665   8.285
10144WAT      O30673   1.659   5.539   7.944
10144WAT     H130674   1.617   5.569   7.859
10144WAT     H230675   1.589   5.501   8.005
10145WAT      O30676   1.098   4.913   1.297
10145WAT     H130677   1.138   4.983   1.239
10145WAT     H230678   1.013   4.947   1.338
10146WAT      O30679   4.946   1.071   9.105
10146WAT     H130680   4.940   0.973   9.123
10146WAT     H230681   4.860   1.103   9.067
10147WAT      O30682   6.116   2.577   6.142
10147WAT     H130683   6.174   2.646   6.185
10147WAT     H230684   6.023   2.582   6.180
10148WAT      O30685   8.634   2.137   1.331
10148WAT     H130686   8.664   2.144   1.426
10148WAT     H230687   8.713   2.144   1.270
10149WAT      O30688   3.981   2.713   2.585
10149WAT     H130689   4.021   2.728   2.675
10149WAT     H230690   3.935   2.625   2.582
10150WAT      O30691   9.748   3.941   4.497
10150WAT     H130692   9.788   4.032   4.513
10150WAT     H230693   9.794   3.898   4.420
10151WAT      O30694   6.038   8.880   6.640
10151WAT     H130695   5.971   8.817   6.680
10151WAT     H230696   6.090   8.832   6.569
10152WAT      O30697   3.461   5.490   0.235
10152WAT     H130698   3.524   5.567   0.242
10152WAT     H230699   3.409   5.498   0.150
10153WAT      O30700   3.224   1.246   4.802
10153WAT     H130701   3.134   1.209   4.776
10153WAT     H230702   3.233   1.339   4.766
10154WAT      O30703   5.682   2.720   0.465
10154WAT     H130704   5.603   2.704   0.523
10154WAT     H230705   5.725   2.807   0.491
10155WAT      O30706   6.447   3.093   1.317
10155WAT     H130707   6.434   3.112   1.415
10155WAT     H230708   6.543   3.068   1.301
10156WAT      O30709   4.593   9.200   2.143
10156WAT     H130710   4.683   9.159   2.129
10156WAT     H230711   4.593   9.253   2.228
10157WAT      O30712   1.550   4.862   4.311
10157WAT     H130713   1.458   4.893   4.334
10157WAT     H230714   1.617   4.911   4.367
10158WAT      O30715   9.043   0.928   8.638
10158WAT     H130716   8.997   0.901   8.553
10158WAT     H230717   9.002   1.012   8.673
10159WAT      O30718   8.471   2.144   9.603
10159WAT     H130719   8.507   2.198   9.527
10159WAT     H230720   8.479   2.196   9.688
10160WAT      O30721   0.164   4.331   6.443
10160WAT     H130722   0.086   4.391   6.459
10160WAT     H230723   0.227   4.338   6.521
10161WAT      O30724   8.395   2.949   4.986
10161WAT     H130725   8.317   2.962   5.048
10161WAT     H230726   8.416   3.035   4.941
10162WAT      O30727   9.015   3.405   3.667
10162WAT     H130728   9.045   3.314   3.696
10162WAT     H230729   8.917   3.415   3.685
10163WAT      O30730   3.789   5.158   8.193
10163WAT     H130731   3.826   5.152   8.286
10163WAT     H230732   3.714   5.224   8.192
10164WAT      O30733   6.103   1.687   3.383
10164WAT     H130734   6.172   1.759   3.388
10164WAT     H230735   6.014   1.728   3.365
10165WAT      O30736   2.545   6.783   4.720
10165WAT     H130737   2.574   6.866   4.673
10165WAT     H230738   2.520   6.806   4.814
10166WAT      O30739   8.022   8.362   5.755
10166WAT     H130740   8.046   8.282   5.699
10166WAT     H230741   7.997   8.438   5.696
10167WAT      O30742   2.140   5.734   6.953
10167WAT     H130743   2.142   5.830   6.979
10167WAT     H230744   2.045   5.701   6.953
10168WAT      O30745   7.638   2.083   4.717
10168WAT     H130746   7.595   1.992   4.711
10168WAT     H230747   7.568   2.151   4.736
10169WAT      O30748   3.776   5.353   9.444
10169WAT     H130749   3.812   5.353   9.351
10169WAT     H230750   3.825   5.284   9.498
10170WAT      O30751   0.127   7.368   6.095
10170WAT     H130752   0.216   7.401   6.062
10170WAT     H230753   0.056   7.390   6.027
10171WAT      O30754   1.198   0.013   8.972
10171WAT     H130755   1.138  -0.051   9.020
10171WAT     H230756   1.145   0.092   8.942
10172WAT      O30757   4.384   0.088   3.751
10172WAT     H130758   4.420   0.082   3.844
10172WAT     H230759   4.299   0.139   3.751
10173WAT      O30760   7.210   8.127   9.874
10173WAT     H130761   7.146   8.100   9.946
10173WAT     H230762   7.303   8.104   9.902
10174WAT      O30763   1.150   5.240   3.540
10174WAT     H130764   1.193   5.315   3.590
10174WAT     H230765   1.220   5.175   3.511
10175WAT      O30766   5.856   4.155   3.877
10175WAT     H130767   5.902   4.068   3.860
10175WAT     H230768   5.901   4.203   3.953
10176WAT      O30769   6.321   6.707   0.250
10176WAT     H130770   6.274   6.629   0.209
10176WAT     H230771   6.413   6.679   0.278
10177WAT      O30772   9.269   0.171   4.253
10177WAT     H130773   9.284   0.257   4.206
10177WAT     H230774   9.261   0.187   4.351
10178WAT      O30775   2.412   1.219   7.803
10178WAT     H130776   2.509   1.215   7.779
10178WAT     H230777   2.364   1.282   7.742
10179WAT      O30778   4.193   1.216   7.946
10179WAT     H130779   4.169   1.190   8.040
10179WAT     H230780   4.244   1.301   7.947
10180WAT      O30781   3.789   4.337   1.944
10180WAT     H130782   3.812   4.263   1.881
10180WAT     H230783   3.805   4.308   2.038
10181WAT      O30784   8.090   8.191   1.251
10181WAT     H130785   8.014   8.235   1.203
10181WAT     H230786   8.057   8.145   1.332
10182WAT      O30787   8.102   8.961   1.494
10182WAT     H130788   8.145   8.914   1.571
10182WAT     H230789   8.173   9.004   1.438
10183WAT      O30790   5.060   2.043   5.106
10183WAT     H130791   4.996   1.994   5.047
10183WAT     H230792   5.083   1.986   5.185
10184WAT      O30793   1.650   3.599   0.965
10184WAT     H130794   1.628   3.632   0.873
10184WAT     H230795   1.577   3.539   0.997
10185WAT      O30796   0.231   7.896   7.509
10185WAT     H130797   0.145   7.938   7.539
10185WAT     H230798   0.254   7.929   7.418
10186WAT      O30799   0.606   7.293   9.483
10186WAT     H130800   0.705   7.306   9.476
10186WAT     H230801   0.559   7.363   9.430
10187WAT      O30802   0.787   2.109   3.368
10187WAT     H130803   0.769   2.177   3.439
10187WAT     H230804   0.794   2.018   3.409
10188WAT      O30805   0.749   8.608   8.134
10188WAT     H130806   0.832   8.609   8.078
10188WAT     H230807   0.762   8.548   8.212
10189WAT      O30808   7.724   0.505   9.219
10189WAT     H130809   7.820   0.530   9.215
10189WAT     H230810   7.674   0.550   9.145
10190WAT      O30811   7.560   2.776   8.764
10190WAT     H130812   7.584   2.688   8.724
10190WAT     H230813   7.465   2.798   8.741
10191WAT      O30814   0.551   3.507   5.185
10191WAT     H130815   0.487   3.435   5.156
10191WAT     H230816   0.611   3.529   5.108
10192WAT      O30817   6.072   0.937   5.397
10192WAT     H130818   6.006   0.918   5.324
10192WAT     H230819   6.165   0.931   5.361
10193WAT      O30820   9.244   8.593   8.472
10193WAT     H130821   9.317   8.531   8.444
10193WAT     H230822   9.173   8.595   8.402
10194WAT      O30823   8.073   2.993   4.442
10194WAT     H130824   8.171   2.986   4.455
10194WAT     H230825   8.028   3.009   4.530
10195WAT      O30826   1.428   8.421   7.980
10195WAT     H130827   1.358   8.448   8.046
10195WAT     H230828   1.384   8.394   7.894
10196WAT      O30829   6.338   4.732   4.643
10196WAT     H130830   6.307   4.648   4.598
10196WAT     H230831   6.410   4.774   4.588
10197WAT      O30832   6.486   3.053   9.689
10197WAT     H130833   6.565   3.008   9.731
10197WAT     H230834   6.509   3.077   9.594
10198WAT      O30835   5.138   6.077   9.447
10198WAT     H130836   5.039   6.078   9.438
10198WAT     H230837   5.166   6.137   9.522
10199WAT      O30838   1.463   3.340   1.757
10199WAT     H130839   1.495   3.249   1.733
10199WAT     H230840   1.541   3.401   1.770
10200WAT      O30841   1.489   4.146   8.401
10200WAT     H130842   1.433   4.222   8.368
10200WAT     H230843   1.516   4.089   8.324
10201WAT      O30844   1.654   9.062   5.979
10201WAT     H130845   1.709   8.979   5.987
10201WAT     H230846   1.713   9.139   5.954
10202WAT      O30847   3.479   0.292   3.112
10202WAT     H130848   3.550   0.289   3.041
10202WAT     H230849   3.518   0.326   3.197
10203WAT      O30850   9.696   3.098   0.887
10203WAT     H130851   9.688   2.998   0.887
10203WAT     H230852   9.738   3.129   0.973
10204WAT      O30853   4.821   4.960   7.659
10204WAT     H130854   4.851   4.930   7.750
10204WAT     H230855   4.841   5.057   7.647
10205WAT      O30856   6.947   3.772   1.811
10205WAT     H130857   6.889   3.693   1.830
10205WAT     H230858   7.014   3.783   1.884
10206WAT      O30859   8.539   0.731   5.549
10206WAT     H130860   8.440   0.720   5.544
10206WAT     H230861   8.583   0.662   5.492
10207WAT      O30862   6.977   9.072   3.868
10207WAT     H130863   7.016   9.148   3.919
10207WAT     H230864   6.893   9.101   3.822
10208WAT      O30865   8.992   1.620   6.063
10208WAT     H130866   9.036   1.531   6.051
10208WAT     H230867   9.006   1.651   6.157
10209WAT      O30868   1.348   7.743   0.516
10209WAT     H130869   1.390   7.682   0.448
10209WAT     H230870   1.413   7.815   0.540
10210WAT      O30871   1.731   9.124   2.545
10210WAT     H130872   1.803   9.123   2.614
10210WAT     H230873   1.649   9.167   2.582
10211WAT      O30874   1.800   8.432   3.478
10211WAT     H130875   1.883   8.459   3.527
10211WAT     H230876   1.767   8.345   3.514
10212WAT      O30877   6.265   3.330   5.449
10212WAT     H130878   6.205   3.388   5.393
10212WAT     H230879   6.253   3.234   5.423
10213WAT      O30880   0.159   7.591   2.429
10213WAT     H130881   0.230   7.624   2.367
10213WAT     H230882   0.197   7.524   2.492
10214WAT      O30883   3.347   3.725   6.593
10214WAT     H130884   3.405   3.655   6.550
10214WAT     H230885   3.405   3.796   6.632
10215WAT      O30886   5.556   7.923   7.828
10215WAT     H130887   5.475   7.884   7.873
10215WAT     H230888   5.625   7.852   7.817
10216WAT      O30889   6.153   2.455   1.181
10216WAT     H130890   6.217   2.379   1.173
10216WAT     H230891   6.148   2.504   1.094
10217WAT      O30892   5.104   7.432   2.821
10217WAT     H130893   5.015   7.389   2.810
10217WAT     H230894   5.154   7.387   2.895
10218WAT      O30895   2.767   6.958   7.218
10218WAT     H130896   2.780   7.057   7.207
10218WAT     H230897   2.785   6.934   7.314
10219WAT      O30898   2.944   2.980   4.516
10219WAT     H130899   2.921   2.979   4.419
10219WAT     H230900   2.952   3.075   4.547
10220WAT      O30901   8.136   2.334   4.316
10220WAT     H130902   8.226   2.312   4.354
10220WAT     H230903   8.073   2.259   4.336
10221WAT      O30904   8.616   6.696   9.182
10221WAT     H130905   8.598   6.599   9.197
10221WAT     H230906   8.678   6.707   9.105
10222WAT      O30907   7.036   1.631   4.201
10222WAT     H130908   7.008   1.706   4.141
10222WAT     H230909   7.086   1.563   4.148
10223WAT      O30910   6.615   9.463   9.231
10223WAT     H130911   6.533   9.508   9.265
10223WAT     H230912   6.592   9.407   9.152
10224WAT      O30913   8.838   3.349   7.547
10224WAT     H130914   8.862   3.361   7.451
10224WAT     H230915   8.740   3.336   7.556
10225WAT      O30916   6.969   7.520   8.380
10225WAT     H130917   7.003   7.611   8.401
10225WAT     H230918   6.960   7.510   8.281
10226WAT      O30919   8.210   1.356   6.024
10226WAT     H130920   8.134   1.299   5.992
10226WAT     H230921   8.274   1.370   5.949
10227WAT      O30922   9.643   6.563   8.916
10227WAT     H130923   9.683   6.513   8.993
10227WAT     H230924   9.581   6.502   8.865
10228WAT      O30925   1.087   4.656   2.930
10228WAT     H130926   1.093   4.743   2.979
10228WAT     H230927   1.007   4.605   2.963
10229WAT      O30928   2.478   3.334   8.030
10229WAT     H130929   2.471   3.235   8.041
10229WAT     H230930   2.387   3.375   8.042
10230WAT      O30931   0.127   1.005   2.644
10230WAT     H130932   0.142   1.092   2.690
10230WAT     H230933   0.056   0.953   2.691
10231WAT      O30934   8.836   7.557   9.853
10231WAT     H130935   8.851   7.654   9.831
10231WAT     H230936   8.856   7.501   9.773
10232WAT      O30937   3.940   6.420   4.051
10232WAT     H130938   3.993   6.383   4.127
10232WAT     H230939   3.842   6.414   4.072
10233WAT      O30940   9.214   8.965   3.863
10233WAT     H130941   9.178   9.023   3.936
10233WAT     H230942   9.295   9.008   3.823
10234WAT      O30943   7.463   1.110   9.290
10234WAT     H130944   7.431   1.054   9.367
10234WAT     H230945   7.394   1.180   9.269
10235WAT      O30946   3.414   6.630   6.721
10235WAT     H130947   3.471   6.698   6.674
10235WAT     H230948   3.343   6.676   6.774
10236WAT      O30949   8.057   2.027   3.205
10236WAT     H130950   7.968   2.018   3.249
10236WAT     H230951   8.046   2.070   3.116
10237WAT      O30952   3.016   0.580   2.034
10237WAT     H130953   2.960   0.528   2.098
10237WAT     H230954   3.088   0.629   2.085
10238WAT      O30955   0.698   5.248   2.049
10238WAT     H130956   0.732   5.228   2.141
10238WAT     H230957   0.602   5.275   2.053
10239WAT      O30958   2.062   7.667   4.640
10239WAT     H130959   1.976   7.623   4.613
10239WAT     H230960   2.130   7.597   4.661
10240WAT      O30961   0.247   0.137   2.434
10240WAT     H130962   0.225   0.176   2.344
10240WAT     H230963   0.322   0.072   2.425
10241WAT      O30964   0.410   6.444   5.769
10241WAT     H130965   0.337   6.383   5.799
10241WAT     H230966   0.470   6.465   5.846
10242WAT      O30967   3.908   3.854   3.027
10242WAT     H130968   4.002   3.876   3.002
10242WAT     H230969   3.880   3.910   3.105
10243WAT      O30970   9.165   4.572   6.707
10243WAT     H130971   9.196   4.538   6.619
10243WAT     H230972   9.243   4.580   6.769
10244WAT      O30973   7.881   6.804   5.032
10244WAT     H130974   7.818   6.738   4.991
10244WAT     H230975   7.971   6.793   4.992
10245WAT      O30976   6.209   4.273   9.693
10245WAT     H130977   6.269   4.339   9.648
10245WAT     H230978   6.145   4.235   9.626
10246WAT      O30979   1.926   6.857   4.645
10246WAT     H130980   1.938   6.807   4.559
10246WAT     H230981   1.874   6.799   4.709
10247WAT      O30982   4.945   0.156   9.419
10247WAT     H130983   4.901   0.115   9.499
10247WAT     H230984   4.927   0.254   9.417
10248WAT      O30985   9.698   3.344   4.056
10248WAT     H130986   9.659   3.404   4.126
10248WAT     H230987   9.642   3.349   3.973
10249WAT      O30988   6.450   6.173   6.120
10249WAT     H130989   6.419   6.231   6.045
10249WAT     H230990   6.375   6.158   6.184
10250WAT      O30991   3.320   3.772   2.106
10250WAT     H130992   3.277   3.681   2.107
10250WAT     H230993   3.375   3.782   2.023
10251WAT      O30994   3.091   1.396   0.114
10251WAT     H130995   3.088   1.493   0.090
10251WAT     H230996   3.124   1.343   0.036
10252WAT      O30997   9.547   8.945   0.632
10252WAT     H130998   9.523   9.040   0.649
10252WAT     H230999   9.627   8.920   0.686
10253WAT      O31000   8.369   0.209   0.179
10253WAT     H131001   8.378   0.266   0.261
10253WAT     H231002   8.456   0.208   0.129
10254WAT      O31003   9.834   8.942   2.718
10254WAT     H131004   9.857   8.928   2.814
10254WAT     H231005   9.911   8.913   2.661
10255WAT      O31006   9.205   5.534   2.492
10255WAT     H131007   9.149   5.616   2.497
10255WAT     H231008   9.220   5.509   2.396
10256WAT      O31009   9.456   2.095   2.583
10256WAT     H131010   9.529   2.163   2.573
10256WAT     H231011   9.370   2.141   2.605
10257WAT      O31012   7.496   8.622   7.731
10257WAT     H131013   7.487   8.607   7.633
10257WAT     H231014   7.591   8.605   7.759
10258WAT      O31015   0.158   0.429   9.747
10258WAT     H131016   0.076   0.477   9.717
10258WAT     H231017   0.233   0.445   9.682
10259WAT      O31018   3.898   8.904   6.700
10259WAT     H131019   3.905   9.000   6.676
10259WAT     H231020   3.972   8.853   6.656
10260WAT      O31021   9.188   6.931   9.531
10260WAT     H131022   9.107   6.900   9.481
10260WAT     H231023   9.161   6.989   9.607
10261WAT      O31024   3.102   6.518   6.920
10261WAT     H131025   3.135   6.610   6.896
10261WAT     H231026   3.140   6.492   7.009
10262WAT      O31027   7.034   2.126   4.660
10262WAT     H131028   6.977   2.157   4.584
10262WAT     H231029   7.129   2.124   4.631
10263WAT      O31030   8.810   0.795   5.387
10263WAT     H131031   8.808   0.823   5.291
10263WAT     H231032   8.817   0.695   5.392
10264WAT      O31033   4.236   5.671   9.680
10264WAT     H131034   4.157   5.674   9.741
10264WAT     H231035   4.205   5.665   9.585
10265WAT      O31036   7.154   7.199   8.272
10265WAT     H131037   7.118   7.222   8.362
10265WAT     H231038   7.184   7.282   8.225
10266WAT      O31039   4.372   5.920   5.676
10266WAT     H131040   4.436   5.917   5.753
10266WAT     H231041   4.314   5.839   5.678
10267WAT      O31042   2.815   3.460   5.803
10267WAT     H131043   2.801   3.551   5.843
10267WAT     H231044   2.790   3.463   5.706
10268WAT      O31045   5.071   6.349   2.989
10268WAT     H131046   4.977   6.320   2.971
10268WAT     H231047   5.106   6.400   2.910
10269WAT      O31048   2.223   7.212   0.018
10269WAT     H131049   2.253   7.123   0.051
10269WAT     H231050   2.214   7.275   0.095
10270WAT      O31051   0.879   0.347   6.586
10270WAT     H131052   0.957   0.391   6.543
10270WAT     H231053   0.812   0.322   6.516
10271WAT      O31054   7.674   7.397   9.619
10271WAT     H131055   7.627   7.430   9.701
10271WAT     H231056   7.608   7.387   9.545
10272WAT      O31057   8.996   4.722   3.387
10272WAT     H131058   8.903   4.697   3.360
10272WAT     H231059   8.993   4.786   3.464
10273WAT      O31060   5.573   6.376   5.151
10273WAT     H131061   5.543   6.285   5.122
10273WAT     H231062   5.629   6.368   5.234
10274WAT      O31063   5.551   6.834   7.311
10274WAT     H131064   5.462   6.788   7.316
10274WAT     H231065   5.618   6.780   7.361
10275WAT      O31066   5.655   0.408   0.678
10275WAT     H131067   5.600   0.443   0.754
10275WAT     H231068   5.752   0.421   0.698
10276WAT      O31069   0.780   6.216   7.676
10276WAT     H131070   0.815   6.178   7.762
10276WAT     H231071   0.856   6.225   7.611
10277WAT      O31072   6.198   1.658   5.965
10277WAT     H131073   6.215   1.702   6.053
10277WAT     H231074   6.279   1.605   5.938
10278WAT      O31075   5.891   2.735   6.603
10278WAT     H131076   5.821   2.756   6.672
10278WAT     H231077   5.916   2.639   6.610
10279WAT      O31078   6.186   9.557   1.271
10279WAT     H131079   6.250   9.634   1.261
10279WAT     H231080   6.220   9.495   1.342
10280WAT      O31081   0.570   4.356   0.602
10280WAT     H131082   0.506   4.344   0.526
10280WAT     H231083   0.605   4.266   0.630
10281WAT      O31084   2.347   2.996   5.760
10281WAT     H131085   2.289   3.061   5.809
10281WAT     H231086   2.440   2.999   5.797
10282WAT      O31087   9.584   4.355   9.256
10282WAT     H131088   9.593   4.410   9.172
10282WAT     H231089   9.488   4.334   9.272
10283WAT      O31090   5.721   2.843   4.902
10283WAT     H131091   5.661   2.910   4.859
10283WAT     H231092   5.775   2.797   4.831
10284WAT      O31093   5.800   1.969   4.069
10284WAT     H131094   5.727   2.030   4.099
10284WAT     H231095   5.834   1.917   4.147
10285WAT      O31096   3.635   2.384   9.585
10285WAT     H131097   3.652   2.286   9.595
10285WAT     H231098   3.558   2.411   9.642
10286WAT      O31099   8.964   4.340   8.320
10286WAT     H131100   9.006   4.428   8.296
10286WAT     H231101   8.874   4.333   8.276
10287WAT      O31102   6.410   4.449   3.388
10287WAT     H131103   6.490   4.392   3.408
10287WAT     H231104   6.340   4.395   3.341
10288WAT      O31105   9.356   2.096   7.559
10288WAT     H131106   9.259   2.076   7.552
10288WAT     H231107   9.385   2.086   7.654
10289WAT      O31108   3.442   8.550   6.911
10289WAT     H131109   3.360   8.525   6.962
10289WAT     H231110   3.432   8.519   6.816
10290WAT      O31111   3.716   3.314   6.559
10290WAT     H131112   3.779   3.379   6.518
10290WAT     H231113   3.734   3.308   6.657
10291WAT      O31114   7.795   1.822   9.744
10291WAT     H131115   7.879   1.862   9.783
10291WAT     H231116   7.816   1.779   9.656
10292WAT      O31117   1.133   6.114   5.782
10292WAT     H131118   1.171   6.136   5.872
10292WAT     H231119   1.124   6.015   5.773
10293WAT      O31120   6.873   2.472   2.531
10293WAT     H131121   6.784   2.431   2.551
10293WAT     H231122   6.937   2.400   2.503
10294WAT      O31123   8.931   5.778   1.842
10294WAT     H131124   9.019   5.755   1.800
10294WAT     H231125   8.917   5.720   1.923
10295WAT      O31126   0.707   9.187   3.196
10295WAT     H131127   0.667   9.213   3.284
10295WAT     H231128   0.777   9.253   3.170
10296WAT      O31129   1.333   8.457   4.086
10296WAT     H131130   1.401   8.480   4.154
10296WAT     H231131   1.347   8.363   4.054
10297WAT      O31132   8.414   2.651   5.047
10297WAT     H131133   8.412   2.746   5.017
10297WAT     H231134   8.479   2.641   5.123
10298WAT      O31135   8.523   8.617   6.982
10298WAT     H131136   8.443   8.558   6.969
10298WAT     H231137   8.522   8.655   7.075
10299WAT      O31138   1.758   7.710   8.817
10299WAT     H131139   1.792   7.799   8.785
10299WAT     H231140   1.820   7.674   8.887
10300WAT      O31141   0.488   5.534   6.235
10300WAT     H131142   0.506   5.625   6.198
10300WAT     H231143   0.396   5.505   6.209
10301WAT      O31144   0.847   0.762   5.944
10301WAT     H131145   0.853   0.743   5.846
10301WAT     H231146   0.779   0.701   5.986
10302WAT      O31147   8.970   8.455   9.033
10302WAT     H131148   8.874   8.437   9.055
10302WAT     H231149   8.986   8.435   8.936
10303WAT      O31150   1.159   5.462   8.324
10303WAT     H131151   1.208   5.382   8.357
10303WAT     H231152   1.066   5.462   8.360
10304WAT      O31153   8.550   2.833   2.349
10304WAT     H131154   8.621   2.764   2.335
10304WAT     H231155   8.589   2.924   2.333
10305WAT      O31156   8.189   9.693   1.839
10305WAT     H131157   8.266   9.738   1.795
10305WAT     H231158   8.144   9.633   1.773
10306WAT      O31159   8.078   0.522   7.613
10306WAT     H131160   8.036   0.449   7.667
10306WAT     H231161   8.126   0.585   7.674
10307WAT      O31162   0.055   7.047   8.426
10307WAT     H131163   0.038   7.091   8.514
10307WAT     H231164   0.040   6.948   8.435
10308WAT      O31165   5.332   2.280   2.277
10308WAT     H131166   5.334   2.298   2.178
10308WAT     H231167   5.278   2.350   2.323
10309WAT      O31168   5.733   3.288   5.240
10309WAT     H131169   5.726   3.385   5.264
10309WAT     H231170   5.691   3.233   5.312
10310WAT      O31171   1.172   0.016   2.230
10310WAT     H131172   1.073   0.008   2.216
10310WAT     H231173   1.195   0.111   2.250
10311WAT      O31174   4.994   7.678   8.211
10311WAT     H131175   4.988   7.588   8.255
10311WAT     H231176   5.079   7.683   8.158
10312WAT      O31177   3.330   5.628   0.661
10312WAT     H131178   3.330   5.547   0.602
10312WAT     H231179   3.326   5.710   0.604
10313WAT      O31180   0.105   7.636   4.942
10313WAT     H131181   0.196   7.675   4.928
10313WAT     H231182   0.037   7.692   4.895
10314WAT      O31183   5.775   9.522   8.647
10314WAT     H131184   5.709   9.597   8.638
10314WAT     H231185   5.731   9.445   8.692
10315WAT      O31186   1.103   2.271   5.447
10315WAT     H131187   1.012   2.231   5.459
10315WAT     H231188   1.120   2.287   5.350
10316WAT      O31189   5.521   0.908   9.448
10316WAT     H131190   5.562   0.846   9.381
10316WAT     H231191   5.540   1.003   9.422
10317WAT      O31192   1.743   3.205   6.175
10317WAT     H131193   1.808   3.281   6.179
10317WAT     H231194   1.650   3.239   6.191
10318WAT      O31195   3.683   6.424   4.158
10318WAT     H131196   3.656   6.342   4.208
10318WAT     H231197   3.685   6.502   4.220
10319WAT      O31198   4.305   8.668   1.827
10319WAT     H131199   4.252   8.587   1.803
10319WAT     H231200   4.337   8.660   1.921
10320WAT      O31201   6.881   3.905   2.522
10320WAT     H131202   6.924   3.863   2.602
10320WAT     H231203   6.799   3.853   2.498
10321WAT      O31204   3.363   8.379   2.669
10321WAT     H131205   3.280   8.355   2.618
10321WAT     H231206   3.401   8.297   2.712
10322WAT      O31207   6.202   5.049   3.750
10322WAT     H131208   6.234   5.021   3.660
10322WAT     H231209   6.280   5.073   3.807
10323WAT      O31210   9.083   4.589   7.828
10323WAT     H131211   8.994   4.546   7.813
10323WAT     H231212   9.073   4.688   7.824
10324WAT      O31213   7.747   6.728   3.334
10324WAT     H131214   7.764   6.816   3.380
10324WAT     H231215   7.816   6.661   3.363
10325WAT      O31216   2.760   0.335   2.792
10325WAT     H131217   2.828   0.359   2.862
10325WAT     H231218   2.682   0.396   2.798
10326WAT      O31219   6.806   4.153   7.394
10326WAT     H131220   6.893   4.148   7.345
10326WAT     H231221   6.818   4.204   7.478
10327WAT      O31222   7.739   1.725   3.265
10327WAT     H131223   7.794   1.714   3.182
10327WAT     H231224   7.727   1.636   3.309
10328WAT      O31225   0.785   6.519   7.187
10328WAT     H131226   0.860   6.462   7.221
10328WAT     H231227   0.701   6.498   7.237
10329WAT      O31228   5.126   1.417   8.132
10329WAT     H131229   5.200   1.483   8.144
10329WAT     H231230   5.080   1.402   8.220
10330WAT      O31231   2.656   9.750   8.482
10330WAT     H131232   2.612   9.806   8.553
10330WAT     H231233   2.587   9.694   8.436
10331WAT      O31234   0.528   6.700   4.820
10331WAT     H131235   0.617   6.745   4.807
10331WAT     H231236   0.461   6.738   4.756
10332WAT      O31237   7.169   1.399   6.438
10332WAT     H131238   7.084   1.346   6.429
10332WAT     H231239   7.146   1.495   6.450
10333WAT      O31240   9.062   2.458   3.626
10333WAT     H131241   9.066   2.386   3.557
10333WAT     H231242   9.045   2.546   3.582
10334WAT      O31243   7.448   1.524   9.079
10334WAT     H131244   7.401   1.613   9.086
10334WAT     H231245   7.537   1.530   9.124
10335WAT      O31246   6.172   9.639   1.709
10335WAT     H131247   6.183   9.673   1.802
10335WAT     H231248   6.102   9.567   1.708
10336WAT      O31249   7.461   4.452   8.710
10336WAT     H131250   7.512   4.421   8.790
10336WAT     H231251   7.399   4.525   8.735
10337WAT      O31252   6.324   3.807   2.869
10337WAT     H131253   6.407   3.861   2.860
10337WAT     H231254   6.343   3.712   2.842
10338WAT      O31255   0.626   3.623   1.054
10338WAT     H131256   0.639   3.710   1.005
10338WAT     H231257   0.528   3.600   1.055
10339WAT      O31258   2.114   5.366   8.847
10339WAT     H131259   2.046   5.433   8.877
10339WAT     H231260   2.196   5.374   8.903
10340WAT      O31261   1.282   3.841   7.767
10340WAT     H131262   1.184   3.864   7.765
10340WAT     H231263   1.324   3.881   7.848
10341WAT      O31264   7.316   7.015   2.571
10341WAT     H131265   7.379   7.029   2.648
10341WAT     H231266   7.369   6.994   2.489
10342WAT      O31267   9.463   1.707   7.828
10342WAT     H131268   9.509   1.774   7.769
10342WAT     H231269   9.364   1.717   7.821
10343WAT      O31270   3.571   8.683   8.387
10343WAT     H131271   3.490   8.643   8.429
10343WAT     H231272   3.607   8.621   8.318
10344WAT      O31273   3.157   6.611   0.646
10344WAT     H131274   3.220   6.560   0.704
10344WAT     H231275   3.167   6.709   0.663
10345WAT      O31276   5.245   6.450   8.783
10345WAT     H131277   5.238   6.550   8.793
10345WAT     H231278   5.340   6.422   8.793
10346WAT      O31279   9.790   6.674   9.258
10346WAT     H131280   9.825   6.701   9.168
10346WAT     H231281   9.691   6.662   9.252
10347WAT      O31282   6.298   3.502   8.847
10347WAT     H131283   6.333   3.577   8.903
10347WAT     H231284   6.233   3.539   8.780
10348WAT      O31285   1.438   1.555   8.554
10348WAT     H131286   1.443   1.625   8.482
10348WAT     H231287   1.403   1.596   8.638
10349WAT      O31288   7.566   4.434   3.993
10349WAT     H131289   7.490   4.488   4.029
10349WAT     H231290   7.570   4.346   4.041
10350WAT      O31291   8.637   3.155   8.088
10350WAT     H131292   8.643   3.081   8.156
10350WAT     H231293   8.728   3.173   8.051
10351WAT      O31294   1.989   8.554   8.891
10351WAT     H131295   2.050   8.595   8.958
10351WAT     H231296   1.915   8.617   8.870
10352WAT      O31297   5.794   9.471   2.226
10352WAT     H131298   5.793   9.547   2.290
10352WAT     H231299   5.705   9.425   2.227
10353WAT      O31300   7.513   1.630   0.699
10353WAT     H131301   7.580   1.562   0.669
10353WAT     H231302   7.560   1.715   0.722
10354WAT      O31303   4.164   4.291   2.523
10354WAT     H131304   4.126   4.199   2.532
10354WAT     H231305   4.154   4.322   2.429
10355WAT      O31306   1.216   5.286   1.841
10355WAT     H131307   1.188   5.258   1.932
10355WAT     H231308   1.310   5.320   1.843
10356WAT      O31309   8.677   3.249   6.197
10356WAT     H131310   8.761   3.209   6.234
10356WAT     H231311   8.676   3.238   6.097
10357WAT      O31312   5.035   0.493   8.419
10357WAT     H131313   5.062   0.399   8.442
10357WAT     H231314   5.055   0.510   8.323
10358WAT      O31315   6.041   0.695   3.784
10358WAT     H131316   6.049   0.596   3.783
10358WAT     H231317   6.023   0.729   3.692
10359WAT      O31318   7.957   5.267   3.143
10359WAT     H131319   7.939   5.359   3.107
10359WAT     H231320   7.929   5.199   3.076
10360WAT      O31321   1.713   4.056   5.982
10360WAT     H131322   1.782   4.077   6.052
10360WAT     H231323   1.706   4.133   5.919
10361WAT      O31324   9.044   6.041   3.663
10361WAT     H131325   8.960   6.082   3.627
10361WAT     H231326   9.067   5.960   3.609
10362WAT      O31327   4.787   5.463   4.571
10362WAT     H131328   4.789   5.413   4.484
10362WAT     H231329   4.700   5.512   4.578
10363WAT      O31330   8.054   0.752   9.743
10363WAT     H131331   8.060   0.850   9.759
10363WAT     H231332   7.979   0.713   9.797
10364WAT      O31333   0.975   2.655   7.279
10364WAT     H131334   1.035   2.628   7.204
10364WAT     H231335   0.951   2.575   7.334
10365WAT      O31336   6.184   6.423   8.488
10365WAT     H131337   6.109   6.362   8.462
10365WAT     H231338   6.147   6.506   8.530
10366WAT      O31339   7.804   7.659   0.990
10366WAT     H131340   7.772   7.581   1.045
10366WAT     H231341   7.724   7.707   0.953
10367WAT      O31342   5.992   1.277   8.447
10367WAT     H131343   6.054   1.347   8.413
10367WAT     H231344   6.036   1.187   8.439
10368WAT      O31345   8.712   6.814   7.026
10368WAT     H131346   8.768   6.819   7.108
10368WAT     H231347   8.722   6.898   6.973
10369WAT      O31348   7.413   0.836   8.282
10369WAT     H131349   7.431   0.898   8.359
10369WAT     H231350   7.443   0.879   8.197
10370WAT      O31351   1.856   4.779   2.442
10370WAT     H131352   1.883   4.776   2.345
10370WAT     H231353   1.898   4.858   2.485
10371WAT      O31354   4.634   2.755   8.881
10371WAT     H131355   4.582   2.743   8.965
10371WAT     H231356   4.647   2.667   8.836
10372WAT      O31357   3.067   9.011   6.984
10372WAT     H131358   3.019   9.064   6.915
10372WAT     H231359   3.162   9.043   6.991
10373WAT      O31360   3.353   3.036   5.079
10373WAT     H131361   3.393   3.054   4.989
10373WAT     H231362   3.366   3.116   5.138
10374WAT      O31363   4.110   8.816   8.150
10374WAT     H131364   4.056   8.733   8.135
10374WAT     H231365   4.193   8.793   8.202
10375WAT      O31366   4.590   7.731   5.447
10375WAT     H131367   4.566   7.752   5.353
10375WAT     H231368   4.670   7.671   5.449
10376WAT      O31369   2.138   7.648   7.368
10376WAT     H131370   2.162   7.726   7.310
10376WAT     H231371   2.047   7.661   7.407
10377WAT      O31372   0.464   5.848   0.255
10377WAT     H131373   0.396   5.799   0.309
10377WAT     H231374   0.534   5.887   0.316
10378WAT      O31375   8.230   4.129   7.114
10378WAT     H131376   8.133   4.131   7.137
10378WAT     H231377   8.253   4.210   7.060
10379WAT      O31378   1.114   5.747   1.659
10379WAT     H131379   1.109   5.736   1.560
10379WAT     H231380   1.073   5.668   1.703
10380WAT      O31381   8.856   9.781   3.233
10380WAT     H131382   8.798   9.852   3.192
10380WAT     H231383   8.951   9.793   3.203
10381WAT      O31384   0.160   1.540   2.491
10381WAT     H131385   0.245   1.568   2.446
10381WAT     H231386   0.090   1.523   2.422
10382WAT      O31387   3.157   2.473   4.210
10382WAT     H131388   3.136   2.553   4.152
10382WAT     H231389   3.099   2.397   4.183
10383WAT      O31390   5.871   1.982   4.500
10383WAT     H131391   5.920   1.978   4.587
10383WAT     H231392   5.849   2.077   4.478
10384WAT      O31393   8.045   5.261   8.834
10384WAT     H131394   8.089   5.262   8.744
10384WAT     H231395   8.096   5.320   8.896
10385WAT      O31396   4.760   6.178   6.754
10385WAT     H131397   4.821   6.176   6.833
10385WAT     H231398   4.814   6.170   6.670
10386WAT      O31399   9.574   9.680   5.815
10386WAT     H131400   9.515   9.736   5.873
10386WAT     H231401   9.521   9.603   5.779
10387WAT      O31402   3.998   3.210   0.229
10387WAT     H131403   3.924   3.187   0.292
10387WAT     H231404   3.991   3.153   0.147
10388WAT      O31405   3.009   7.362   8.081
10388WAT     H131406   2.979   7.436   8.021
10388WAT     H231407   2.949   7.283   8.068
10389WAT      O31408   9.471   3.970   4.461
10389WAT     H131409   9.568   3.970   4.488
10389WAT     H231410   9.420   3.909   4.521
10390WAT      O31411   1.039   0.996   7.704
10390WAT     H131412   0.964   0.937   7.734
10390WAT     H231413   1.100   0.944   7.645
10391WAT      O31414   5.605   8.245   8.130
10391WAT     H131415   5.701   8.233   8.155
10391WAT     H231416   5.557   8.291   8.204
10392WAT      O31417   4.404   3.550   7.508
10392WAT     H131418   4.376   3.620   7.443
10392WAT     H231419   4.357   3.464   7.487
10393WAT      O31420   8.646   1.722   6.259
10393WAT     H131421   8.637   1.634   6.306
10393WAT     H231422   8.573   1.731   6.191
10394WAT      O31423   5.560   4.311   8.690
10394WAT     H131424   5.574   4.271   8.600
10394WAT     H231425   5.512   4.246   8.749
10395WAT      O31426   0.137   5.658   2.162
10395WAT     H131427   0.144   5.566   2.200
10395WAT     H231428   0.215   5.675   2.102
10396WAT      O31429   1.476   1.625   6.864
10396WAT     H131430   1.390   1.636   6.915
10396WAT     H231431   1.469   1.544   6.806
10397WAT      O31432   2.066   4.195   4.068
10397WAT     H131433   2.070   4.250   4.151
10397WAT     H231434   2.144   4.216   4.009
10398WAT      O31435   3.346   1.993   5.456
10398WAT     H131436   3.266   1.966   5.509
10398WAT     H231437   3.386   2.076   5.496
10399WAT      O31438   6.723   2.719   4.136
10399WAT     H131439   6.797   2.674   4.187
10399WAT     H231440   6.757   2.805   4.097
10400WAT      O31441   3.896   5.901   6.919
10400WAT     H131442   3.813   5.927   6.967
10400WAT     H231443   3.957   5.979   6.912
10401WAT      O31444   8.837   2.680   1.129
10401WAT     H131445   8.749   2.654   1.090
10401WAT     H231446   8.864   2.613   1.199
10402WAT      O31447   7.590   6.028   3.601
10402WAT     H131448   7.641   6.019   3.687
10402WAT     H231449   7.624   6.108   3.551
10403WAT      O31450   5.399   2.384   7.265
10403WAT     H131451   5.481   2.379   7.207
10403WAT     H231452   5.413   2.453   7.336
10404WAT      O31453   1.938   2.244   3.361
10404WAT     H131454   1.871   2.298   3.310
10404WAT     H231455   2.028   2.286   3.353
10405WAT      O31456   0.430   6.911   4.068
10405WAT     H131457   0.467   6.820   4.051
10405WAT     H231458   0.505   6.976   4.079
10406WAT      O31459   8.519   0.232   5.035
10406WAT     H131460   8.499   0.141   5.071
10406WAT     H231461   8.587   0.223   4.961
10407WAT      O31462   2.972   9.112   1.963
10407WAT     H131463   2.951   9.193   1.909
10407WAT     H231464   2.998   9.140   2.056
10408WAT      O31465   2.840   8.382   6.711
10408WAT     H131466   2.908   8.436   6.662
10408WAT     H231467   2.749   8.421   6.696
10409WAT      O31468   6.391   3.577   9.252
10409WAT     H131469   6.385   3.631   9.168
10409WAT     H231470   6.466   3.612   9.309
10410WAT      O31471   7.571   2.111   6.749
10410WAT     H131472   7.618   2.066   6.672
10410WAT     H231473   7.566   2.047   6.826
10411WAT      O31474   1.088   9.373   0.110
10411WAT     H131475   1.091   9.281   0.151
10411WAT     H231476   0.994   9.395   0.085
10412WAT      O31477   4.910   1.368   6.163
10412WAT     H131478   4.997   1.354   6.115
10412WAT     H231479   4.886   1.465   6.162
10413WAT      O31480   3.700   7.566   1.203
10413WAT     H131481   3.701   7.515   1.118
10413WAT     H231482   3.690   7.503   1.280
10414WAT      O31483   1.306   0.457   3.636
10414WAT     H131484   1.374   0.486   3.703
10414WAT     H231485   1.271   0.367   3.660
10415WAT      O31486   0.711   5.073   1.838
10415WAT     H131487   0.716   5.144   1.908
10415WAT     H231488   0.647   5.101   1.766
10416WAT      O31489   1.058   8.489   0.088
10416WAT     H131490   1.022   8.403   0.124
10416WAT     H231491   1.120   8.530   0.155
10417WAT      O31492   1.080   7.137   0.790
10417WAT     H131493   1.063   7.077   0.868
10417WAT     H231494   0.999   7.192   0.771
10418WAT      O31495   7.158   7.243   2.563
10418WAT     H131496   7.224   7.170   2.578
10418WAT     H231497   7.113   7.266   2.650
10419WAT      O31498   1.821   8.985   0.966
10419WAT     H131499   1.772   9.072   0.968
10419WAT     H231500   1.919   9.002   0.966
10420WAT      O31501   4.804   3.910   8.356
10420WAT     H131502   4.789   3.903   8.455
10420WAT     H231503   4.894   3.949   8.339
10421WAT      O31504   4.059   2.513   2.246
10421WAT     H131505   4.134   2.565   2.287
10421WAT     H231506   4.017   2.455   2.315
10422WAT      O31507   4.837   6.473   7.139
10422WAT     H131508   4.782   6.540   7.089
10422WAT     H231509   4.777   6.401   7.174
10423WAT      O31510   3.191   4.364   2.294
10423WAT     H131511   3.220   4.459   2.303
10423WAT     H231512   3.132   4.340   2.370
10424WAT      O31513   6.294   7.095   6.419
10424WAT     H131514   6.281   7.097   6.518
10424WAT     H231515   6.208   7.121   6.374
10425WAT      O31516   5.233   5.515   1.353
10425WAT     H131517   5.308   5.470   1.304
10425WAT     H231518   5.155   5.453   1.358
10426WAT      O31519   4.801   5.308   7.975
10426WAT     H131520   4.741   5.305   8.056
10426WAT     H231521   4.765   5.375   7.910
10427WAT      O31522   0.146   8.973   0.741
10427WAT     H131523   0.092   8.909   0.796
10427WAT     H231524   0.236   8.933   0.723
10428WAT      O31525   1.650   4.907   4.839
10428WAT     H131526   1.726   4.847   4.817
10428WAT     H231527   1.620   4.891   4.933
10429WAT      O31528   0.687   4.995   8.734
10429WAT     H131529   0.761   5.059   8.715
10429WAT     H231530   0.725   4.906   8.758
10430WAT      O31531   4.046   4.555   2.044
10430WAT     H131532   4.036   4.496   2.124
10430WAT     H231533   4.092   4.640   2.071
10431WAT      O31534   8.916   2.817   5.708
10431WAT     H131535   8.818   2.806   5.721
10431WAT     H231536   8.965   2.787   5.790
10432WAT      O31537  -0.004   6.834   9.486
10432WAT     H131538   0.096   6.830   9.494
10432WAT     H231539  -0.032   6.791   9.400
10433WAT      O31540   0.678   2.138   3.696
10433WAT     H131541   0.766   2.116   3.737
10433WAT     H231542   0.686   2.224   3.644
10434WAT      O31543   0.817   4.468   4.842
10434WAT     H131544   0.798   4.565   4.858
10434WAT     H231545   0.749   4.412   4.889
10435WAT      O31546   8.230   5.153   5.891
10435WAT     H131547   8.152   5.124   5.947
10435WAT     H231548   8.197   5.195   5.806
10436WAT      O31549   3.923   9.413   0.114
10436WAT     H131550   3.938   9.317   0.140
10436WAT     H231551   4.009   9.454   0.086
10437WAT      O31552   2.111   8.582   5.682
10437WAT     H131553   2.209   8.583   5.700
10437WAT     H231554   2.073   8.672   5.700
10438WAT      O31555   2.103   4.634   3.735
10438WAT     H131556   2.014   4.632   3.689
10438WAT     H231557   2.098   4.582   3.820
10439WAT      O31558   2.625   7.276   1.264
10439WAT     H131559   2.554   7.250   1.198
10439WAT     H231560   2.644   7.373   1.256
10440WAT      O31561   9.227   3.168   9.232
10440WAT     H131562   9.158   3.218   9.178
10440WAT     H231563   9.305   3.228   9.249
10441WAT      O31564   2.276   1.972   5.769
10441WAT     H131565   2.367   1.972   5.728
10441WAT     H231566   2.222   2.048   5.732
10442WAT      O31567   8.020   5.045   6.074
10442WAT     H131568   7.937   5.001   6.037
10442WAT     H231569   7.996   5.135   6.111
10443WAT      O31570   2.684   3.416   1.043
10443WAT     H131571   2.683   3.492   0.978
10443WAT     H231572   2.639   3.337   1.002
10444WAT      O31573   6.288   3.396   4.534
10444WAT     H131574   6.299   3.298   4.521
10444WAT     H231575   6.368   3.444   4.497
10445WAT      O31576   3.498   9.248   2.542
10445WAT     H131577   3.489   9.347   2.525
10445WAT     H231578   3.562   9.233   2.616
10446WAT      O31579   0.251   8.851   1.337
10446WAT     H131580   0.308   8.860   1.419
10446WAT     H231581   0.305   8.808   1.264
10447WAT      O31582   0.009   3.836   5.345
10447WAT     H131583   0.014   3.827   5.245
10447WAT     H231584  -0.033   3.924   5.368
10448WAT      O31585   0.613   0.720   9.569
10448WAT     H131586   0.599   0.699   9.666
10448WAT     H231587   0.700   0.679   9.539
10449WAT      O31588   8.731   4.556   7.820
10449WAT     H131589   8.708   4.460   7.837
10449WAT     H231590   8.708   4.579   7.725
10450WAT      O31591   4.292   7.016   4.314
10450WAT     H131592   4.343   6.998   4.399
10450WAT     H231593   4.203   7.056   4.337
10451WAT      O31594   2.639   3.746   6.792
10451WAT     H131595   2.738   3.739   6.784
10451WAT     H231596   2.615   3.814   6.861
10452WAT      O31597   5.879   8.477   8.375
10452WAT     H131598   5.918   8.477   8.283
10452WAT     H231599   5.784   8.506   8.372
10453WAT      O31600   5.833   3.675   4.667
10453WAT     H131601   5.800   3.599   4.610
10453WAT     H231602   5.794   3.667   4.759
10454WAT      O31603   0.271   4.659   0.206
10454WAT     H131604   0.247   4.592   0.277
10454WAT     H231605   0.341   4.619   0.145
10455WAT      O31606   4.979   0.753   0.451
10455WAT     H131607   4.933   0.833   0.489
10455WAT     H231608   4.953   0.672   0.503
10456WAT      O31609   6.395   2.719   3.691
10456WAT     H131610   6.385   2.817   3.709
10456WAT     H231611   6.491   2.695   3.696
10457WAT      O31612   8.663   1.542   0.315
10457WAT     H131613   8.697   1.621   0.367
10457WAT     H231614   8.639   1.571   0.222
10458WAT      O31615   1.471   2.984   2.365
10458WAT     H131616   1.425   2.974   2.277
10458WAT     H231617   1.569   2.998   2.350
10459WAT      O31618   6.779   8.735   1.946
10459WAT     H131619   6.863   8.684   1.964
10459WAT     H231620   6.789   8.787   1.861
10460WAT      O31621   2.403   8.387   4.489
10460WAT     H131622   2.405   8.435   4.401
10460WAT     H231623   2.314   8.401   4.532
10461WAT      O31624   1.942   4.698   5.604
10461WAT     H131625   1.926   4.685   5.702
10461WAT     H231626   2.001   4.778   5.591
10462WAT      O31627   9.672   6.517   4.165
10462WAT     H131628   9.748   6.522   4.230
10462WAT     H231629   9.698   6.563   4.080
10463WAT      O31630   6.045   6.775   2.686
10463WAT     H131631   6.076   6.822   2.768
10463WAT     H231632   6.034   6.841   2.611
10464WAT      O31633   3.783   5.250   6.489
10464WAT     H131634   3.748   5.342   6.504
10464WAT     H231635   3.880   5.247   6.512
10465WAT      O31636   5.696   7.749   5.205
10465WAT     H131637   5.756   7.677   5.239
10465WAT     H231638   5.613   7.752   5.261
10466WAT      O31639   7.802   2.852   7.542
10466WAT     H131640   7.719   2.802   7.516
10466WAT     H231641   7.866   2.853   7.465
10467WAT      O31642   8.365   3.251   1.946
10467WAT     H131643   8.353   3.246   2.045
10467WAT     H231644   8.285   3.210   1.901
10468WAT      O31645   7.362   5.830   1.817
10468WAT     H131646   7.271   5.838   1.776
10468WAT     H231647   7.392   5.920   1.849
10469WAT      O31648   7.700   0.354   0.307
10469WAT     H131649   7.613   0.376   0.263
10469WAT     H231650   7.759   0.306   0.243
10470WAT      O31651   5.274   6.675   2.530
10470WAT     H131652   5.251   6.760   2.483
10470WAT     H231653   5.363   6.685   2.574
10471WAT      O31654   5.013   9.211   6.480
10471WAT     H131655   5.077   9.207   6.403
10471WAT     H231656   4.955   9.292   6.471
10472WAT      O31657   2.059   1.264   8.644
10472WAT     H131658   1.967   1.268   8.605
10472WAT     H231659   2.114   1.197   8.595
10473WAT      O31660   8.703   2.900   5.047
10473WAT     H131661   8.709   2.803   5.023
10473WAT     H231662   8.607   2.928   5.050
10474WAT      O31663   1.684   0.060   9.815
10474WAT     H131664   1.658  -0.018   9.872
10474WAT     H231665   1.603   0.103   9.776
10475WAT      O31666   8.240   8.916   5.463
10475WAT     H131667   8.221   8.818   5.458
10475WAT     H231668   8.329   8.930   5.507
10476WAT      O31669   3.914   2.881   2.340
10476WAT     H131670   3.925   2.839   2.430
10476WAT     H231671   3.817   2.879   2.314
10477WAT      O31672   1.364   5.840   5.104
10477WAT     H131673   1.271   5.862   5.132
10477WAT     H231674   1.386   5.746   5.130
10478WAT      O31675   9.477   5.042   7.475
10478WAT     H131676   9.442   4.997   7.557
10478WAT     H231677   9.554   4.991   7.439
10479WAT      O31678   9.430   5.067   6.551
10479WAT     H131679   9.359   5.119   6.598
10479WAT     H231680   9.415   5.072   6.452
10480WAT      O31681   5.997   9.290   2.320
10480WAT     H131682   5.951   9.353   2.258
10480WAT     H231683   5.935   9.266   2.395
10481WAT      O31684   4.590   3.747   2.954
10481WAT     H131685   4.621   3.665   3.002
10481WAT     H231686   4.651   3.766   2.876
10482WAT      O31687   5.786   0.462   1.039
10482WAT     H131688   5.690   0.435   1.041
10482WAT     H231689   5.838   0.398   0.982
10483WAT      O31690   3.565   1.521   3.705
10483WAT     H131691   3.595   1.448   3.644
10483WAT     H231692   3.477   1.557   3.673
10484WAT      O31693   4.726   0.365   4.011
10484WAT     H131694   4.703   0.365   3.914
10484WAT     H231695   4.736   0.271   4.043
10485WAT      O31696   5.732   8.812   9.777
10485WAT     H131697   5.828   8.823   9.751
10485WAT     H231698   5.713   8.865   9.859
10486WAT      O31699   1.137   0.556   2.481
10486WAT     H131700   1.149   0.603   2.569
10486WAT     H231701   1.094   0.467   2.497
10487WAT      O31702   6.058   0.746   9.062
10487WAT     H131703   6.095   0.670   9.115
10487WAT     H231704   6.132   0.809   9.038
10488WAT      O31705   7.802   7.915   0.156
10488WAT     H131706   7.726   7.858   0.123
10488WAT     H231707   7.856   7.863   0.222
10489WAT      O31708   5.300   6.647   9.116
10489WAT     H131709   5.287   6.558   9.160
10489WAT     H231710   5.394   6.654   9.082
10490WAT      O31711   9.148   1.504   0.371
10490WAT     H131712   9.149   1.521   0.470
10490WAT     H231713   9.153   1.405   0.355
10491WAT      O31714   2.375   7.846   4.366
10491WAT     H131715   2.416   7.937   4.357
10491WAT     H231716   2.295   7.839   4.306
10492WAT      O31717   4.013   0.399   5.304
10492WAT     H131718   4.001   0.408   5.403
10492WAT     H231719   3.947   0.333   5.268
10493WAT      O31720   0.471   0.622   1.259
10493WAT     H131721   0.463   0.530   1.295
10493WAT     H231722   0.463   0.620   1.159
10494WAT      O31723   4.910   2.339   8.233
10494WAT     H131724   4.979   2.403   8.267
10494WAT     H231725   4.953   2.251   8.214
10495WAT      O31726   1.547   7.698   7.702
10495WAT     H131727   1.494   7.629   7.653
10495WAT     H231728   1.645   7.681   7.688
10496WAT      O31729   0.748   8.899   9.648
10496WAT     H131730   0.824   8.845   9.610
10496WAT     H231731   0.690   8.840   9.703
10497WAT      O31732   9.714   5.604   0.522
10497WAT     H131733   9.622   5.603   0.482
10497WAT     H231734   9.770   5.535   0.477
10498WAT      O31735   7.722   4.140   0.263
10498WAT     H131736   7.673   4.159   0.177
10498WAT     H231737   7.817   4.117   0.242
10499WAT      O31738   6.749   2.824   6.791
10499WAT     H131739   6.750   2.900   6.727
10499WAT     H231740   6.655   2.794   6.807
10500WAT      O31741   8.358   6.350   6.877
10500WAT     H131742   8.332   6.407   6.955
10500WAT     H231743   8.283   6.287   6.855
10501WAT      O31744   9.387   7.587   4.970
10501WAT     H131745   9.471   7.542   4.942
10501WAT     H231746   9.362   7.559   5.062
10502WAT      O31747   2.378   4.973   7.526
10502WAT     H131748   2.412   4.884   7.496
10502WAT     H231749   2.312   5.008   7.460
10503WAT      O31750   6.512   7.451   7.969
10503WAT     H131751   6.546   7.512   8.040
10503WAT     H231752   6.590   7.414   7.917
10504WAT      O31753   6.493   8.974   3.429
10504WAT     H131754   6.454   8.895   3.477
10504WAT     H231755   6.436   9.054   3.446
10505WAT      O31756   5.728   6.396   9.181
10505WAT     H131757   5.818   6.411   9.139
10505WAT     H231758   5.672   6.477   9.169
10506WAT      O31759   9.138   8.620   8.701
10506WAT     H131760   9.184   8.613   8.612
10506WAT     H231761   9.102   8.712   8.714
10507WAT      O31762   0.216   3.322   6.363
10507WAT     H131763   0.164   3.360   6.439
10507WAT     H231764   0.153   3.293   6.290
10508WAT      O31765   5.137   9.344   3.568
10508WAT     H131766   5.090   9.291   3.498
10508WAT     H231767   5.222   9.382   3.531
10509WAT      O31768   4.080   9.816   5.291
10509WAT     H131769   4.070   9.722   5.325
10509WAT     H231770   4.177   9.833   5.270
10510WAT      O31771   6.464   7.127   5.510
10510WAT     H131772   6.459   7.125   5.610
10510WAT     H231773   6.406   7.201   5.476
10511WAT      O31774   3.932   6.914   1.085
10511WAT     H131775   3.931   6.959   0.996
10511WAT     H231776   4.014   6.855   1.091
10512WAT      O31777   4.268   4.495   2.912
10512WAT     H131778   4.357   4.518   2.873
10512WAT     H231779   4.196   4.518   2.846
10513WAT      O31780   3.337   6.219   3.699
10513WAT     H131781   3.307   6.160   3.774
10513WAT     H231782   3.436   6.217   3.691
10514WAT      O31783   3.060   8.762   8.353
10514WAT     H131784   2.981   8.718   8.309
10514WAT     H231785   3.042   8.774   8.450
10515WAT      O31786   2.636   0.800   8.265
10515WAT     H131787   2.586   0.861   8.327
10515WAT     H231788   2.600   0.707   8.275
10516WAT      O31789   2.986   8.032   7.723
10516WAT     H131790   3.081   8.015   7.747
10516WAT     H231791   2.968   7.998   7.631
10517WAT      O31792   4.060   8.477   3.928
10517WAT     H131793   4.113   8.491   4.012
10517WAT     H231794   4.056   8.380   3.906
10518WAT      O31795   8.048   0.827   4.539
10518WAT     H131796   8.106   0.757   4.499
10518WAT     H231797   8.060   0.828   4.639
10519WAT      O31798   9.863   1.305   6.691
10519WAT     H131799   9.867   1.377   6.761
10519WAT     H231800   9.952   1.296   6.648
10520WAT      O31801   7.629   5.088   7.161
10520WAT     H131802   7.580   5.158   7.109
10520WAT     H231803   7.598   4.998   7.132
10521WAT      O31804   2.538   4.593   3.221
10521WAT     H131805   2.590   4.523   3.172
10521WAT     H231806   2.475   4.549   3.285
10522WAT      O31807   8.578   7.207   6.087
10522WAT     H131808   8.559   7.233   6.182
10522WAT     H231809   8.540   7.116   6.070
10523WAT      O31810   7.991   5.123   7.085
10523WAT     H131811   8.032   5.203   7.040
10523WAT     H231812   7.931   5.153   7.159
10524WAT      O31813   8.354   6.579   9.607
10524WAT     H131814   8.391   6.523   9.681
10524WAT     H231815   8.259   6.605   9.628
10525WAT      O31816   6.494   5.434   2.296
10525WAT     H131817   6.446   5.494   2.359
10525WAT     H231818   6.455   5.342   2.302
10526WAT      O31819   3.606   6.091   6.116
10526WAT     H131820   3.643   6.079   6.024
10526WAT     H231821   3.507   6.091   6.112
10527WAT      O31822   4.843   8.226   8.606
10527WAT     H131823   4.795   8.178   8.679
10527WAT     H231824   4.930   8.181   8.588
10528WAT      O31825   7.763   6.659   0.272
10528WAT     H131826   7.667   6.637   0.292
10528WAT     H231827   7.813   6.667   0.359
10529WAT      O31828   2.238   5.163   0.102
10529WAT     H131829   2.162   5.100   0.088
10529WAT     H231830   2.292   5.169   0.018
10530WAT      O31831   2.403   1.013   0.003
10530WAT     H131832   2.333   1.035  -0.065
10530WAT     H231833   2.361   0.967   0.081
10531WAT      O31834   0.353   4.665   6.644
10531WAT     H131835   0.335   4.763   6.651
10531WAT     H231836   0.432   4.642   6.700
10532WAT      O31837   0.046   1.106   8.585
10532WAT     H131838  -0.028   1.148   8.532
10532WAT     H231839   0.030   1.120   8.682
10533WAT      O31840   4.278   7.273   2.618
10533WAT     H131841   4.338   7.353   2.620
10533WAT     H231842   4.211   7.283   2.544
10534WAT      O31843   0.079   2.609   3.761
10534WAT     H131844   0.175   2.583   3.753
10534WAT     H231845   0.051   2.657   3.678
10535WAT      O31846   1.353   8.205   4.894
10535WAT     H131847   1.319   8.126   4.945
10535WAT     H231848   1.299   8.218   4.811
10536WAT      O31849   8.980   6.916   1.789
10536WAT     H131850   8.959   6.962   1.875
10536WAT     H231851   9.071   6.875   1.794
10537WAT      O31852   2.897   2.782   3.596
10537WAT     H131853   2.887   2.780   3.695
10537WAT     H231854   2.836   2.715   3.554
10538WAT      O31855   7.836   2.143   1.783
10538WAT     H131856   7.819   2.192   1.868
10538WAT     H231857   7.788   2.187   1.708
10539WAT      O31858   3.398   3.460   5.623
10539WAT     H131859   3.447   3.438   5.539
10539WAT     H231860   3.300   3.446   5.610
10540WAT      O31861   0.500   6.786   1.286
10540WAT     H131862   0.429   6.751   1.225
10540WAT     H231863   0.539   6.870   1.247
10541WAT      O31864   6.543   8.273   1.015
10541WAT     H131865   6.533   8.363   0.971
10541WAT     H231866   6.477   8.210   0.975
10542WAT      O31867   0.811   4.321   4.324
10542WAT     H131868   0.719   4.322   4.361
10542WAT     H231869   0.860   4.403   4.355
10543WAT      O31870   3.992   1.608   6.479
10543WAT     H131871   4.017   1.637   6.386
10543WAT     H231872   3.911   1.549   6.475
10544WAT      O31873   2.303   8.082   8.870
10544WAT     H131874   2.259   7.994   8.889
10544WAT     H231875   2.381   8.067   8.809
10545WAT      O31876   4.348   2.146   3.940
10545WAT     H131877   4.402   2.092   4.005
10545WAT     H231878   4.275   2.193   3.989
10546WAT      O31879   9.619   3.225   0.673
10546WAT     H131880   9.639   3.168   0.753
10546WAT     H231881   9.567   3.172   0.606
10547WAT      O31882   9.238   3.653   6.170
10547WAT     H131883   9.245   3.558   6.198
10547WAT     H231884   9.303   3.708   6.224
10548WAT      O31885   1.975   8.233   0.838
10548WAT     H131886   2.028   8.223   0.923
10548WAT     H231887   1.889   8.183   0.846
10549WAT      O31888   0.370   4.036   9.487
10549WAT     H131889   0.279   4.040   9.528
10549WAT     H231890   0.390   4.122   9.440
10550WAT      O31891   3.271   2.259   6.306
10550WAT     H131892   3.219   2.178   6.279
10550WAT     H231893   3.352   2.230   6.358
10551WAT      O31894   5.640   4.273   7.433
10551WAT     H131895   5.659   4.325   7.349
10551WAT     H231896   5.714   4.287   7.498
10552WAT      O31897   0.079   5.485   3.781
10552WAT     H131898   0.056   5.388   3.773
10552WAT     H231899   0.045   5.520   3.868
10553WAT      O31900   4.429   9.416   2.018
10553WAT     H131901   4.422   9.360   1.936
10553WAT     H231902   4.391   9.367   2.096
10554WAT      O31903   8.271   0.745   4.329
10554WAT     H131904   8.193   0.682   4.333
10554WAT     H231905   8.312   0.741   4.238
10555WAT      O31906   0.933   4.105   1.229
10555WAT     H131907   0.854   4.051   1.200
10555WAT     H231908   0.984   4.136   1.149
10556WAT      O31909   8.135   5.215   7.648
10556WAT     H131910   8.112   5.134   7.702
10556WAT     H231911   8.138   5.191   7.551
10557WAT      O31912   4.314   4.228   2.950
10557WAT     H131913   4.277   4.182   3.031
10557WAT     H231914   4.276   4.320   2.944
10558WAT      O31915   9.141   1.648   3.767
10558WAT     H131916   9.161   1.708   3.844
10558WAT     H231917   9.210   1.660   3.696
10559WAT      O31918   0.751   0.209   3.541
10559WAT     H131919   0.666   0.252   3.512
10559WAT     H231920   0.819   0.281   3.560
10560WAT      O31921   7.953   3.625   9.487
10560WAT     H131922   8.047   3.647   9.512
10560WAT     H231923   7.940   3.641   9.389
10561WAT      O31924   8.280   2.939   0.548
10561WAT     H131925   8.332   2.861   0.513
10561WAT     H231926   8.343   3.009   0.582
10562WAT      O31927   8.634   7.929   3.411
10562WAT     H131928   8.579   8.012   3.423
10562WAT     H231929   8.578   7.858   3.368
10563WAT      O31930   0.856   1.801   1.160
10563WAT     H131931   0.907   1.847   1.087
10563WAT     H231932   0.763   1.781   1.129
10564WAT      O31933   0.368   7.727   2.296
10564WAT     H131934   0.454   7.733   2.246
10564WAT     H231935   0.378   7.769   2.386
10565WAT      O31936   7.754   6.824   3.069
10565WAT     H131937   7.688   6.895   3.044
10565WAT     H231938   7.732   6.788   3.160
10566WAT      O31939   1.866   6.970   7.100
10566WAT     H131940   1.775   7.012   7.106
10566WAT     H231941   1.873   6.897   7.168
10567WAT      O31942   1.619   4.451   6.413
10567WAT     H131943   1.604   4.531   6.471
10567WAT     H231944   1.542   4.388   6.423
10568WAT      O31945   6.263   2.796   4.048
10568WAT     H131946   6.343   2.842   4.087
10568WAT     H231947   6.185   2.858   4.052
10569WAT      O31948   7.277   5.885   4.740
10569WAT     H131949   7.357   5.843   4.696
10569WAT     H231950   7.201   5.819   4.740
10570WAT      O31951   5.737   3.323   8.517
10570WAT     H131952   5.695   3.391   8.457
10570WAT     H231953   5.666   3.267   8.560
10571WAT      O31954   5.115   2.157   5.698
10571WAT     H131955   5.129   2.231   5.765
10571WAT     H231956   5.018   2.134   5.694
10572WAT      O31957   6.668   4.158   3.166
10572WAT     H131958   6.674   4.132   3.262
10572WAT     H231959   6.673   4.258   3.158
10573WAT      O31960   5.326   6.894   1.871
10573WAT     H131961   5.411   6.943   1.886
10573WAT     H231962   5.298   6.904   1.775
10574WAT      O31963   4.923   8.146   5.628
10574WAT     H131964   4.936   8.048   5.610
10574WAT     H231965   4.936   8.197   5.543
10575WAT      O31966   5.528   5.882   0.407
10575WAT     H131967   5.574   5.936   0.477
10575WAT     H231968   5.585   5.804   0.380
10576WAT      O31969   1.795   6.845   5.271
10576WAT     H131970   1.776   6.747   5.277
10576WAT     H231971   1.888   6.859   5.236
10577WAT      O31972   0.485   4.558   1.275
10577WAT     H131973   0.558   4.617   1.307
10577WAT     H231974   0.440   4.599   1.196
10578WAT      O31975   3.948   3.042   8.877
10578WAT     H131976   3.946   3.058   8.976
10578WAT     H231977   4.037   3.069   8.841
10579WAT      O31978   8.005   0.728   8.508
10579WAT     H131979   7.967   0.777   8.586
10579WAT     H231980   7.990   0.780   8.424
10580WAT      O31981   2.207   1.797   9.445
10580WAT     H131982   2.125   1.821   9.393
10580WAT     H231983   2.284   1.784   9.383
10581WAT      O31984   2.521   5.824   3.724
10581WAT     H131985   2.560   5.893   3.785
10581WAT     H231986   2.436   5.857   3.685
10582WAT      O31987   2.615   7.866   5.762
10582WAT     H131988   2.543   7.929   5.790
10582WAT     H231989   2.582   7.807   5.689
10583WAT      O31990   0.274   0.686   0.269
10583WAT     H131991   0.334   0.608   0.252
10583WAT     H231992   0.282   0.714   0.365
10584WAT      O31993   8.228   5.024   6.949
10584WAT     H131994   8.146   5.057   6.994
10584WAT     H231995   8.220   5.037   6.850
10585WAT      O31996   0.928   5.185   5.367
10585WAT     H131997   0.902   5.091   5.346
10585WAT     H231998   0.992   5.218   5.297
10586WAT      O31999   7.117   6.382   9.812
10586WAT     H132000   7.031   6.431   9.827
10586WAT     H232001   7.140   6.384   9.715
10587WAT      O32002   2.078   1.065   2.972
10587WAT     H132003   2.089   1.045   2.874
10587WAT     H232004   2.137   1.004   3.025
10588WAT      O32005   9.458   5.023   8.411
10588WAT     H132006   9.367   4.992   8.383
10588WAT     H232007   9.450   5.080   8.493
10589WAT      O32008   1.872   1.067   3.679
10589WAT     H132009   1.824   1.098   3.761
10589WAT     H232010   1.914   0.978   3.696
10590WAT      O32011   2.324   3.570   4.292
10590WAT     H132012   2.296   3.551   4.386
10590WAT     H232013   2.249   3.614   4.243
10591WAT      O32014   4.808   6.025   5.997
10591WAT     H132015   4.725   6.010   6.050
10591WAT     H232016   4.827   5.945   5.940
10592WAT      O32017   4.117   4.531   2.680
10592WAT     H132018   4.093   4.611   2.624
10592WAT     H232019   4.128   4.451   2.621
10593WAT      O32020   4.884   3.510   2.079
10593WAT     H132021   4.872   3.490   1.982
10593WAT     H232022   4.805   3.561   2.113
10594WAT      O32023   6.368   8.097   9.814
10594WAT     H132024   6.314   8.033   9.869
10594WAT     H232025   6.448   8.050   9.777
10595WAT      O32026   2.313   5.688   1.025
10595WAT     H132027   2.282   5.778   0.997
10595WAT     H232028   2.259   5.656   1.103
10596WAT      O32029   7.379   1.799   3.793
10596WAT     H132030   7.432   1.728   3.840
10596WAT     H232031   7.384   1.784   3.694
10597WAT      O32032   8.878   1.884   3.183
10597WAT     H132033   8.907   1.951   3.251
10597WAT     H232034   8.898   1.919   3.091
10598WAT      O32035   6.904   8.457   8.524
10598WAT     H132036   6.991   8.434   8.567
10598WAT     H232037   6.857   8.372   8.498
10599WAT      O32038   4.809   0.839   8.763
10599WAT     H132039   4.906   0.856   8.779
10599WAT     H232040   4.755   0.891   8.829
10600WAT      O32041   6.203   2.048   1.788
10600WAT     H132042   6.180   2.142   1.766
10600WAT     H232043   6.125   2.004   1.834
10601WAT      O32044   6.749   2.733   1.230
10601WAT     H132045   6.713   2.767   1.143
10601WAT     H232046   6.699   2.650   1.255
10602WAT      O32047   7.924   5.854   7.872
10602WAT     H132048   7.879   5.900   7.794
10602WAT     H232049   7.963   5.923   7.933
10603WAT      O32050   2.438   1.245   5.484
10603WAT     H132051   2.485   1.234   5.571
10603WAT     H232052   2.502   1.279   5.415
10604WAT      O32053   7.504   9.056   2.135
10604WAT     H132054   7.408   9.033   2.120
10604WAT     H232055   7.540   9.001   2.210
10605WAT      O32056   6.585   4.197   4.289
10605WAT     H132057   6.562   4.153   4.203
10605WAT     H232058   6.572   4.133   4.365
10606WAT      O32059   0.096   1.497   7.218
10606WAT     H132060   0.089   1.591   7.184
10606WAT     H232061   0.159   1.445   7.161
10607WAT      O32062   6.380   1.033   4.324
10607WAT     H132063   6.341   0.956   4.375
10607WAT     H232064   6.448   0.999   4.259
10608WAT      O32065   8.945   2.739   5.968
10608WAT     H132066   9.007   2.746   6.047
10608WAT     H232067   8.929   2.643   5.947
10609WAT      O32068   1.382   6.095   6.983
10609WAT     H132069   1.290   6.128   7.000
10609WAT     H232070   1.448   6.153   7.032
10610WAT      O32071   3.722   5.818   4.504
10610WAT     H132072   3.692   5.736   4.455
10610WAT     H232073   3.653   5.845   4.571
10611WAT      O32074   8.218   4.863   6.169
10611WAT     H132075   8.296   4.904   6.216
10611WAT     H232076   8.145   4.930   6.162
10612WAT      O32077   0.495   7.356   1.744
10612WAT     H132078   0.590   7.332   1.762
10612WAT     H232079   0.458   7.406   1.823
10613WAT      O32080   1.841   1.357   3.976
10613WAT     H132081   1.806   1.442   4.016
10613WAT     H232082   1.941   1.358   3.977
10614WAT      O32083   0.930   6.847   6.087
10614WAT     H132084   0.887   6.921   6.035
10614WAT     H232085   1.029   6.857   6.084
10615WAT      O32086   1.751   1.506   7.988
10615WAT     H132087   1.739   1.407   7.984
10615WAT     H232088   1.671   1.551   7.947
10616WAT      O32089   9.145   8.159   2.329
10616WAT     H132090   9.126   8.250   2.366
10616WAT     H232091   9.243   8.150   2.313
10617WAT      O32092   3.594   1.936   9.784
10617WAT     H132093   3.575   1.839   9.800
10617WAT     H232094   3.508   1.987   9.779
10618WAT      O32095   6.913   3.413   6.093
10618WAT     H132096   6.986   3.366   6.143
10618WAT     H232097   6.901   3.369   6.004
10619WAT      O32098   0.540   5.103   7.751
10619WAT     H132099   0.538   5.105   7.651
10619WAT     H232100   0.448   5.082   7.785
10620WAT      O32101   4.171   3.707   8.818
10620WAT     H132102   4.212   3.692   8.728
10620WAT     H232103   4.192   3.630   8.878
10621WAT      O32104   0.973   3.393   1.949
10621WAT     H132105   1.066   3.369   1.918
10621WAT     H232106   0.958   3.491   1.936
10622WAT      O32107   1.028   8.444   3.063
10622WAT     H132108   0.987   8.446   3.154
10622WAT     H232109   1.118   8.488   3.066
10623WAT      O32110   6.085   1.415   3.214
10623WAT     H132111   6.037   1.464   3.286
10623WAT     H232112   6.090   1.318   3.237
10624WAT      O32113   6.688   9.055   8.386
10624WAT     H132114   6.725   8.968   8.419
10624WAT     H232115   6.590   9.058   8.402
10625WAT      O32116   2.148   0.692   5.473
10625WAT     H132117   2.079   0.668   5.541
10625WAT     H232118   2.117   0.770   5.420
10626WAT      O32119   8.218   0.117   8.923
10626WAT     H132120   8.311   0.083   8.936
10626WAT     H232121   8.195   0.180   8.998
10627WAT      O32122   1.565   5.047   0.047
10627WAT     H132123   1.624   5.128   0.061
10627WAT     H232124   1.621   4.972   0.013
10628WAT      O32125   0.694   9.226   4.507
10628WAT     H132126   0.712   9.160   4.434
10628WAT     H232127   0.596   9.246   4.510
10629WAT      O32128   1.091   4.166   6.025
10629WAT     H132129   1.037   4.101   5.972
10629WAT     H232130   1.175   4.121   6.057
10630WAT      O32131   3.498   2.721   9.164
10630WAT     H132132   3.502   2.695   9.260
10630WAT     H232133   3.464   2.815   9.157
10631WAT      O32134   9.411   3.116   1.778
10631WAT     H132135   9.487   3.135   1.715
10631WAT     H232136   9.384   3.201   1.823
10632WAT      O32137   7.512   0.706   5.805
10632WAT     H132138   7.528   0.804   5.811
10632WAT     H232139   7.565   0.659   5.876
10633WAT      O32140   1.838   5.216   0.277
10633WAT     H132141   1.910   5.147   0.270
10633WAT     H232142   1.874   5.298   0.320
10634WAT      O32143   9.527   7.303   5.895
10634WAT     H132144   9.584   7.326   5.817
10634WAT     H232145   9.581   7.253   5.963
10635WAT      O32146   9.431   2.045   5.725
10635WAT     H132147   9.382   2.014   5.807
10635WAT     H232148   9.481   2.129   5.746
10636WAT      O32149   7.712   7.367   2.060
10636WAT     H132150   7.739   7.378   1.964
10636WAT     H232151   7.641   7.297   2.067
10637WAT      O32152   1.661   9.133   3.668
10637WAT     H132153   1.653   9.203   3.598
10637WAT     H232154   1.749   9.085   3.658
10638WAT      O32155   6.585   0.434   8.904
10638WAT     H132156   6.667   0.392   8.865
10638WAT     H232157   6.504   0.393   8.864
10639WAT      O32158   5.175   3.449   3.812
10639WAT     H132159   5.101   3.509   3.781
10639WAT     H232160   5.253   3.505   3.840
10640WAT      O32161   7.209   3.186   7.325
10640WAT     H132162   7.116   3.150   7.329
10640WAT     H232163   7.260   3.139   7.253
10641WAT      O32164   6.599   1.017   6.446
10641WAT     H132165   6.577   0.954   6.372
10641WAT     H232166   6.527   1.013   6.516
10642WAT      O32167   8.431   2.168   2.955
10642WAT     H132168   8.496   2.110   3.004
10642WAT     H232169   8.394   2.118   2.877
10643WAT      O32170   4.699   6.038   0.490
10643WAT     H132171   4.641   5.963   0.522
10643WAT     H232172   4.758   6.005   0.417
10644WAT      O32173   7.549   5.759   1.264
10644WAT     H132174   7.489   5.705   1.205
10644WAT     H232175   7.636   5.711   1.276
10645WAT      O32176   5.337   2.540   9.304
10645WAT     H132177   5.259   2.493   9.261
10645WAT     H232178   5.410   2.475   9.321
10646WAT      O32179   0.035   8.977   3.417
10646WAT     H132180   0.123   9.017   3.391
10646WAT     H232181  -0.016   9.041   3.474
10647WAT      O32182   0.638   7.217   7.799
10647WAT     H132183   0.692   7.297   7.824
10647WAT     H232184   0.572   7.241   7.728
10648WAT      O32185   7.236   4.342   1.354
10648WAT     H132186   7.275   4.428   1.388
10648WAT     H232187   7.196   4.291   1.431
10649WAT      O32188   1.270   7.310   1.226
10649WAT     H132189   1.292   7.235   1.288
10649WAT     H232190   1.344   7.322   1.160
10650WAT      O32191   2.085   3.547   0.871
10650WAT     H132192   2.078   3.646   0.883
10650WAT     H232193   2.007   3.503   0.914
10651WAT      O32194   2.151   1.330   2.544
10651WAT     H132195   2.157   1.345   2.643
10651WAT     H232196   2.111   1.240   2.526
10652WAT      O32197   8.281   8.093   0.408
10652WAT     H132198   8.240   8.004   0.430
10652WAT     H232199   8.223   8.141   0.342
10653WAT      O32200   3.283   7.103   3.972
10653WAT     H132201   3.201   7.133   4.021
10653WAT     H232202   3.339   7.048   4.033
10654WAT      O32203   1.223   3.007   2.497
10654WAT     H132204   1.312   3.003   2.452
10654WAT     H232205   1.200   3.102   2.518
10655WAT      O32206   3.122   0.139   5.938
10655WAT     H132207   3.197   0.080   5.966
10655WAT     H232208   3.109   0.212   6.005
10656WAT      O32209   3.137   8.393   7.938
10656WAT     H132210   3.078   8.415   8.016
10656WAT     H232211   3.082   8.385   7.855
10657WAT      O32212   2.271   1.787   0.794
10657WAT     H132213   2.187   1.805   0.742
10657WAT     H232214   2.247   1.765   0.889
10658WAT      O32215   5.946   7.613   6.149
10658WAT     H132216   5.994   7.601   6.236
10658WAT     H232217   5.864   7.668   6.164
10659WAT      O32218   0.515   7.032   4.638
10659WAT     H132219   0.490   6.938   4.612
10659WAT     H232220   0.561   7.077   4.561
10660WAT      O32221   1.860   4.902   9.125
10660WAT     H132222   1.765   4.917   9.154
10660WAT     H232223   1.862   4.860   9.035
10661WAT      O32224   5.058   3.169   9.661
10661WAT     H132225   5.075   3.186   9.758
10661WAT     H232226   5.124   3.102   9.627
10662WAT      O32227   6.444   7.203   3.388
10662WAT     H132228   6.382   7.192   3.465
10662WAT     H232229   6.432   7.127   3.324
10663WAT      O32230   8.372   8.247   6.287
10663WAT     H132231   8.323   8.264   6.202
10663WAT     H232232   8.470   8.253   6.271
10664WAT      O32233   7.856   5.915   6.011
10664WAT     H132234   7.757   5.928   6.024
10664WAT     H232235   7.898   6.003   5.987
10665WAT      O32236   9.746   0.300   8.062
10665WAT     H132237   9.728   0.298   8.160
10665WAT     H232238   9.802   0.379   8.039
10666WAT      O32239   2.941   9.313   4.900
10666WAT     H132240   2.875   9.327   4.826
10666WAT     H232241   2.924   9.225   4.945
10667WAT      O32242   8.308   0.629   1.726
10667WAT     H132243   8.372   0.554   1.709
10667WAT     H232244   8.214   0.596   1.715
10668WAT      O32245   5.749   2.031   0.861
10668WAT     H132246   5.713   2.122   0.882
10668WAT     H232247   5.795   1.994   0.942
10669WAT      O32248   1.681   3.877   2.959
10669WAT     H132249   1.634   3.964   2.976
10669WAT     H232250   1.630   3.803   3.002
10670WAT      O32251   8.120   5.141   5.135
10670WAT     H132252   8.052   5.146   5.208
10670WAT     H232253   8.210   5.124   5.174
10671WAT      O32254   3.360   9.187   1.889
10671WAT     H132255   3.409   9.111   1.931
10671WAT     H232256   3.304   9.152   1.813
10672WAT      O32257   8.586   4.484   0.866
10672WAT     H132258   8.524   4.413   0.832
10672WAT     H232259   8.623   4.535   0.789
10673WAT      O32260   2.024   8.136   8.061
10673WAT     H132261   1.990   8.073   7.992
10673WAT     H232262   2.014   8.094   8.152
10674WAT      O32263   4.078   5.697   0.970
10674WAT     H132264   4.133   5.776   0.942
10674WAT     H232265   4.014   5.673   0.897
10675WAT      O32266   7.387   2.834   2.246
10675WAT     H132267   7.397   2.848   2.148
10675WAT     H232268   7.314   2.767   2.263
10676WAT      O32269   0.673   4.505   8.721
10676WAT     H132270   0.736   4.568   8.767
10676WAT     H232271   0.726   4.435   8.673
10677WAT      O32272   2.266   4.826   8.518
10677WAT     H132273   2.297   4.733   8.540
10677WAT     H232274   2.216   4.863   8.596
10678WAT      O32275   5.412   5.412   9.611
10678WAT     H132276   5.391   5.339   9.676
10678WAT     H232277   5.504   5.398   9.574
10679WAT      O32278   7.299   8.310   1.163
10679WAT     H132279   7.376   8.354   1.116
10679WAT     H232280   7.254   8.247   1.100
10680WAT      O32281   6.015   1.814   1.320
10680WAT     H132282   5.924   1.780   1.344
10680WAT     H232283   6.036   1.789   1.226
10681WAT      O32284   1.045   7.124   8.707
10681WAT     H132285   0.985   7.079   8.773
10681WAT     H232286   1.140   7.116   8.737
10682WAT      O32287   1.703   4.164   4.290
10682WAT     H132288   1.637   4.096   4.322
10682WAT     H232289   1.793   4.144   4.329
10683WAT      O32290   1.563   4.409   3.049
10683WAT     H132291   1.565   4.436   3.145
10683WAT     H232292   1.499   4.467   2.999
10684WAT      O32293   6.419   2.238   0.564
10684WAT     H132294   6.355   2.211   0.635
10684WAT     H232295   6.504   2.187   0.574
10685WAT      O32296   7.874   5.763   8.147
10685WAT     H132297   7.892   5.840   8.085
10685WAT     H232298   7.831   5.798   8.231
10686WAT      O32299   7.494   5.903   9.157
10686WAT     H132300   7.447   5.850   9.086
10686WAT     H232301   7.428   5.962   9.204
10687WAT      O32302   9.886   8.770   7.953
10687WAT     H132303   9.938   8.830   7.892
10687WAT     H232304   9.860   8.821   8.035
10688WAT      O32305   3.998   6.105   3.356
10688WAT     H132306   4.090   6.145   3.357
10688WAT     H232307   3.993   6.034   3.286
10689WAT      O32308   8.046   8.242   9.016
10689WAT     H132309   8.119   8.192   8.968
10689WAT     H232310   8.027   8.196   9.103
10690WAT      O32311   0.596   4.670   5.589
10690WAT     H132312   0.524   4.727   5.549
10690WAT     H232313   0.559   4.581   5.614
10691WAT      O32314   8.196   3.840   0.298
10691WAT     H132315   8.116   3.855   0.240
10691WAT     H232316   8.266   3.791   0.246
10692WAT      O32317   3.927   7.382   0.252
10692WAT     H132318   4.017   7.403   0.291
10692WAT     H232319   3.911   7.439   0.172
10693WAT      O32320   8.816   3.106   5.380
10693WAT     H132321   8.751   3.036   5.349
10693WAT     H232322   8.790   3.195   5.342
10694WAT      O32323   0.889   4.058   8.242
10694WAT     H132324   0.965   4.119   8.264
10694WAT     H232325   0.803   4.108   8.251
10695WAT      O32326   8.572   7.572   7.712
10695WAT     H132327   8.643   7.509   7.743
10695WAT     H232328   8.485   7.523   7.706
10696WAT      O32329   2.330   0.872   5.606
10696WAT     H132330   2.412   0.874   5.548
10696WAT     H232331   2.274   0.793   5.582
10697WAT      O32332   3.978   8.132   6.324
10697WAT     H132333   4.029   8.093   6.247
10697WAT     H232334   3.994   8.076   6.405
10698WAT      O32335   8.451   0.337   9.143
10698WAT     H132336   8.430   0.423   9.190
10698WAT     H232337   8.383   0.268   9.168
10699WAT      O32338   1.781   4.456   1.652
10699WAT     H132339   1.822   4.374   1.613
10699WAT     H232340   1.761   4.521   1.579
10700WAT      O32341   1.911   9.555   6.083
10700WAT     H132342   1.958   9.480   6.129
10700WAT     H232343   1.909   9.537   5.984
10701WAT      O32344   9.414   8.407   5.572
10701WAT     H132345   9.496   8.431   5.520
10701WAT     H232346   9.352   8.354   5.514
10702WAT      O32347   8.947   7.017   5.191
10702WAT     H132348   9.017   7.086   5.205
10702WAT     H232349   8.990   6.930   5.166
10703WAT      O32350   4.819   2.547   7.897
10703WAT     H132351   4.772   2.559   7.810
10703WAT     H232352   4.911   2.586   7.890
10704WAT      O32353   3.237   5.498   7.057
10704WAT     H132354   3.144   5.469   7.032
10704WAT     H232355   3.270   5.565   6.991
10705WAT      O32356   2.326   1.841   7.476
10705WAT     H132357   2.248   1.902   7.460
10705WAT     H232358   2.324   1.809   7.571
10706WAT      O32359   9.716   5.020   8.073
10706WAT     H132360   9.657   4.999   7.995
10706WAT     H232361   9.695   4.957   8.148
10707WAT      O32362   5.621   8.791   0.693
10707WAT     H132363   5.644   8.804   0.596
10707WAT     H232364   5.699   8.820   0.749
10708WAT      O32365   8.322   0.030   5.675
10708WAT     H132366   8.231  -0.009   5.656
10708WAT     H232367   8.382  -0.042   5.710
10709WAT      O32368   4.849   5.113   5.407
10709WAT     H132369   4.923   5.091   5.343
10709WAT     H232370   4.822   5.208   5.396
10710WAT      O32371   0.057   4.189   7.367
10710WAT     H132372   0.118   4.170   7.444
10710WAT     H232373   0.010   4.104   7.341
10711WAT      O32374   2.068   2.566   6.702
10711WAT     H132375   2.031   2.599   6.615
10711WAT     H232376   2.161   2.600   6.713
10712WAT      O32377   6.016   1.387   9.389
10712WAT     H132378   5.932   1.434   9.363
10712WAT     H232379   6.076   1.452   9.437
10713WAT      O32380   5.224   7.350   6.344
10713WAT     H132381   5.313   7.366   6.388
10713WAT     H232382   5.224   7.392   6.254
10714WAT      O32383   6.950   8.703   5.248
10714WAT     H132384   7.038   8.657   5.233
10714WAT     H232385   6.903   8.662   5.326
10715WAT      O32386   7.526   1.128   1.993
10715WAT     H132387   7.502   1.179   1.910
10715WAT     H232388   7.512   1.030   1.976
10716WAT      O32389   0.198   1.975   7.316
10716WAT     H132390   0.106   1.960   7.352
10716WAT     H232391   0.192   2.004   7.220
10717WAT      O32392   6.266   1.202   7.281
10717WAT     H132393   6.264   1.123   7.220
10717WAT     H232394   6.307   1.280   7.234
10718WAT      O32395   9.001   1.651   6.339
10718WAT     H132396   9.078   1.691   6.388
10718WAT     H232397   8.916   1.693   6.372
10719WAT      O32398   4.879   7.395   3.965
10719WAT     H132399   4.795   7.398   3.910
10719WAT     H232400   4.948   7.340   3.917
10720WAT      O32401   2.890   5.264   4.257
10720WAT     H132402   2.984   5.239   4.281
10720WAT     H232403   2.855   5.200   4.189
10721WAT      O32404   3.586   5.544   6.713
10721WAT     H132405   3.524   5.574   6.785
10721WAT     H232406   3.679   5.576   6.733
10722WAT      O32407   6.233   3.069   5.422
10722WAT     H132408   6.228   2.998   5.491
10722WAT     H232409   6.152   3.066   5.364
10723WAT      O32410   7.423   5.204   4.758
10723WAT     H132411   7.483   5.273   4.717
10723WAT     H232412   7.373   5.245   4.835
10724WAT      O32413   2.309   4.706   3.053
10724WAT     H132414   2.348   4.781   2.999
10724WAT     H232415   2.381   4.642   3.078
10725WAT      O32416   9.085   8.825   9.253
10725WAT     H132417   9.029   8.789   9.178
10725WAT     H232418   9.078   8.924   9.256
10726WAT      O32419   3.795   1.720   8.003
10726WAT     H132420   3.700   1.698   7.980
10726WAT     H232421   3.849   1.636   8.004
10727WAT      O32422   9.698   0.202   6.035
10727WAT     H132423   9.687   0.234   6.129
10727WAT     H232424   9.612   0.214   5.985
10728WAT      O32425   5.518   3.137   1.382
10728WAT     H132426   5.494   3.184   1.467
10728WAT     H232427   5.570   3.054   1.404
10729WAT      O32428   9.274   5.134   5.528
10729WAT     H132429   9.287   5.044   5.571
10729WAT     H232430   9.208   5.187   5.582
10730WAT      O32431   4.564   9.506   7.311
10730WAT     H132432   4.635   9.457   7.261
10730WAT     H232433   4.546   9.461   7.398
10731WAT      O32434   1.887   2.027   9.624
10731WAT     H132435   1.879   1.960   9.698
10731WAT     H232436   1.932   2.109   9.657
10732WAT      O32437   8.413   2.447   8.841
10732WAT     H132438   8.500   2.440   8.891
10732WAT     H232439   8.419   2.392   8.757
10733WAT      O32440   3.233   4.832   3.151
10733WAT     H132441   3.304   4.894   3.184
10733WAT     H232442   3.271   4.740   3.143
10734WAT      O32443   7.758   2.950   8.653
10734WAT     H132444   7.667   2.933   8.692
10734WAT     H232445   7.787   2.870   8.600
10735WAT      O32446   9.416   3.196   6.501
10735WAT     H132447   9.450   3.216   6.409
10735WAT     H232448   9.386   3.281   6.544
10736WAT      O32449   9.542   2.030   7.141
10736WAT     H132450   9.616   1.987   7.088
10736WAT     H232451   9.454   1.997   7.106
10737WAT      O32452   9.699   1.683   6.141
10737WAT     H132453   9.696   1.770   6.092
10737WAT     H232454   9.672   1.699   6.237
10738WAT      O32455   3.343   3.183   5.535
10738WAT     H132456   3.391   3.173   5.622
10738WAT     H232457   3.277   3.257   5.542
10739WAT      O32458   7.733   6.848   2.667
10739WAT     H132459   7.650   6.847   2.723
10739WAT     H232460   7.708   6.857   2.570
10740WAT      O32461   1.665   4.546   4.015
10740WAT     H132462   1.718   4.604   4.078
10740WAT     H232463   1.708   4.456   4.007
10741WAT      O32464   8.019   3.498   0.143
10741WAT     H132465   7.994   3.467   0.051
10741WAT     H232466   7.937   3.524   0.193
10742WAT      O32467   1.232   3.152   8.831
10742WAT     H132468   1.302   3.125   8.765
10742WAT     H232469   1.277   3.187   8.914
10743WAT      O32470   7.664   4.235   6.589
10743WAT     H132471   7.706   4.237   6.498
10743WAT     H232472   7.671   4.143   6.626
10744WAT      O32473   5.715   5.178   3.235
10744WAT     H132474   5.732   5.276   3.235
10744WAT     H232475   5.630   5.159   3.285
10745WAT      O32476   2.397   9.125   6.936
10745WAT     H132477   2.455   9.205   6.943
10745WAT     H232478   2.449   9.043   6.961
10746WAT      O32479   4.471   8.689   1.596
10746WAT     H132480   4.441   8.624   1.526
10746WAT     H232481   4.409   8.685   1.673
10747WAT      O32482   3.119   2.252   5.153
10747WAT     H132483   3.210   2.210   5.149
10747WAT     H232484   3.053   2.190   5.110
10748WAT      O32485   7.685   2.563   2.261
10748WAT     H132486   7.780   2.562   2.229
10748WAT     H232487   7.623   2.562   2.182
10749WAT      O32488   8.444   6.716   2.613
10749WAT     H132489   8.517   6.666   2.567
10749WAT     H232490   8.421   6.798   2.560
10750WAT      O32491   1.281   0.931   4.436
10750WAT     H132492   1.202   0.880   4.403
10750WAT     H232493   1.363   0.876   4.425
10751WAT      O32494   6.078   6.934   4.706
10751WAT     H132495   6.040   6.997   4.774
10751WAT     H232496   6.128   6.861   4.753
10752WAT      O32497   2.833   0.677   4.804
10752WAT     H132498   2.769   0.719   4.868
10752WAT     H232499   2.865   0.745   4.739
10753WAT      O32500   4.562   5.024   7.559
10753WAT     H132501   4.645   4.980   7.595
10753WAT     H232502   4.488   5.013   7.625
10754WAT      O32503   8.812   5.907   2.824
10754WAT     H132504   8.901   5.901   2.871
10754WAT     H232505   8.819   5.971   2.747
10755WAT      O32506   2.060   1.389   2.274
10755WAT     H132507   1.966   1.357   2.286
10755WAT     H232508   2.119   1.345   2.342
10756WAT      O32509   3.174   8.519   5.014
10756WAT     H132510   3.168   8.585   4.939
10756WAT     H232511   3.267   8.520   5.051
10757WAT      O32512   7.675   5.268   2.102
10757WAT     H132513   7.693   5.309   2.192
10757WAT     H232514   7.761   5.259   2.052
10758WAT      O32515   0.091   2.491   1.410
10758WAT     H132516   0.166   2.442   1.365
10758WAT     H232517   0.080   2.457   1.503
10759WAT      O32518   0.836   9.336   6.318
10759WAT     H132519   0.865   9.410   6.259
10759WAT     H232520   0.915   9.281   6.345
10760WAT      O32521   8.579   9.590   9.399
10760WAT     H132522   8.564   9.677   9.446
10760WAT     H232523   8.669   9.590   9.355
10761WAT      O32524   5.178   0.976   0.097
10761WAT     H132525   5.235   1.002   0.019
10761WAT     H232526   5.221   0.901   0.147
10762WAT      O32527   8.902   9.749   1.153
10762WAT     H132528   8.961   9.670   1.139
10762WAT     H232529   8.943   9.830   1.110
10763WAT      O32530   7.729   4.167   9.468
10763WAT     H132531   7.712   4.127   9.558
10763WAT     H232532   7.643   4.200   9.429
10764WAT      O32533   1.270   0.142   3.946
10764WAT     H132534   1.306   0.065   3.997
10764WAT     H232535   1.185   0.173   3.989
10765WAT      O32536   6.940   6.692   9.202
10765WAT     H132537   7.038   6.700   9.185
10765WAT     H232538   6.895   6.660   9.119
10766WAT      O32539   4.182   5.590   4.713
10766WAT     H132540   4.089   5.580   4.678
10766WAT     H232541   4.240   5.517   4.676
10767WAT      O32542   4.961   3.892   1.660
10767WAT     H132543   5.003   3.889   1.570
10767WAT     H232544   4.867   3.859   1.654
10768WAT      O32545   1.338   1.312   8.518
10768WAT     H132546   1.394   1.394   8.504
10768WAT     H232547   1.271   1.329   8.590
10769WAT      O32548   1.436   3.751   1.283
10769WAT     H132549   1.391   3.726   1.369
10769WAT     H232550   1.449   3.668   1.228
10770WAT      O32551   4.735   2.240   5.899
10770WAT     H132552   4.744   2.159   5.957
10770WAT     H232553   4.776   2.319   5.945
10771WAT      O32554   1.982   6.544   9.328
10771WAT     H132555   2.070   6.569   9.290
10771WAT     H232556   1.939   6.624   9.370
10772WAT      O32557   6.911   1.264   4.832
10772WAT     H132558   6.970   1.184   4.823
10772WAT     H232559   6.886   1.297   4.741
10773WAT      O32560   8.544   0.430   5.911
10773WAT     H132561   8.470   0.380   5.867
10773WAT     H232562   8.579   0.378   5.989
10774WAT      O32563   2.971   7.580   5.678
10774WAT     H132564   2.873   7.564   5.688
10774WAT     H232565   3.021   7.501   5.713
10775WAT      O32566   8.115   7.393   5.917
10775WAT     H132567   8.066   7.335   5.852
10775WAT     H232568   8.198   7.428   5.875
10776WAT      O32569   8.309   5.583   2.342
10776WAT     H132570   8.301   5.675   2.381
10776WAT     H232571   8.314   5.589   2.242
10777WAT      O32572   3.999   2.203   4.424
10777WAT     H132573   3.923   2.212   4.487
10777WAT     H232574   3.972   2.236   4.334
10778WAT      O32575   1.931   0.163   5.951
10778WAT     H132576   1.960   0.149   6.046
10778WAT     H232577   1.835   0.139   5.942
10779WAT      O32578   2.240   5.511   3.807
10779WAT     H132579   2.255   5.603   3.844
10779WAT     H232580   2.271   5.443   3.873
10780WAT      O32581   8.936   4.347   9.273
10780WAT     H132582   8.886   4.266   9.241
10780WAT     H232583   8.874   4.425   9.275
10781WAT      O32584   8.796   1.300   7.740
10781WAT     H132585   8.730   1.353   7.794
10781WAT     H232586   8.856   1.362   7.691
10782WAT      O32587   6.175   3.749   4.436
10782WAT     H132588   6.151   3.755   4.339
10782WAT     H232589   6.269   3.780   4.450
10783WAT      O32590   9.405   6.470   5.624
10783WAT     H132591   9.460   6.455   5.706
10783WAT     H232592   9.352   6.388   5.604
10784WAT      O32593   7.908   8.697   4.753
10784WAT     H132594   7.997   8.714   4.710
10784WAT     H232595   7.914   8.714   4.851
10785WAT      O32596   3.753   0.244   7.618
10785WAT     H132597   3.792   0.228   7.527
10785WAT     H232598   3.654   0.247   7.611
10786WAT      O32599   5.303   8.479   2.247
10786WAT     H132600   5.236   8.431   2.190
10786WAT     H232601   5.254   8.537   2.312
10787WAT      O32602   3.945   6.840   9.284
10787WAT     H132603   3.902   6.894   9.212
10787WAT     H232604   4.043   6.856   9.285
10788WAT      O32605   8.335   9.005   9.825
10788WAT     H132606   8.321   8.906   9.819
10788WAT     H232607   8.408   9.025   9.890
10789WAT      O32608   4.524   5.785   6.691
10789WAT     H132609   4.462   5.800   6.615
10789WAT     H232610   4.608   5.741   6.657
10790WAT      O32611   3.266   9.619   0.265
10790WAT     H132612   3.212   9.676   0.204
10790WAT     H232613   3.362   9.623   0.238
10791WAT      O32614   2.374   9.694   7.360
10791WAT     H132615   2.303   9.718   7.294
10791WAT     H232616   2.461   9.733   7.330
10792WAT      O32617   5.023   1.132   7.713
10792WAT     H132618   5.013   1.180   7.626
10792WAT     H232619   5.058   1.195   7.782
10793WAT      O32620   2.706   1.208   7.783
10793WAT     H132621   2.690   1.209   7.685
10793WAT     H232622   2.802   1.224   7.802
10794WAT      O32623   6.939   3.912   8.217
10794WAT     H132624   6.922   3.958   8.130
10794WAT     H232625   7.029   3.868   8.215
10795WAT      O32626   8.311   8.183   1.091
10795WAT     H132627   8.284   8.133   1.008
10795WAT     H232628   8.232   8.193   1.151
10796WAT      O32629   6.431   9.631   1.646
10796WAT     H132630   6.472   9.542   1.665
10796WAT     H232631   6.335   9.630   1.675
10797WAT      O32632   9.088   4.067   7.014
10797WAT     H132633   9.072   4.132   6.940
10797WAT     H232634   9.081   4.113   7.102
10798WAT      O32635   0.189   7.016   8.812
10798WAT     H132636   0.134   6.937   8.784
10798WAT     H232637   0.188   7.023   8.912
10799WAT      O32638   3.842   7.658   7.390
10799WAT     H132639   3.788   7.580   7.357
10799WAT     H232640   3.935   7.628   7.411
10800WAT      O32641   7.473   0.951   8.035
10800WAT     H132642   7.438   0.981   7.946
10800WAT     H232643   7.527   1.025   8.076
10801WAT      O32644   4.433   0.555   1.618
10801WAT     H132645   4.476   0.641   1.591
10801WAT     H232646   4.333   0.564   1.613
10802WAT      O32647   3.598   6.452   5.264
10802WAT     H132648   3.570   6.369   5.215
10802WAT     H232649   3.697   6.459   5.262
10803WAT      O32650   4.567   3.196   9.207
10803WAT     H132651   4.645   3.134   9.193
10803WAT     H232652   4.596   3.290   9.188
10804WAT      O32653   4.530   4.417   3.347
10804WAT     H132654   4.546   4.506   3.390
10804WAT     H232655   4.446   4.422   3.292
10805WAT      O32656   6.091   5.603   1.283
10805WAT     H132657   6.115   5.542   1.207
10805WAT     H232658   6.164   5.669   1.297
10806WAT      O32659   4.063   6.646   7.858
10806WAT     H132660   4.004   6.593   7.919
10806WAT     H232661   4.152   6.600   7.850
10807WAT      O32662   9.706   6.013   0.475
10807WAT     H132663   9.686   5.956   0.555
10807WAT     H232664   9.725   6.106   0.505
10808WAT      O32665   0.791   9.823   8.803
10808WAT     H132666   0.872   9.812   8.745
10808WAT     H232667   0.778   9.739   8.856
10809WAT      O32668   4.836   7.832   7.479
10809WAT     H132669   4.838   7.931   7.489
10809WAT     H232670   4.873   7.789   7.561
10810WAT      O32671   4.379   9.840   6.066
10810WAT     H132672   4.375   9.854   6.165
10810WAT     H232673   4.287   9.829   6.029
10811WAT      O32674   3.897   8.034   0.030
10811WAT     H132675   3.825   7.995  -0.027
10811WAT     H232676   3.968   7.965   0.046
10812WAT      O32677   7.347   1.806   9.556
10812WAT     H132678   7.298   1.767   9.634
10812WAT     H232679   7.295   1.790   9.472
10813WAT      O32680   6.115   1.681   7.691
10813WAT     H132681   6.185   1.611   7.705
10813WAT     H232682   6.041   1.643   7.636
10814WAT      O32683   1.359   7.999   2.441
10814WAT     H132684   1.304   7.959   2.514
10814WAT     H232685   1.400   8.085   2.473
10815WAT      O32686   7.419   5.658   8.185
10815WAT     H132687   7.388   5.751   8.169
10815WAT     H232688   7.505   5.643   8.136
10816WAT      O32689   4.397   5.892   4.327
10816WAT     H132690   4.433   5.800   4.316
10816WAT     H232691   4.306   5.887   4.369
10817WAT      O32692   7.054   7.709   0.902
10817WAT     H132693   7.007   7.690   0.988
10817WAT     H232694   6.987   7.735   0.832
10818WAT      O32695   3.813   6.710   4.017
10818WAT     H132696   3.888   6.644   4.013
10818WAT     H232697   3.851   6.803   4.011
10819WAT      O32698   3.433   5.864   0.814
10819WAT     H132699   3.436   5.902   0.907
10819WAT     H232700   3.434   5.765   0.819
10820WAT      O32701   3.758   6.563   1.187
10820WAT     H132702   3.668   6.572   1.230
10820WAT     H232703   3.753   6.593   1.092
10821WAT      O32704   0.267   9.167   7.069
10821WAT     H132705   0.297   9.190   7.161
10821WAT     H232706   0.180   9.117   7.074
10822WAT      O32707   8.594   8.501   1.220
10822WAT     H132708   8.515   8.490   1.281
10822WAT     H232709   8.570   8.466   1.129
10823WAT      O32710   2.283   0.116   8.189
10823WAT     H132711   2.279   0.060   8.106
10823WAT     H232712   2.368   0.098   8.238
10824WAT      O32713   1.335   2.918   7.145
10824WAT     H132714   1.421   2.868   7.157
10824WAT     H232715   1.266   2.882   7.209
10825WAT      O32716   2.138   6.819   8.133
10825WAT     H132717   2.164   6.915   8.125
10825WAT     H232718   2.038   6.811   8.128
10826WAT      O32719   1.208   8.036   6.374
10826WAT     H132720   1.296   8.053   6.418
10826WAT     H232721   1.141   8.005   6.442
10827WAT      O32722   0.498   0.246   5.176
10827WAT     H132723   0.540   0.180   5.114
10827WAT     H232724   0.493   0.207   5.268
10828WAT      O32725   7.357   6.034   7.000
10828WAT     H132726   7.302   6.059   6.920
10828WAT     H232727   7.453   6.059   6.984
10829WAT      O32728   8.206   0.260   7.178
10829WAT     H132729   8.225   0.287   7.273
10829WAT     H232730   8.235   0.165   7.164
10830WAT      O32731   7.674   4.214   8.062
10830WAT     H132732   7.689   4.265   7.977
10830WAT     H232733   7.615   4.266   8.123
10831WAT      O32734   8.979   5.002   1.484
10831WAT     H132735   8.961   4.904   1.498
10831WAT     H232736   8.917   5.037   1.414
10832WAT      O32737   5.968   1.029   2.730
10832WAT     H132738   6.041   1.092   2.755
10832WAT     H232739   5.882   1.061   2.770
10833WAT      O32740   8.484   6.443   9.812
10833WAT     H132741   8.584   6.436   9.815
10833WAT     H232742   8.446   6.400   9.894
10834WAT      O32743   0.868   5.946   2.927
10834WAT     H132744   0.874   5.945   3.027
10834WAT     H232745   0.778   5.914   2.898
10835WAT      O32746   2.327   0.622   9.464
10835WAT     H132747   2.298   0.701   9.519
10835WAT     H232748   2.259   0.605   9.393
10836WAT      O32749   1.516   0.349   9.331
10836WAT     H132750   1.538   0.287   9.406
10836WAT     H232751   1.434   0.401   9.352
10837WAT      O32752   6.683   7.320   3.799
10837WAT     H132753   6.732   7.393   3.752
10837WAT     H232754   6.599   7.357   3.840
10838WAT      O32755   0.541   6.306   1.331
10838WAT     H132756   0.580   6.398   1.324
10838WAT     H232757   0.442   6.313   1.343
10839WAT      O32758   7.072   9.331   7.598
10839WAT     H132759   6.990   9.338   7.541
10839WAT     H232760   7.082   9.415   7.651
10840WAT      O32761   1.683   8.789   3.242
10840WAT     H132762   1.612   8.827   3.302
10840WAT     H232763   1.644   8.720   3.183
10841WAT      O32764   3.027   2.436   1.074
10841WAT     H132765   3.038   2.530   1.044
10841WAT     H232766   2.954   2.431   1.142
10842WAT      O32767   4.860   0.124   1.097
10842WAT     H132768   4.869   0.213   1.052
10842WAT     H232769   4.912   0.055   1.046
10843WAT      O32770   8.997   2.977   1.805
10843WAT     H132771   8.984   2.919   1.885
10843WAT     H232772   8.908   2.998   1.764
10844WAT      O32773   9.217   7.122   1.081
10844WAT     H132774   9.243   7.033   1.119
10844WAT     H232775   9.138   7.158   1.131
10845WAT      O32776   3.385   4.840   5.440
10845WAT     H132777   3.467   4.790   5.468
10845WAT     H232778   3.405   4.897   5.360
10846WAT      O32779   6.443   7.169   4.925
10846WAT     H132780   6.492   7.166   4.838
10846WAT     H232781   6.396   7.082   4.940
10847WAT      O32782   1.054   4.321   1.875
10847WAT     H132783   1.148   4.291   1.859
10847WAT     H232784   1.049   4.372   1.961
10848WAT      O32785   5.770   1.004   4.649
10848WAT     H132786   5.757   0.936   4.721
10848WAT     H232787   5.814   1.085   4.688
10849WAT      O32788   7.291   0.801   6.649
10849WAT     H132789   7.297   0.708   6.613
10849WAT     H232790   7.380   0.831   6.681
10850WAT      O32791   2.488   7.743   3.768
10850WAT     H132792   2.582   7.717   3.747
10850WAT     H232793   2.428   7.714   3.693
10851WAT      O32794   2.816   9.617   9.632
10851WAT     H132795   2.880   9.540   9.636
10851WAT     H232796   2.858   9.692   9.580
10852WAT      O32797   5.952   5.725   9.416
10852WAT     H132798   5.862   5.764   9.434
10852WAT     H232799   6.008   5.732   9.499
10853WAT      O32800   4.441   7.933   3.079
10853WAT     H132801   4.532   7.954   3.116
10853WAT     H232802   4.371   7.955   3.147
10854WAT      O32803   6.997   9.525   4.707
10854WAT     H132804   6.968   9.490   4.617
10854WAT     H232805   7.061   9.461   4.748
10855WAT      O32806   6.641   1.263   8.250
10855WAT     H132807   6.690   1.228   8.330
10855WAT     H232808   6.626   1.361   8.261
10856WAT      O32809   9.617   6.168   8.759
10856WAT     H132810   9.526   6.125   8.761
10856WAT     H232811   9.687   6.097   8.764
10857WAT      O32812   9.159   1.890   0.816
10857WAT     H132813   9.120   1.851   0.899
10857WAT     H232814   9.233   1.953   0.840
10858WAT      O32815   7.355   4.229   0.587
10858WAT     H132816   7.334   4.297   0.656
10858WAT     H232817   7.447   4.244   0.551
10859WAT      O32818   6.394   1.753   0.524
10859WAT     H132819   6.369   1.796   0.437
10859WAT     H232820   6.492   1.766   0.540
10860WAT      O32821   2.141   6.806   8.905
10860WAT     H132822   2.213   6.872   8.926
10860WAT     H232823   2.182   6.715   8.896
10861WAT      O32824   2.913   0.002   4.154
10861WAT     H132825   2.923   0.095   4.188
10861WAT     H232826   2.877   0.003   4.061
10862WAT      O32827   4.412   2.221   6.316
10862WAT     H132828   4.389   2.299   6.375
10862WAT     H232829   4.337   2.204   6.252
10863WAT      O32830   8.692   5.422   2.913
10863WAT     H132831   8.782   5.390   2.885
10863WAT     H232832   8.650   5.472   2.837
10864WAT      O32833   4.218   6.913   4.063
10864WAT     H132834   4.186   6.820   4.084
10864WAT     H232835   4.236   6.963   4.147
10865WAT      O32836   1.271   8.667   9.344
10865WAT     H132837   1.293   8.698   9.437
10865WAT     H232838   1.263   8.567   9.344
10866WAT      O32839   9.147   8.402   8.163
10866WAT     H132840   9.124   8.496   8.187
10866WAT     H232841   9.090   8.339   8.216
10867WAT      O32842   0.026   2.844   3.124
10867WAT     H132843   0.082   2.875   3.047
10867WAT     H232844  -0.061   2.893   3.123
10868WAT      O32845   9.549   8.108   8.407
10868WAT     H132846   9.504   8.146   8.326
10868WAT     H232847   9.508   8.148   8.489
10869WAT      O32848   6.714   7.757   5.498
10869WAT     H132849   6.781   7.715   5.436
10869WAT     H232850   6.721   7.715   5.588
10870WAT      O32851   8.143   6.725   3.861
10870WAT     H132852   8.073   6.796   3.866
10870WAT     H232853   8.099   6.635   3.849
10871WAT      O32854   8.447   1.451   3.802
10871WAT     H132855   8.370   1.480   3.745
10871WAT     H232856   8.526   1.431   3.743
10872WAT      O32857   5.291   6.751   7.629
10872WAT     H132858   5.271   6.753   7.531
10872WAT     H232859   5.360   6.820   7.651
10873WAT      O32860   1.868   5.627   6.302
10873WAT     H132861   1.916   5.707   6.267
10873WAT     H232862   1.912   5.595   6.386
10874WAT      O32863   3.803   5.594   3.091
10874WAT     H132864   3.721   5.641   3.123
10874WAT     H232865   3.805   5.594   2.991
10875WAT      O32866   6.795   2.126   9.458
10875WAT     H132867   6.732   2.202   9.447
10875WAT     H232868   6.827   2.123   9.553
10876WAT      O32869   2.239   8.887   0.867
10876WAT     H132870   2.186   8.922   0.789
10876WAT     H232871   2.176   8.856   0.938
10877WAT      O32872   8.717   6.577   3.205
10877WAT     H132873   8.653   6.644   3.243
10877WAT     H232874   8.810   6.602   3.229
10878WAT      O32875   7.994   7.200   5.743
10878WAT     H132876   8.061   7.141   5.699
10878WAT     H232877   7.904   7.156   5.742
10879WAT      O32878   2.909   4.064   9.054
10879WAT     H132879   2.992   4.015   9.026
10879WAT     H232880   2.906   4.070   9.153
10880WAT      O32881   3.349   1.759   7.210
10880WAT     H132882   3.440   1.764   7.250
10880WAT     H232883   3.280   1.777   7.280
10881WAT      O32884   7.662   5.991   5.050
10881WAT     H132885   7.716   5.941   5.116
10881WAT     H232886   7.667   6.089   5.069
10882WAT      O32887   2.626   5.685   4.511
10882WAT     H132888   2.681   5.655   4.589
10882WAT     H232889   2.530   5.659   4.525
10883WAT      O32890   5.480   0.145   1.635
10883WAT     H132891   5.545   0.069   1.642
10883WAT     H232892   5.388   0.109   1.621
10884WAT      O32893   4.308   8.375   7.320
10884WAT     H132894   4.256   8.442   7.267
10884WAT     H232895   4.392   8.351   7.270
10885WAT      O32896   9.737   1.241   8.438
10885WAT     H132897   9.755   1.313   8.371
10885WAT     H232898   9.639   1.240   8.460
10886WAT      O32899   1.785   9.333   4.691
10886WAT     H132900   1.850   9.392   4.739
10886WAT     H232901   1.810   9.326   4.595
10887WAT      O32902   8.360   4.733   0.840
10887WAT     H132903   8.454   4.765   0.853
10887WAT     H232904   8.322   4.703   0.927
10888WAT      O32905   0.527   4.631   0.627
10888WAT     H132906   0.552   4.534   0.623
10888WAT     H232907   0.502   4.662   0.535
10889WAT      O32908   1.366   4.975   6.517
10889WAT     H132909   1.295   4.995   6.585
10889WAT     H232910   1.439   4.923   6.560
10890WAT      O32911   8.654   2.064   2.702
10890WAT     H132912   8.665   1.990   2.769
10890WAT     H232913   8.717   2.138   2.725
10891WAT      O32914   5.283   3.782   4.947
10891WAT     H132915   5.353   3.711   4.955
10891WAT     H232916   5.324   3.864   4.907
10892WAT      O32917   2.467   4.349   8.227
10892WAT     H132918   2.407   4.355   8.307
10892WAT     H232919   2.419   4.302   8.153
10893WAT      O32920   9.620   8.302   2.306
10893WAT     H132921   9.614   8.388   2.256
10893WAT     H232922   9.715   8.281   2.327
10894WAT      O32923   1.271   4.248   8.096
10894WAT     H132924   1.214   4.294   8.028
10894WAT     H232925   1.365   4.280   8.088
10895WAT      O32926   8.966   2.831   2.813
10895WAT     H132927   9.040   2.849   2.749
10895WAT     H232928   8.939   2.916   2.858
10896WAT      O32929   4.709   8.039   1.576
10896WAT     H132930   4.751   8.129   1.584
10896WAT     H232931   4.778   7.968   1.591
10897WAT      O32932   0.974   3.190   8.616
10897WAT     H132933   0.972   3.268   8.679
10897WAT     H232934   1.061   3.141   8.627
10898WAT      O32935   1.756   1.972   8.049
10898WAT     H132936   1.759   1.965   7.949
10898WAT     H232937   1.708   2.056   8.074
10899WAT      O32938   7.670   2.357   7.114
10899WAT     H132939   7.587   2.403   7.085
10899WAT     H232940   7.730   2.421   7.162
10900WAT      O32941   4.604   2.859   2.397
10900WAT     H132942   4.543   2.794   2.350
10900WAT     H232943   4.600   2.843   2.496
10901WAT      O32944   8.931   7.073   6.262
10901WAT     H132945   8.917   7.095   6.359
10901WAT     H232946   8.898   6.980   6.245
10902WAT      O32947   9.673   9.291   0.446
10902WAT     H132948   9.716   9.320   0.360
10902WAT     H232949   9.594   9.233   0.426
10903WAT      O32950   6.897   7.926   4.748
10903WAT     H132951   6.856   8.006   4.792
10903WAT     H232952   6.985   7.952   4.709
10904WAT      O32953   9.882   2.990   3.972
10904WAT     H132954   9.942   2.993   4.052
10904WAT     H232955   9.875   3.082   3.932
10905WAT      O32956   5.691   8.266   0.891
10905WAT     H132957   5.677   8.170   0.867
10905WAT     H232958   5.695   8.321   0.808
10906WAT      O32959   6.050   5.748   3.115
10906WAT     H132960   6.132   5.777   3.067
10906WAT     H232961   5.980   5.820   3.109
10907WAT      O32962   6.499   7.903   1.241
10907WAT     H132963   6.594   7.877   1.225
10907WAT     H232964   6.493   7.960   1.322
10908WAT      O32965   6.613   8.981   2.325
10908WAT     H132966   6.700   9.015   2.290
10908WAT     H232967   6.601   9.009   2.420
10909WAT      O32968   3.402   1.743   6.452
10909WAT     H132969   3.390   1.644   6.458
10909WAT     H232970   3.372   1.774   6.362
10910WAT      O32971   2.154   6.596   7.012
10910WAT     H132972   2.250   6.612   7.036
10910WAT     H232973   2.141   6.500   6.988
10911WAT      O32974   4.533   9.024   2.773
10911WAT     H132975   4.448   9.022   2.825
10911WAT     H232976   4.558   8.932   2.746
10912WAT      O32977   5.299   1.183   0.874
10912WAT     H132978   5.336   1.143   0.790
10912WAT     H232979   5.239   1.259   0.852
10913WAT      O32980   6.013   8.252   0.511
10913WAT     H132981   6.105   8.289   0.494
10913WAT     H232982   5.956   8.270   0.431
10914WAT      O32983   5.734   7.550   9.507
10914WAT     H132984   5.821   7.555   9.557
10914WAT     H232985   5.751   7.512   9.416
10915WAT      O32986   6.166   9.292   3.885
10915WAT     H132987   6.157   9.242   3.971
10915WAT     H232988   6.135   9.386   3.899
10916WAT      O32989   1.367   3.004   3.468
10916WAT     H132990   1.330   2.983   3.378
10916WAT     H232991   1.357   3.102   3.486
10917WAT      O32992   1.117   9.332   8.066
10917WAT     H132993   1.157   9.243   8.045
10917WAT     H232994   1.086   9.333   8.162
10918WAT      O32995   9.640   5.504   8.139
10918WAT     H132996   9.666   5.544   8.051
10918WAT     H232997   9.593   5.417   8.122
10919WAT      O32998   9.333   9.517   9.329
10919WAT     H132999   9.421   9.480   9.361
10919WAT     H233000   9.259   9.476   9.382
10920WAT      O33001   9.650   7.629   6.066
10920WAT     H133002   9.714   7.681   6.123
10920WAT     H233003   9.570   7.604   6.120
10921WAT      O33004   3.933   0.635   8.666
10921WAT     H133005   3.877   0.577   8.724
10921WAT     H233006   3.996   0.578   8.613
10922WAT      O33007   7.164   3.659   7.287
10922WAT     H133008   7.230   3.587   7.309
10922WAT     H233009   7.079   3.643   7.338
10923WAT      O33010   1.053   1.076   9.846
10923WAT     H133011   1.013   1.072   9.754
10923WAT     H233012   1.130   1.013   9.851
10924WAT      O33013   3.165   1.801   5.978
10924WAT     H133014   3.162   1.751   5.892
10924WAT     H233015   3.091   1.868   5.980
10925WAT      O33016   6.309   1.426   2.222
10925WAT     H133017   6.397   1.472   2.233
10925WAT     H233018   6.310   1.373   2.138
10926WAT      O33019   4.370   3.634   1.324
10926WAT     H133020   4.283   3.683   1.315
10926WAT     H233021   4.377   3.595   1.416
10927WAT      O33022   0.701   0.454   0.159
10927WAT     H133023   0.663   0.372   0.203
10927WAT     H233024   0.754   0.505   0.227
10928WAT      O33025   9.422   9.205   2.770
10928WAT     H133026   9.362   9.128   2.747
10928WAT     H233027   9.369   9.275   2.818
10929WAT      O33028   4.029   0.548   4.951
10929WAT     H133029   3.977   0.479   4.902
10929WAT     H233030   4.091   0.504   5.016
10930WAT      O33031   7.553   2.885   9.006
10930WAT     H133032   7.631   2.946   9.013
10930WAT     H233033   7.555   2.838   8.917
10931WAT      O33034   0.452   0.170   7.805
10931WAT     H133035   0.372   0.124   7.844
10931WAT     H233036   0.492   0.230   7.874
10932WAT      O33037   0.618   6.186   0.106
10932WAT     H133038   0.598   6.158   0.200
10932WAT     H233039   0.544   6.244   0.072
10933WAT      O33040   0.558   6.058   3.230
10933WAT     H133041   0.472   6.108   3.241
10933WAT     H233042   0.548   5.990   3.157
10934WAT      O33043   5.630   5.969   2.273
10934WAT     H133044   5.544   5.994   2.229
10934WAT     H233045   5.616   5.962   2.372
10935WAT      O33046   2.670   0.578   3.762
10935WAT     H133047   2.679   0.545   3.856
10935WAT     H233048   2.657   0.501   3.701
10936WAT      O33049   3.215   0.876   9.886
10936WAT     H133050   3.183   0.876   9.791
10936WAT     H233051   3.236   0.782   9.914
10937WAT      O33052   6.859   6.586   3.904
10937WAT     H133053   6.843   6.631   3.816
10937WAT     H233054   6.786   6.521   3.923
10938WAT      O33055   3.807   5.200   2.527
10938WAT     H133056   3.765   5.133   2.465
10938WAT     H233057   3.903   5.212   2.501
10939WAT      O33058   0.513   6.451   2.090
10939WAT     H133059   0.537   6.455   2.187
10939WAT     H233060   0.538   6.361   2.053
10940WAT      O33061   1.265   2.375   8.097
10940WAT     H133062   1.251   2.465   8.056
10940WAT     H233063   1.362   2.361   8.116
10941WAT      O33064   6.388   9.691   3.833
10941WAT     H133065   6.420   9.779   3.800
10941WAT     H233066   6.411   9.681   3.930
10942WAT      O33067   7.021   1.725   5.440
10942WAT     H133068   7.055   1.819   5.439
10942WAT     H233069   6.926   1.724   5.472
10943WAT      O33070   0.459   3.506   2.632
10943WAT     H133071   0.484   3.513   2.729
10943WAT     H233072   0.395   3.579   2.608
10944WAT      O33073   1.146   7.695   8.517
10944WAT     H133074   1.095   7.616   8.484
10944WAT     H233075   1.242   7.686   8.491
10945WAT      O33076   5.863   1.594   3.759
10945WAT     H133077   5.765   1.609   3.747
10945WAT     H233078   5.883   1.575   3.855
10946WAT      O33079   4.191   8.989   8.989
10946WAT     H133080   4.130   9.019   8.916
10946WAT     H233081   4.248   8.914   8.957
10947WAT      O33082   6.297   9.237   2.853
10947WAT     H133083   6.244   9.202   2.776
10947WAT     H233084   6.371   9.295   2.818
10948WAT      O33085   8.126   8.218   0.166
10948WAT     H133086   8.143   8.153   0.092
10948WAT     H233087   8.199   8.286   0.168
10949WAT      O33088   0.954   1.108   6.753
10949WAT     H133089   1.018   1.155   6.814
10949WAT     H233090   0.867   1.095   6.800
10950WAT      O33091   1.729   8.295   4.995
10950WAT     H133092   1.818   8.256   5.015
10950WAT     H233093   1.660   8.223   4.990
10951WAT      O33094   7.726   8.329   7.029
10951WAT     H133095   7.722   8.350   6.931
10951WAT     H233096   7.822   8.319   7.057
10952WAT      O33097   8.605   6.351   6.783
10952WAT     H133098   8.517   6.341   6.831
10952WAT     H233099   8.645   6.440   6.805
10953WAT      O33100   6.129   8.414   5.053
10953WAT     H133101   6.045   8.405   5.107
10953WAT     H233102   6.110   8.466   4.970
10954WAT      O33103   7.100   1.280   0.930
10954WAT     H133104   7.090   1.338   1.011
10954WAT     H233105   7.063   1.189   0.950
10955WAT      O33106   9.274   0.770   8.592
10955WAT     H133107   9.245   0.689   8.643
10955WAT     H233108   9.196   0.829   8.574
10956WAT      O33109   3.860   3.758   3.618
10956WAT     H133110   3.920   3.742   3.540
10956WAT     H233111   3.767   3.730   3.596
10957WAT      O33112   8.575   0.875   8.625
10957WAT     H133113   8.642   0.872   8.551
10957WAT     H233114   8.483   0.868   8.587
10958WAT      O33115   2.512   8.478   1.667
10958WAT     H133116   2.530   8.570   1.632
10958WAT     H233117   2.473   8.484   1.759
10959WAT      O33118   5.408   5.556   0.958
10959WAT     H133119   5.472   5.633   0.957
10959WAT     H233120   5.420   5.504   1.042
10960WAT      O33121   7.933   7.564   7.879
10960WAT     H133122   8.005   7.615   7.831
10960WAT     H233123   7.965   7.471   7.897
10961WAT      O33124   4.329   2.327   2.158
10961WAT     H133125   4.314   2.322   2.257
10961WAT     H233126   4.329   2.422   2.130
10962WAT      O33127   6.504   5.522   6.237
10962WAT     H133128   6.601   5.499   6.250
10962WAT     H233129   6.448   5.461   6.293
10963WAT      O33130   8.049   5.737   4.152
10963WAT     H133131   8.117   5.672   4.118
10963WAT     H233132   8.036   5.725   4.250
10964WAT      O33133   2.439   1.104   0.460
10964WAT     H133134   2.519   1.113   0.519
10964WAT     H233135   2.450   1.162   0.380
10965WAT      O33136   8.390   0.613   9.292
10965WAT     H133137   8.376   0.653   9.201
10965WAT     H233138   8.351   0.674   9.361
10966WAT      O33139   7.141   5.643   5.761
10966WAT     H133140   7.137   5.571   5.831
10966WAT     H233141   7.054   5.645   5.711
10967WAT      O33142   1.966   8.738   3.302
10967WAT     H133143   1.873   8.761   3.330
10967WAT     H233144   1.963   8.674   3.225
10968WAT      O33145   8.729   1.751   0.527
10968WAT     H133146   8.814   1.756   0.579
10968WAT     H233147   8.653   1.785   0.583
10969WAT      O33148   2.919   5.491   4.939
10969WAT     H133149   2.957   5.399   4.930
10969WAT     H233150   2.851   5.492   5.012
10970WAT      O33151   0.915   1.414   6.259
10970WAT     H133152   0.848   1.405   6.332
10970WAT     H233153   0.921   1.328   6.208
10971WAT      O33154   1.360   2.088   4.351
10971WAT     H133155   1.347   2.039   4.437
10971WAT     H233156   1.318   2.179   4.357
10972WAT      O33157   8.418   1.820   5.308
10972WAT     H133158   8.447   1.894   5.370
10972WAT     H233159   8.326   1.839   5.274
10973WAT      O33160   3.797   2.860   9.618
10973WAT     H133161   3.894   2.863   9.596
10973WAT     H233162   3.773   2.937   9.677
10974WAT      O33163   2.098   2.150   1.068
10974WAT     H133164   2.133   2.194   1.150
10974WAT     H233165   2.111   2.211   0.989
10975WAT      O33166   2.266   5.242   5.510
10975WAT     H133167   2.278   5.143   5.508
10975WAT     H233168   2.356   5.286   5.507
10976WAT      O33169   7.752   1.932   8.910
10976WAT     H133170   7.753   1.832   8.918
10976WAT     H233171   7.837   1.963   8.868
10977WAT      O33172   5.207   6.277   2.599
10977WAT     H133173   5.216   6.367   2.641
10977WAT     H233174   5.113   6.245   2.610
10978WAT      O33175   7.145   5.370   8.697
10978WAT     H133176   7.169   5.280   8.660
10978WAT     H233177   7.209   5.439   8.662
10979WAT      O33178   4.781   3.253   6.316
10979WAT     H133179   4.737   3.341   6.337
10979WAT     H233180   4.855   3.237   6.381
10980WAT      O33181   9.149   3.872   0.975
10980WAT     H133182   9.200   3.958   0.978
10980WAT     H233183   9.195   3.809   0.912
10981WAT      O33184   2.985   1.328   0.824
10981WAT     H133185   3.084   1.338   0.812
10981WAT     H233186   2.954   1.242   0.785
10982WAT      O33187   1.794   5.760   1.387
10982WAT     H133188   1.870   5.804   1.340
10982WAT     H233189   1.825   5.677   1.433
10983WAT      O33190   4.501   4.780   5.283
10983WAT     H133191   4.595   4.797   5.254
10983WAT     H233192   4.459   4.866   5.313
10984WAT      O33193   0.474   2.533   9.271
10984WAT     H133194   0.485   2.595   9.194
10984WAT     H233195   0.546   2.550   9.338
10985WAT      O33196   0.908   4.245   9.778
10985WAT     H133197   0.982   4.280   9.836
10985WAT     H233198   0.895   4.148   9.796
10986WAT      O33199   1.083   5.844   5.176
10986WAT     H133200   1.023   5.821   5.253
10986WAT     H233201   1.063   5.785   5.098
10987WAT      O33202   3.022   9.076   7.482
10987WAT     H133203   3.105   9.037   7.522
10987WAT     H233204   2.990   9.016   7.409
10988WAT      O33205   0.343   0.616   2.427
10988WAT     H133206   0.280   0.638   2.353
10988WAT     H233207   0.294   0.565   2.498
10989WAT      O33208   1.616   3.515   5.803
10989WAT     H133209   1.714   3.502   5.814
10989WAT     H233210   1.578   3.440   5.749
10990WAT      O33211   8.776   1.126   9.705
10990WAT     H133212   8.770   1.084   9.615
10990WAT     H233213   8.690   1.171   9.728
10991WAT      O33214   9.784   9.257   7.553
10991WAT     H133215   9.780   9.157   7.559
10991WAT     H233216   9.862   9.284   7.495
10992WAT      O33217   6.792   4.021   4.665
10992WAT     H133218   6.805   4.105   4.717
10992WAT     H233219   6.701   4.023   4.622
10993WAT      O33220   4.580   0.828   1.892
10993WAT     H133221   4.638   0.761   1.846
10993WAT     H233222   4.554   0.794   1.983
10994WAT      O33223   7.524   3.997   3.033
10994WAT     H133224   7.509   3.905   3.071
10994WAT     H233225   7.567   4.055   3.102
10995WAT      O33226   6.692   5.759   1.182
10995WAT     H133227   6.655   5.671   1.153
10995WAT     H233228   6.695   5.763   1.282
10996WAT      O33229   4.701   0.952   1.235
10996WAT     H133230   4.748   0.878   1.186
10996WAT     H233231   4.768   1.010   1.281
10997WAT      O33232   9.276   6.047   2.826
10997WAT     H133233   9.316   6.086   2.908
10997WAT     H233234   9.318   6.088   2.745
10998WAT      O33235   3.655   7.140   4.805
10998WAT     H133236   3.637   7.059   4.750
10998WAT     H233237   3.726   7.120   4.873
10999WAT      O33238   5.879   6.890   4.532
10999WAT     H133239   5.887   6.899   4.433
10999WAT     H233240   5.970   6.895   4.574
11000WAT      O33241   1.454   2.564   1.896
11000WAT     H133242   1.456   2.467   1.869
11000WAT     H233243   1.527   2.582   1.962
11001WAT      O33244   5.050   5.316   1.364
11001WAT     H133245   4.970   5.348   1.414
11001WAT     H233246   5.021   5.262   1.286
11002WAT      O33247   8.802   8.198   1.240
11002WAT     H133248   8.808   8.245   1.328
11002WAT     H233249   8.887   8.209   1.189
11003WAT      O33250   0.456   4.255   2.680
11003WAT     H133251   0.425   4.277   2.588
11003WAT     H233252   0.462   4.339   2.734
11004WAT      O33253   1.529   9.285   9.489
11004WAT     H133254   1.598   9.214   9.501
11004WAT     H233255   1.513   9.330   9.576
11005WAT      O33256   9.849   1.446   1.913
11005WAT     H133257   9.948   1.443   1.915
11005WAT     H233258   9.819   1.532   1.872
11006WAT      O33259   0.282   9.399   0.478
11006WAT     H133260   0.251   9.346   0.399
11006WAT     H233261   0.260   9.349   0.562
11007WAT      O33262   5.909   0.047   8.079
11007WAT     H133263   5.877  -0.035   8.031
11007WAT     H233264   5.832   0.110   8.092
11008WAT      O33265   5.632   2.557   3.137
11008WAT     H133266   5.671   2.515   3.218
11008WAT     H233267   5.698   2.621   3.097
11009WAT      O33268   5.540   1.633   7.310
11009WAT     H133269   5.511   1.547   7.352
11009WAT     H233270   5.503   1.639   7.217
11010WAT      O33271   8.988   8.724   1.739
11010WAT     H133272   9.038   8.742   1.824
11010WAT     H233273   9.053   8.719   1.663
11011WAT      O33274   4.418   2.082   9.581
11011WAT     H133275   4.393   2.008   9.519
11011WAT     H233276   4.335   2.127   9.614
11012WAT      O33277   9.595   1.625   5.748
11012WAT     H133278   9.687   1.610   5.784
11012WAT     H233279   9.577   1.557   5.676
11013WAT      O33280   4.091   1.395   0.518
11013WAT     H133281   4.135   1.382   0.607
11013WAT     H233282   4.157   1.436   0.454
11014WAT      O33283   6.111   8.731   6.405
11014WAT     H133284   6.062   8.785   6.336
11014WAT     H233285   6.191   8.688   6.363
11015WAT      O33286   2.049   1.993   3.492
11015WAT     H133287   2.030   2.069   3.430
11015WAT     H233288   2.037   2.024   3.587
11016WAT      O33289   2.494   9.456   8.836
11016WAT     H133290   2.548   9.442   8.753
11016WAT     H233291   2.452   9.370   8.864
11017WAT      O33292   5.219   9.466   3.823
11017WAT     H133293   5.164   9.413   3.759
11017WAT     H233294   5.161   9.532   3.871
11018WAT      O33295   7.663   3.930   0.631
11018WAT     H133296   7.652   3.831   0.637
11018WAT     H233297   7.592   3.968   0.571
11019WAT      O33298   4.869   2.098   2.366
11019WAT     H133299   4.910   2.128   2.452
11019WAT     H233300   4.796   2.032   2.385
11020WAT      O33301   2.673   4.052   1.845
11020WAT     H133302   2.701   4.058   1.941
11020WAT     H233303   2.716   4.126   1.793
11021WAT      O33304   0.468   1.480   8.218
11021WAT     H133305   0.568   1.473   8.222
11021WAT     H233306   0.429   1.388   8.223
11022WAT      O33307   3.700   7.261   0.065
11022WAT     H133308   3.672   7.165   0.072
11022WAT     H233309   3.757   7.285   0.144
11023WAT      O33310   2.868   8.126   6.728
11023WAT     H133311   2.854   8.225   6.735
11023WAT     H233312   2.934   8.097   6.797
11024WAT      O33313   1.725   7.813   1.667
11024WAT     H133314   1.637   7.841   1.628
11024WAT     H233315   1.800   7.847   1.610
11025WAT      O33316   2.963   0.840   0.855
11025WAT     H133317   2.919   0.773   0.796
11025WAT     H233318   3.010   0.793   0.929
11026WAT      O33319   1.928   9.365   9.529
11026WAT     H133320   1.934   9.434   9.601
11026WAT     H233321   1.932   9.274   9.571
11027WAT      O33322   0.067   4.592   8.531
11027WAT     H133323   0.028   4.669   8.582
11027WAT     H233324   0.071   4.615   8.434
11028WAT      O33325   0.677   7.811   6.199
11028WAT     H133326   0.677   7.874   6.276
11028WAT     H233327   0.704   7.859   6.115
11029WAT      O33328   1.247   8.164   9.234
11029WAT     H133329   1.251   8.106   9.316
11029WAT     H233330   1.294   8.118   9.159
11030WAT      O33331   0.972   2.526   8.219
11030WAT     H133332   0.918   2.610   8.214
11030WAT     H233333   1.063   2.546   8.253
11031WAT      O33334   6.325   1.796   0.783
11031WAT     H133335   6.271   1.713   0.801
11031WAT     H233336   6.331   1.811   0.684
11032WAT      O33337   5.788   3.843   3.182
11032WAT     H133338   5.831   3.856   3.093
11032WAT     H233339   5.724   3.766   3.178
11033WAT      O33340   6.932   0.959   8.795
11033WAT     H133341   6.861   1.007   8.846
11033WAT     H233342   6.891   0.890   8.736
11034WAT      O33343   2.565   0.340   9.300
11034WAT     H133344   2.552   0.255   9.351
11034WAT     H233345   2.488   0.352   9.237
11035WAT      O33346   3.256   1.687   2.400
11035WAT     H133347   3.342   1.638   2.411
11035WAT     H233348   3.230   1.689   2.304
11036WAT      O33349   8.939   5.691   5.796
11036WAT     H133350   8.903   5.747   5.871
11036WAT     H233351   8.970   5.603   5.832
11037WAT      O33352   4.315   2.944   3.276
11037WAT     H133353   4.346   3.039   3.272
11037WAT     H233354   4.216   2.940   3.267
11038WAT      O33355   0.095   1.807   5.029
11038WAT     H133356   0.130   1.761   4.947
11038WAT     H233357  -0.003   1.788   5.039
11039WAT      O33358   2.887   7.614   9.431
11039WAT     H133359   2.871   7.628   9.529
11039WAT     H233360   2.830   7.539   9.398
11040WAT      O33361   7.049   2.407   1.563
11040WAT     H133362   7.094   2.375   1.646
11040WAT     H233363   7.078   2.501   1.543
11041WAT      O33364   2.008   2.013   4.640
11041WAT     H133365   2.033   2.031   4.736
11041WAT     H233366   2.020   2.097   4.587
11042WAT      O33367   6.395   1.274   4.525
11042WAT     H133368   6.454   1.322   4.460
11042WAT     H233369   6.337   1.209   4.477
11043WAT      O33370   9.032   6.271   0.981
11043WAT     H133371   9.128   6.294   0.998
11043WAT     H233372   9.026   6.176   0.950
11044WAT      O33373   3.030   9.814   5.746
11044WAT     H133374   2.963   9.855   5.684
11044WAT     H233375   3.062   9.884   5.810
11045WAT      O33376   0.864   1.401   6.981
11045WAT     H133377   0.806   1.372   6.905
11045WAT     H233378   0.947   1.444   6.945
11046WAT      O33379   9.722   8.065   6.193
11046WAT     H133380   9.723   8.073   6.293
11046WAT     H233381   9.749   7.972   6.167
11047WAT      O33382   3.569   0.257   1.378
11047WAT     H133383   3.502   0.303   1.436
11047WAT     H233384   3.649   0.233   1.433
11048WAT      O33385   3.229   0.762   4.794
11048WAT     H133386   3.143   0.756   4.845
11048WAT     H233387   3.306   0.743   4.854
11049WAT      O33388   1.288   7.047   8.016
11049WAT     H133389   1.223   6.973   8.032
11049WAT     H233390   1.291   7.068   7.918
11050WAT      O33391   6.967   3.868   6.378
11050WAT     H133392   6.926   3.910   6.297
11050WAT     H233393   6.896   3.853   6.448
11051WAT      O33394   0.478   0.978   4.812
11051WAT     H133395   0.414   0.950   4.741
11051WAT     H233396   0.439   0.959   4.902
11052WAT      O33397   3.058   6.646   7.797
11052WAT     H133398   3.075   6.675   7.891
11052WAT     H233399   3.141   6.659   7.743
11053WAT      O33400   7.192   1.721   9.775
11053WAT     H133401   7.241   1.640   9.808
11053WAT     H233402   7.127   1.752   9.845
11054WAT      O33403   7.187   4.048   3.996
11054WAT     H133404   7.158   4.076   4.087
11054WAT     H233405   7.269   3.992   4.002
11055WAT      O33406   2.454   1.471   8.880
11055WAT     H133407   2.535   1.508   8.833
11055WAT     H233408   2.470   1.471   8.978
11056WAT      O33409   8.864   9.379   1.697
11056WAT     H133410   8.953   9.366   1.653
11056WAT     H233411   8.815   9.292   1.699
11057WAT      O33412   8.794   8.261   7.873
11057WAT     H133413   8.833   8.348   7.842
11057WAT     H233414   8.820   8.189   7.808
11058WAT      O33415   5.667   1.064   1.240
11058WAT     H133416   5.656   1.151   1.192
11058WAT     H233417   5.598   1.000   1.208
11059WAT      O33418   5.118   7.519   7.411
11059WAT     H133419   5.044   7.495   7.348
11059WAT     H233420   5.185   7.576   7.364
11060WAT      O33421   1.332   8.412   4.431
11060WAT     H133422   1.245   8.431   4.384
11060WAT     H233423   1.407   8.414   4.364
11061WAT      O33424   9.769   9.259   0.193
11061WAT     H133425   9.777   9.159   0.196
11061WAT     H233426   9.715   9.285   0.113
11062WAT      O33427   4.577   4.351   2.597
11062WAT     H133428   4.621   4.436   2.627
11062WAT     H233429   4.609   4.275   2.654
11063WAT      O33430   8.990   9.433   9.067
11063WAT     H133431   8.931   9.372   9.014
11063WAT     H233432   9.085   9.416   9.043
11064WAT      O33433   3.656   2.106   8.001
11064WAT     H133434   3.597   2.051   7.942
11064WAT     H233435   3.600   2.146   8.074
11065WAT      O33436   2.941   4.008   4.518
11065WAT     H133437   3.027   3.957   4.522
11065WAT     H233438   2.954   4.092   4.465
11066WAT      O33439   4.992   3.998   0.673
11066WAT     H133440   4.893   3.996   0.685
11066WAT     H233441   5.019   3.931   0.604
11067WAT      O33442   1.925   1.082   9.393
11067WAT     H133443   1.963   0.991   9.412
11067WAT     H233444   1.994   1.139   9.349
11068WAT      O33445   9.686   7.291   7.539
11068WAT     H133446   9.697   7.385   7.571
11068WAT     H233447   9.774   7.257   7.504
11069WAT      O33448   4.924   7.445   0.577
11069WAT     H133449   4.847   7.496   0.539
11069WAT     H233450   4.909   7.347   0.562
11070WAT      O33451   8.634   5.702   6.278
11070WAT     H133452   8.565   5.686   6.348
11070WAT     H233453   8.683   5.787   6.297
11071WAT      O33454   4.644   0.361   0.547
11071WAT     H133455   4.674   0.275   0.588
11071WAT     H233456   4.581   0.342   0.471
11072WAT      O33457   8.317   4.503   5.261
11072WAT     H133458   8.221   4.531   5.256
11072WAT     H233459   8.329   4.443   5.340
11073WAT      O33460   4.996   1.109   1.024
11073WAT     H133461   5.090   1.112   0.988
11073WAT     H233462   4.980   1.189   1.082
11074WAT      O33463   5.870   9.746   9.658
11074WAT     H133464   5.940   9.687   9.618
11074WAT     H233465   5.914   9.818   9.712
11075WAT      O33466   7.960   6.713   6.502
11075WAT     H133467   7.997   6.638   6.446
11075WAT     H233468   7.909   6.776   6.443
11076WAT      O33469   4.088   6.464   4.972
11076WAT     H133470   4.018   6.533   4.954
11076WAT     H233471   4.112   6.418   4.886
11077WAT      O33472   0.301   7.148   9.712
11077WAT     H133473   0.398   7.156   9.732
11077WAT     H233474   0.288   7.086   9.635
11078WAT      O33475   4.701   1.177   4.936
11078WAT     H133476   4.722   1.274   4.936
11078WAT     H233477   4.643   1.155   5.015
11079WAT      O33478   6.560   2.842   9.084
11079WAT     H133479   6.577   2.744   9.101
11079WAT     H233480   6.636   2.895   9.121
11080WAT      O33481   5.715   2.152   2.996
11080WAT     H133482   5.725   2.238   2.946
11080WAT     H233483   5.800   2.132   3.046
11081WAT      O33484   5.081   2.774   0.735
11081WAT     H133485   5.165   2.751   0.784
11081WAT     H233486   5.075   2.873   0.721
11082WAT      O33487   5.873   4.243   0.088
11082WAT     H133488   5.899   4.150   0.062
11082WAT     H233489   5.779   4.261   0.059
11083WAT      O33490   7.571   0.507   1.126
11083WAT     H133491   7.497   0.550   1.074
11083WAT     H233492   7.650   0.569   1.127
11084WAT      O33493   0.740   6.241   3.104
11084WAT     H133494   0.835   6.221   3.129
11084WAT     H233495   0.681   6.166   3.133
11085WAT      O33496   0.942   2.772   2.800
11085WAT     H133497   0.882   2.850   2.817
11085WAT     H233498   0.891   2.700   2.753
11086WAT      O33499   7.220   7.963   2.910
11086WAT     H133500   7.133   7.928   2.945
11086WAT     H233501   7.262   7.895   2.850
11087WAT      O33502   6.803   2.151   3.893
11087WAT     H133503   6.746   2.160   3.975
11087WAT     H233504   6.899   2.168   3.917
11088WAT      O33505   3.226   7.867   0.889
11088WAT     H133506   3.257   7.879   0.983
11088WAT     H233507   3.127   7.881   0.884
11089WAT      O33508   8.807   8.558   8.078
11089WAT     H133509   8.855   8.607   8.006
11089WAT     H233510   8.823   8.460   8.068
11090WAT      O33511   1.216   0.629   9.249
11090WAT     H133512   1.210   0.537   9.289
11090WAT     H233513   1.279   0.685   9.303
11091WAT      O33514   3.303   1.529   9.287
11091WAT     H133515   3.386   1.481   9.257
11091WAT     H233516   3.306   1.624   9.256
11092WAT      O33517   1.982   6.180   2.258
11092WAT     H133518   1.918   6.223   2.322
11092WAT     H233519   2.016   6.094   2.297
11093WAT      O33520   9.206   0.679   7.593
11093WAT     H133521   9.189   0.750   7.661
11093WAT     H233522   9.266   0.609   7.632
11094WAT      O33523   8.684   4.452   2.946
11094WAT     H133524   8.707   4.504   2.864
11094WAT     H233525   8.650   4.362   2.919
11095WAT      O33526   0.392   5.772   6.110
11095WAT     H133527   0.420   5.834   6.037
11095WAT     H233528   0.353   5.825   6.185
11096WAT      O33529   6.591   0.349   9.157
11096WAT     H133530   6.527   0.380   9.227
11096WAT     H233531   6.564   0.387   9.068
11097WAT      O33532   1.396   1.928   3.521
11097WAT     H133533   1.358   1.988   3.450
11097WAT     H233534   1.324   1.903   3.586
11098WAT      O33535   2.788   7.016   2.412
11098WAT     H133536   2.689   6.997   2.415
11098WAT     H233537   2.836   6.953   2.472
11099WAT      O33538   4.036   7.022   3.598
11099WAT     H133539   4.091   7.086   3.544
11099WAT     H233540   4.062   7.031   3.695
11100WAT      O33541   8.447   6.223   3.155
11100WAT     H133542   8.524   6.270   3.198
11100WAT     H233543   8.464   6.125   3.154
11101WAT      O33544   8.187   5.149   8.138
11101WAT     H133545   8.214   5.080   8.070
11101WAT     H233546   8.210   5.240   8.104
11102WAT      O33547   8.117   8.176   3.095
11102WAT     H133548   8.203   8.225   3.083
11102WAT     H233549   8.105   8.152   3.191
11103WAT      O33550   6.574   9.580   6.114
11103WAT     H133551   6.541   9.621   6.199
11103WAT     H233552   6.508   9.598   6.041
11104WAT      O33553   7.721   8.045   5.236
11104WAT     H133554   7.704   8.084   5.146
11104WAT     H233555   7.646   7.984   5.260
11105WAT      O33556   5.089   6.880   4.107
11105WAT     H133557   5.017   6.950   4.109
11105WAT     H233558   5.056   6.798   4.153
11106WAT      O33559   8.643   8.917   3.419
11106WAT     H133560   8.665   8.850   3.490
11106WAT     H233561   8.687   9.004   3.441
11107WAT      O33562   8.051   5.688   7.066
11107WAT     H133563   7.962   5.645   7.051
11107WAT     H233564   8.098   5.642   7.142
11108WAT      O33565   3.218   6.457   3.803
11108WAT     H133566   3.118   6.460   3.798
11108WAT     H233567   3.251   6.369   3.769
11109WAT      O33568   2.399   1.736   3.310
11109WAT     H133569   2.491   1.740   3.270
11109WAT     H233570   2.344   1.669   3.259
11110WAT      O33571   6.637   9.152   6.597
11110WAT     H133572   6.565   9.089   6.569
11110WAT     H233573   6.597   9.226   6.652
11111WAT      O33574   6.272   3.101   1.867
11111WAT     H133575   6.280   3.158   1.785
11111WAT     H233576   6.315   3.148   1.945
11112WAT      O33577   9.863   9.081   9.033
11112WAT     H133578   9.842   9.091   9.130
11112WAT     H233579   9.781   9.100   8.979
11113WAT      O33580   2.101   5.910   5.695
11113WAT     H133581   2.067   5.830   5.648
11113WAT     H233582   2.174   5.952   5.641
11114WAT      O33583   5.520   1.102   1.943
11114WAT     H133584   5.569   1.125   1.859
11114WAT     H233585   5.500   1.186   1.994
11115WAT      O33586   1.836   4.038   4.791
11115WAT     H133587   1.753   3.992   4.822
11115WAT     H233588   1.811   4.115   4.732
11116WAT      O33589   8.733   7.531   3.385
11116WAT     H133590   8.636   7.506   3.373
11116WAT     H233591   8.762   7.508   3.477
11117WAT      O33592   8.899   9.835   8.049
11117WAT     H133593   8.832   9.895   8.005
11117WAT     H233594   8.953   9.887   8.115
11118WAT      O33595   8.299   4.255   6.503
11118WAT     H133596   8.307   4.245   6.602
11118WAT     H233597   8.287   4.351   6.480
11119WAT      O33598   1.038   7.699   5.415
11119WAT     H133599   1.114   7.655   5.366
11119WAT     H233600   0.970   7.730   5.349
11120WAT      O33601   0.279   2.018   1.393
11120WAT     H133602   0.346   1.982   1.456
11120WAT     H233603   0.308   2.001   1.299
11121WAT      O33604   7.315   6.756   8.399
11121WAT     H133605   7.397   6.703   8.424
11121WAT     H233606   7.244   6.740   8.467
11122WAT      O33607   5.108   4.196   9.043
11122WAT     H133608   5.142   4.166   9.132
11122WAT     H233609   5.166   4.270   9.009
11123WAT      O33610   6.728   5.610   5.369
11123WAT     H133611   6.634   5.584   5.391
11123WAT     H233612   6.748   5.700   5.410
11124WAT      O33613   2.856   4.998   8.463
11124WAT     H133614   2.815   4.947   8.388
11124WAT     H233615   2.955   4.982   8.463
11125WAT      O33616   0.905   8.613   3.319
11125WAT     H133617   0.935   8.527   3.359
11125WAT     H233618   0.805   8.618   3.322
11126WAT      O33619   9.714   9.345   7.784
11126WAT     H133620   9.699   9.443   7.796
11126WAT     H233621   9.739   9.326   7.689
11127WAT      O33622   2.510   4.389   4.064
11127WAT     H133623   2.512   4.488   4.073
11127WAT     H233624   2.603   4.355   4.048
11128WAT      O33625   3.575   8.506   2.976
11128WAT     H133626   3.604   8.423   3.024
11128WAT     H233627   3.596   8.586   3.032
11129WAT      O33628   5.190   2.203   6.144
11129WAT     H133629   5.181   2.297   6.111
11129WAT     H233630   5.170   2.200   6.242
11130WAT      O33631   1.732   8.542   7.167
11130WAT     H133632   1.704   8.637   7.160
11130WAT     H233633   1.660   8.489   7.211
11131WAT      O33634   5.418   4.470   9.618
11131WAT     H133635   5.465   4.390   9.583
11131WAT     H233636   5.376   4.520   9.541
11132WAT      O33637   3.647   7.684   4.638
11132WAT     H133638   3.570   7.731   4.682
11132WAT     H233639   3.658   7.593   4.678
11133WAT      O33640   4.703   4.856   3.206
11133WAT     H133641   4.782   4.915   3.189
11133WAT     H233642   4.678   4.861   3.302
11134WAT      O33643   1.214   7.824   2.986
11134WAT     H133644   1.149   7.892   2.952
11134WAT     H233645   1.172   7.734   2.985
11135WAT      O33646   7.754   4.331   7.493
11135WAT     H133647   7.811   4.286   7.561
11135WAT     H233648   7.802   4.333   7.405
11136WAT      O33649   2.761   1.620   7.556
11136WAT     H133650   2.761   1.623   7.656
11136WAT     H233651   2.856   1.624   7.523
11137WAT      O33652   6.737   8.879   0.279
11137WAT     H133653   6.685   8.964   0.271
11137WAT     H233654   6.690   8.807   0.228
11138WAT      O33655   5.160   5.870   6.082
11138WAT     H133656   5.106   5.917   6.151
11138WAT     H233657   5.100   5.837   6.009
11139WAT      O33658   8.541   1.901   1.711
11139WAT     H133659   8.444   1.924   1.718
11139WAT     H233660   8.575   1.927   1.621
11140WAT      O33661   9.396   9.741   5.589
11140WAT     H133662   9.307   9.762   5.629
11140WAT     H233663   9.433   9.658   5.631
11141WAT      O33664   9.439   9.159   9.455
11141WAT     H133665   9.496   9.236   9.426
11141WAT     H233666   9.460   9.079   9.399
11142WAT      O33667   0.806   7.330   0.962
11142WAT     H133668   0.767   7.422   0.949
11142WAT     H233669   0.894   7.338   1.008
11143WAT      O33670   6.857   5.792   4.697
11143WAT     H133671   6.826   5.697   4.686
11143WAT     H233672   6.930   5.810   4.631
11144WAT      O33673   6.009   0.558   6.717
11144WAT     H133674   6.004   0.654   6.744
11144WAT     H233675   6.065   0.508   6.783
11145WAT      O33676   4.929   3.769   4.307
11145WAT     H133677   4.876   3.854   4.304
11145WAT     H233678   4.911   3.715   4.225
11146WAT      O33679   8.082   4.244   5.879
11146WAT     H133680   8.041   4.172   5.822
11146WAT     H233681   8.167   4.275   5.837
11147WAT      O33682   4.778   6.180   2.349
11147WAT     H133683   4.691   6.173   2.397
11147WAT     H233684   4.764   6.229   2.262
11148WAT      O33685   1.950   5.443   0.238
11148WAT     H133686   1.940   5.456   0.139
11148WAT     H233687   2.023   5.376   0.256
11149WAT      O33688   0.678   4.534   7.485
11149WAT     H133689   0.733   4.454   7.508
11149WAT     H233690   0.724   4.587   7.414
11150WAT      O33691   4.486   3.557   5.301
11150WAT     H133692   4.573   3.605   5.317
11150WAT     H233693   4.504   3.462   5.275
11151WAT      O33694   6.518   6.834   5.877
11151WAT     H133695   6.513   6.769   5.802
11151WAT     H233696   6.608   6.826   5.921
11152WAT      O33697   2.421   9.404   4.555
11152WAT     H133698   2.345   9.357   4.598
11152WAT     H233699   2.421   9.385   4.456
11153WAT      O33700   2.378   6.694   1.202
11153WAT     H133701   2.298   6.732   1.155
11153WAT     H233702   2.381   6.595   1.188
11154WAT      O33703   7.641   5.027   3.162
11154WAT     H133704   7.575   4.952   3.164
11154WAT     H233705   7.656   5.055   3.068
11155WAT      O33706   2.357   6.507   8.698
11155WAT     H133707   2.389   6.602   8.689
11155WAT     H233708   2.434   6.445   8.685
11156WAT      O33709   1.290   3.334   3.394
11156WAT     H133710   1.261   3.426   3.423
11156WAT     H233711   1.218   3.292   3.340
11157WAT      O33712   6.602   0.988   3.686
11157WAT     H133713   6.579   0.891   3.701
11157WAT     H233714   6.541   1.026   3.616
11158WAT      O33715   7.603   8.821   2.672
11158WAT     H133716   7.575   8.794   2.764
11158WAT     H233717   7.662   8.902   2.677
11159WAT      O33718   4.643   2.034   4.861
11159WAT     H133719   4.622   2.024   4.764
11159WAT     H233720   4.690   2.120   4.877
11160WAT      O33721   2.124   2.919   4.856
11160WAT     H133722   2.181   2.841   4.882
11160WAT     H233723   2.178   3.003   4.856
11161WAT      O33724   4.077   5.358   1.957
11161WAT     H133725   3.999   5.410   1.920
11161WAT     H233726   4.043   5.286   2.017
11162WAT      O33727   7.609   4.938   9.256
11162WAT     H133728   7.673   4.971   9.186
11162WAT     H233729   7.573   5.016   9.308
11163WAT      O33730   7.888   1.350   9.486
11163WAT     H133731   7.789   1.349   9.498
11163WAT     H233732   7.931   1.298   9.560
11164WAT      O33733   6.461   9.021   8.783
11164WAT     H133734   6.539   9.085   8.782
11164WAT     H233735   6.469   8.959   8.705
11165WAT      O33736   3.164   6.542   2.728
11165WAT     H133737   3.176   6.502   2.819
11165WAT     H233738   3.181   6.640   2.732
11166WAT      O33739   4.852   5.179   6.318
11166WAT     H133740   4.939   5.158   6.273
11166WAT     H233741   4.863   5.261   6.374
11167WAT      O33742   4.354   8.792   0.813
11167WAT     H133743   4.389   8.733   0.885
11167WAT     H233744   4.272   8.751   0.772
11168WAT      O33745   6.317   1.626   3.862
11168WAT     H133746   6.226   1.630   3.822
11168WAT     H233747   6.324   1.692   3.936
11169WAT      O33748   6.784   8.399   4.632
11169WAT     H133749   6.698   8.348   4.635
11169WAT     H233750   6.778   8.470   4.561
11170WAT      O33751   6.546   8.706   6.999
11170WAT     H133752   6.449   8.689   6.980
11170WAT     H233753   6.601   8.664   6.927
11171WAT      O33754   7.631   4.774   5.009
11171WAT     H133755   7.545   4.788   5.058
11171WAT     H233756   7.693   4.850   5.028
11172WAT      O33757   1.298   4.424   8.630
11172WAT     H133758   1.256   4.500   8.681
11172WAT     H233759   1.378   4.391   8.679
11173WAT      O33760   6.704   1.537   2.803
11173WAT     H133761   6.656   1.512   2.888
11173WAT     H233762   6.743   1.455   2.762
11174WAT      O33763   2.068   4.245   1.157
11174WAT     H133764   2.011   4.264   1.237
11174WAT     H233765   2.159   4.283   1.172
11175WAT      O33766   1.387   8.887   6.450
11175WAT     H133767   1.324   8.877   6.527
11175WAT     H233768   1.479   8.864   6.480
11176WAT      O33769   3.471   7.211   5.932
11176WAT     H133770   3.538   7.176   5.998
11176WAT     H233771   3.389   7.241   5.981
11177WAT      O33772   7.833   9.197   1.270
11177WAT     H133773   7.886   9.217   1.352
11177WAT     H233774   7.736   9.196   1.292
11178WAT      O33775   5.149   5.583   1.013
11178WAT     H133776   5.136   5.640   1.093
11178WAT     H233777   5.247   5.575   0.993
11179WAT      O33778   7.252   1.171   2.560
11179WAT     H133779   7.218   1.218   2.479
11179WAT     H233780   7.310   1.234   2.613
11180WAT      O33781   5.265   8.518   6.105
11180WAT     H133782   5.225   8.481   6.021
11180WAT     H233783   5.350   8.567   6.083
11181WAT      O33784   7.273   3.929   8.967
11181WAT     H133785   7.324   4.014   8.954
11181WAT     H233786   7.302   3.862   8.899
11182WAT      O33787   2.613   4.770   0.920
11182WAT     H133788   2.543   4.732   0.981
11182WAT     H233789   2.576   4.852   0.875
11183WAT      O33790   6.420   6.481   8.602
11183WAT     H133791   6.337   6.432   8.577
11183WAT     H233792   6.500   6.433   8.566
11184WAT      O33793   3.130   5.624   3.350
11184WAT     H133794   3.149   5.629   3.252
11184WAT     H233795   3.195   5.682   3.399
11185WAT      O33796   1.600   6.614   9.315
11185WAT     H133797   1.547   6.562   9.382
11185WAT     H233798   1.622   6.704   9.352
11186WAT      O33799   8.341   5.565   2.058
11186WAT     H133800   8.308   5.556   1.964
11186WAT     H233801   8.405   5.491   2.078
11187WAT      O33802   8.248   8.161   9.794
11187WAT     H133803   8.186   8.235   9.766
11187WAT     H233804   8.275   8.109   9.714
11188WAT      O33805   9.784   0.161   0.427
11188WAT     H133806   9.868   0.150   0.373
11188WAT     H233807   9.808   0.176   0.523
11189WAT      O33808   0.543   1.171   1.568
11189WAT     H133809   0.458   1.119   1.563
11189WAT     H233810   0.618   1.116   1.531
11190WAT      O33811   0.408   0.877   7.277
11190WAT     H133812   0.462   0.925   7.208
11190WAT     H233813   0.468   0.819   7.332
11191WAT      O33814   2.701   0.754   2.272
11191WAT     H133815   2.768   0.806   2.218
11191WAT     H233816   2.738   0.741   2.365
11192WAT      O33817   1.791   7.388   6.924
11192WAT     H133818   1.703   7.345   6.943
11192WAT     H233819   1.777   7.470   6.868
11193WAT      O33820   6.756   9.167   0.827
11193WAT     H133821   6.826   9.238   0.834
11193WAT     H233822   6.677   9.193   0.881
11194WAT      O33823   8.682   4.745   3.287
11194WAT     H133824   8.743   4.817   3.254
11194WAT     H233825   8.651   4.768   3.380
11195WAT      O33826   4.915   8.583   8.000
11195WAT     H133827   5.014   8.596   8.002
11195WAT     H233828   4.875   8.615   8.086
11196WAT      O33829   2.167   4.670   6.476
11196WAT     H133830   2.098   4.728   6.520
11196WAT     H233831   2.232   4.638   6.545
11197WAT      O33832   4.485   3.248   7.615
11197WAT     H133833   4.501   3.300   7.698
11197WAT     H233834   4.566   3.192   7.595
11198WAT      O33835   5.815   4.937   8.574
11198WAT     H133836   5.898   4.889   8.545
11198WAT     H233837   5.768   4.974   8.494
11199WAT      O33838   3.206   4.466   0.293
11199WAT     H133839   3.223   4.519   0.211
11199WAT     H233840   3.242   4.514   0.373
11200WAT      O33841   3.854   1.163   4.158
11200WAT     H133842   3.928   1.156   4.225
11200WAT     H233843   3.822   1.257   4.152
11201WAT      O33844   8.846   3.085   9.758
11201WAT     H133845   8.802   3.012   9.705
11201WAT     H233846   8.790   3.168   9.751
11202WAT      O33847   2.144   1.984   8.864
11202WAT     H133848   2.050   1.968   8.894
11202WAT     H233849   2.147   1.987   8.765
11203WAT      O33850   3.297   0.765   7.766
11203WAT     H133851   3.293   0.801   7.859
11203WAT     H233852   3.337   0.833   7.705
11204WAT      O33853   6.777   9.522   0.350
11204WAT     H133854   6.820   9.611   0.364
11204WAT     H233855   6.848   9.452   0.341
11205WAT      O33856   8.828   5.943   4.700
11205WAT     H133857   8.898   5.880   4.666
11205WAT     H233858   8.867   6.034   4.710
11206WAT      O33859   9.562   3.274   6.296
11206WAT     H133860   9.542   3.347   6.231
11206WAT     H233861   9.604   3.197   6.248
11207WAT      O33862   2.422   8.008   3.380
11207WAT     H133863   2.500   7.982   3.323
11207WAT     H233864   2.436   7.972   3.473
11208WAT      O33865   5.189   4.472   9.751
11208WAT     H133866   5.146   4.561   9.761
11208WAT     H233867   5.280   4.483   9.711
11209WAT      O33868   6.871   9.410   1.996
11209WAT     H133869   6.951   9.468   1.981
11209WAT     H233870   6.800   9.432   1.929
11210WAT      O33871   6.444   7.438   3.846
11210WAT     H133872   6.445   7.535   3.867
11210WAT     H233873   6.362   7.416   3.793
11211WAT      O33874   7.502   4.343   8.243
11211WAT     H133875   7.413   4.311   8.276
11211WAT     H233876   7.550   4.390   8.318
11212WAT      O33877   3.710   8.980   9.000
11212WAT     H133878   3.752   8.918   8.934
11212WAT     H233879   3.705   9.072   8.961
11213WAT      O33880   7.982   7.298   5.055
11213WAT     H133881   7.957   7.281   5.151
11213WAT     H233882   8.081   7.307   5.047
11214WAT      O33883   7.419   8.602   7.456
11214WAT     H133884   7.354   8.528   7.437
11214WAT     H233885   7.396   8.682   7.401
11215WAT      O33886   4.345   2.789   2.629
11215WAT     H133887   4.285   2.776   2.707
11215WAT     H233888   4.440   2.769   2.656
11216WAT      O33889   8.477   9.415   1.490
11216WAT     H133890   8.454   9.504   1.449
11216WAT     H233891   8.431   9.343   1.439
11217WAT      O33892   3.555   2.694   7.084
11217WAT     H133893   3.488   2.712   7.156
11217WAT     H233894   3.509   2.690   6.995
11218WAT      O33895   3.822   0.101   3.440
11218WAT     H133896   3.891   0.150   3.387
11218WAT     H233897   3.740   0.088   3.384
11219WAT      O33898   3.466   4.141   5.065
11219WAT     H133899   3.515   4.105   4.985
11219WAT     H233900   3.531   4.153   5.140
11220WAT      O33901   5.829   6.505   8.573
11220WAT     H133902   5.872   6.549   8.652
11220WAT     H233903   5.738   6.473   8.598
11221WAT      O33904   5.067   1.959   7.224
11221WAT     H133905   5.039   1.925   7.135
11221WAT     H233906   5.011   1.918   7.296
11222WAT      O33907   1.751   5.225   3.359
11222WAT     H133908   1.682   5.282   3.403
11222WAT     H233909   1.842   5.252   3.390
11223WAT      O33910   2.119   3.280   3.638
11223WAT     H133911   2.070   3.208   3.688
11223WAT     H233912   2.053   3.336   3.589
11224WAT      O33913   5.664   8.583   1.485
11224WAT     H133914   5.590   8.638   1.446
11224WAT     H233915   5.747   8.638   1.493
11225WAT      O33916   0.285   6.025   1.482
11225WAT     H133917   0.224   6.031   1.561
11225WAT     H233918   0.380   6.019   1.514
11226WAT      O33919   0.393   7.165   5.291
11226WAT     H133920   0.408   7.230   5.366
11226WAT     H233921   0.470   7.101   5.288
11227WAT      O33922   5.014   8.166   3.346
11227WAT     H133923   5.091   8.134   3.401
11227WAT     H233924   5.042   8.175   3.251
11228WAT      O33925   0.445   5.978   4.316
11228WAT     H133926   0.389   6.033   4.254
11228WAT     H233927   0.443   6.018   4.407
11229WAT      O33928   3.202   4.934   0.997
11229WAT     H133929   3.161   4.848   1.026
11229WAT     H233930   3.283   4.917   0.942
11230WAT      O33931   7.571   7.981   3.930
11230WAT     H133932   7.601   7.887   3.947
11230WAT     H233933   7.571   8.032   4.016
11231WAT      O33934   2.452   5.962   8.289
11231WAT     H133935   2.424   5.941   8.195
11231WAT     H233936   2.408   5.898   8.352
11232WAT      O33937   5.838   4.281   4.272
11232WAT     H133938   5.751   4.272   4.224
11232WAT     H233939   5.839   4.368   4.323
11233WAT      O33940   7.393   4.617   3.108
11233WAT     H133941   7.485   4.618   3.069
11233WAT     H233942   7.345   4.534   3.081
11234WAT      O33943   5.467   3.947   8.817
11234WAT     H133944   5.470   4.032   8.869
11234WAT     H233945   5.498   3.964   8.724
11235WAT      O33946   4.405   7.456   4.184
11235WAT     H133947   4.504   7.462   4.174
11235WAT     H233948   4.367   7.549   4.191
11236WAT      O33949   1.623   9.738   1.061
11236WAT     H133950   1.697   9.765   1.000
11236WAT     H233951   1.552   9.808   1.060
11237WAT      O33952   8.693   2.447   2.636
11237WAT     H133953   8.695   2.547   2.646
11237WAT     H233954   8.619   2.409   2.691
11238WAT      O33955   1.711   7.546   9.849
11238WAT     H133956   1.662   7.633   9.857
11238WAT     H233957   1.721   7.504   9.940
11239WAT      O33958   5.442   3.782   8.418
11239WAT     H133959   5.513   3.773   8.348
11239WAT     H233960   5.469   3.851   8.485
11240WAT      O33961   1.714   9.549   3.664
11240WAT     H133962   1.726   9.648   3.670
11240WAT     H233963   1.753   9.506   3.745
11241WAT      O33964   1.037   8.116   5.964
11241WAT     H133965   1.049   8.183   5.891
11241WAT     H233966   1.077   8.029   5.937
11242WAT      O33967   8.967   7.023   8.032
11242WAT     H133968   9.067   7.033   8.036
11242WAT     H233969   8.930   7.023   8.125
11243WAT      O33970   6.339   2.585   2.117
11243WAT     H133971   6.294   2.647   2.180
11243WAT     H233972   6.324   2.490   2.146
11244WAT      O33973   5.004   3.534   5.316
11244WAT     H133974   5.074   3.586   5.267
11244WAT     H233975   4.994   3.571   5.408
11245WAT      O33976   4.282   7.835   9.512
11245WAT     H133977   4.262   7.869   9.420
11245WAT     H233978   4.199   7.841   9.568
11246WAT      O33979   3.566   0.110   0.430
11246WAT     H133980   3.661   0.139   0.427
11246WAT     H233981   3.523   0.146   0.514
11247WAT      O33982   2.989   6.118   4.751
11247WAT     H133983   3.006   6.200   4.696
11247WAT     H233984   3.076   6.074   4.773
11248WAT      O33985   3.067   0.674   1.056
11248WAT     H133986   2.988   0.641   1.107
11248WAT     H233987   3.130   0.598   1.040
11249WAT      O33988   3.517   9.350   3.405
11249WAT     H133989   3.596   9.406   3.427
11249WAT     H233990   3.517   9.268   3.462
11250WAT      O33991   0.505   7.057   5.932
11250WAT     H133992   0.405   7.064   5.932
11250WAT     H233993   0.532   6.961   5.936
11251WAT      O33994   3.715   0.676   0.912
11251WAT     H133995   3.627   0.653   0.871
11251WAT     H233996   3.710   0.768   0.952
11252WAT      O33997   5.760   3.458   5.633
11252WAT     H133998   5.844   3.438   5.684
11252WAT     H233999   5.776   3.445   5.535
11253WAT      O34000   4.078   0.305   7.648
11253WAT     H134001   4.086   0.214   7.688
11253WAT     H234002   3.983   0.336   7.655
11254WAT      O34003   7.820   3.822   1.594
11254WAT     H134004   7.815   3.867   1.505
11254WAT     H234005   7.731   3.827   1.638
11255WAT      O34006   2.642   3.552   8.059
11255WAT     H134007   2.623   3.631   8.002
11255WAT     H234008   2.597   3.471   8.020
11256WAT      O34009   6.946   3.710   3.013
11256WAT     H134010   6.870   3.763   3.049
11256WAT     H234011   7.014   3.696   3.086
11257WAT      O34012   1.290   0.461   4.453
11257WAT     H134013   1.305   0.434   4.548
11257WAT     H234014   1.377   0.463   4.404
11258WAT      O34015   3.312   0.546   1.017
11258WAT     H134016   3.377   0.538   0.942
11258WAT     H234017   3.306   0.459   1.065
11259WAT      O34018   3.916   2.708   1.223
11259WAT     H134019   3.975   2.650   1.168
11259WAT     H234020   3.913   2.800   1.182
11260WAT      O34021   1.796   6.595   7.996
11260WAT     H134022   1.887   6.554   7.985
11260WAT     H234023   1.738   6.569   7.919
11261WAT      O34024   7.277   3.400   3.643
11261WAT     H134025   7.375   3.403   3.628
11261WAT     H234026   7.249   3.481   3.696
11262WAT      O34027   1.094   0.046   6.720
11262WAT     H134028   1.008   0.026   6.673
11262WAT     H234029   1.163   0.070   6.652
11263WAT      O34030   4.428   9.573   6.301
11263WAT     H134031   4.397   9.615   6.387
11263WAT     H234032   4.527   9.566   6.302
11264WAT      O34033   9.722   1.261   9.186
11264WAT     H134034   9.746   1.327   9.115
11264WAT     H234035   9.657   1.195   9.148
11265WAT      O34036   9.548   6.626   9.313
11265WAT     H134037   9.506   6.659   9.398
11265WAT     H234038   9.482   6.632   9.239
11266WAT      O34039   2.235   0.737   0.580
11266WAT     H134040   2.137   0.716   0.576
11266WAT     H234041   2.286   0.666   0.532
11267WAT      O34042   1.829   3.117   5.143
11267WAT     H134043   1.913   3.073   5.174
11267WAT     H234044   1.783   3.059   5.076
11268WAT      O34045   6.487   0.495   7.802
11268WAT     H134046   6.439   0.578   7.829
11268WAT     H234047   6.527   0.452   7.883
11269WAT      O34048   5.467   2.204   3.808
11269WAT     H134049   5.415   2.288   3.797
11269WAT     H234050   5.404   2.127   3.821
11270WAT      O34051   3.289   9.509   8.349
11270WAT     H134052   3.250   9.453   8.276
11270WAT     H234053   3.237   9.595   8.356
11271WAT      O34054   4.286   4.468   1.447
11271WAT     H134055   4.346   4.391   1.427
11271WAT     H234056   4.317   4.515   1.529
11272WAT      O34057   6.585   9.376   3.606
11272WAT     H134058   6.539   9.337   3.685
11272WAT     H234059   6.653   9.443   3.636
11273WAT      O34060   5.738   3.742   0.834
11273WAT     H134061   5.729   3.685   0.915
11273WAT     H234062   5.829   3.783   0.832
11274WAT      O34063   6.284   7.939   4.552
11274WAT     H134064   6.317   7.977   4.638
11274WAT     H234065   6.184   7.945   4.548
11275WAT      O34066   5.861   6.798   9.012
11275WAT     H134067   5.823   6.884   8.979
11275WAT     H234068   5.931   6.816   9.081
11276WAT      O34069   9.001   5.204   3.374
11276WAT     H134070   9.095   5.188   3.345
11276WAT     H234071   8.997   5.284   3.434
11277WAT      O34072   1.592   1.756   3.846
11277WAT     H134073   1.653   1.733   3.922
11277WAT     H234074   1.635   1.825   3.788
11278WAT      O34075   9.021   1.781   9.045
11278WAT     H134076   9.071   1.784   8.958
11278WAT     H234077   8.931   1.821   9.033
11279WAT      O34078   2.037   8.995   4.910
11279WAT     H134079   2.047   8.946   4.997
11279WAT     H234080   1.957   8.960   4.861
11280WAT      O34081   5.109   0.206   9.077
11280WAT     H134082   5.111   0.251   9.166
11280WAT     H234083   5.127   0.274   9.006
11281WAT      O34084   3.817   2.956   3.473
11281WAT     H134085   3.828   3.055   3.487
11281WAT     H234086   3.887   2.924   3.409
11282WAT      O34087   1.319   8.056   8.710
11282WAT     H134088   1.301   8.113   8.631
11282WAT     H234089   1.386   8.101   8.770
11283WAT      O34090   2.895   5.919   5.077
11283WAT     H134091   2.876   5.909   4.979
11283WAT     H234092   2.813   5.949   5.124
11284WAT      O34093   2.977   8.312   7.720
11284WAT     H134094   3.027   8.316   7.633
11284WAT     H234095   2.950   8.217   7.738
11285WAT      O34096   5.175   7.221   5.571
11285WAT     H134097   5.242   7.164   5.523
11285WAT     H234098   5.218   7.306   5.601
11286WAT      O34099   4.411   0.802   6.685
11286WAT     H134100   4.465   0.761   6.759
11286WAT     H234101   4.320   0.762   6.683
11287WAT      O34102   3.666   0.548   5.725
11287WAT     H134103   3.667   0.464   5.670
11287WAT     H234104   3.735   0.540   5.797
11288WAT      O34105   0.526   7.637   2.899
11288WAT     H134106   0.467   7.718   2.888
11288WAT     H234107   0.511   7.597   2.989
11289WAT      O34108   3.022   1.826   6.488
11289WAT     H134109   3.103   1.806   6.434
11289WAT     H234110   2.993   1.920   6.470
11290WAT      O34111   3.263   7.586   2.591
11290WAT     H134112   3.239   7.666   2.647
11290WAT     H234113   3.345   7.543   2.629
11291WAT      O34114   0.563   0.709   6.517
11291WAT     H134115   0.647   0.755   6.491
11291WAT     H234116   0.501   0.704   6.438
11292WAT      O34117   4.312   3.755   2.559
11292WAT     H134118   4.234   3.736   2.619
11292WAT     H234119   4.282   3.752   2.464
11293WAT      O34120   4.064   4.063   8.253
11293WAT     H134121   4.034   3.971   8.230
11293WAT     H234122   3.994   4.110   8.307
11294WAT      O34123   1.325   3.688   3.830
11294WAT     H134124   1.398   3.711   3.766
11294WAT     H234125   1.251   3.756   3.822
11295WAT      O34126   1.181   1.373   3.991
11295WAT     H134127   1.201   1.467   4.020
11295WAT     H234128   1.092   1.346   4.026
11296WAT      O34129   7.107   7.476   3.829
11296WAT     H134130   7.157   7.549   3.783
11296WAT     H234131   7.167   7.430   3.895
11297WAT      O34132   1.961   4.351   0.469
11297WAT     H134133   1.864   4.372   0.454
11297WAT     H234134   1.973   4.314   0.560
11298WAT      O34135   4.144   0.603   9.768
11298WAT     H134136   4.097   0.561   9.845
11298WAT     H234137   4.183   0.532   9.710
11299WAT      O34138   1.367   6.213   7.444
11299WAT     H134139   1.322   6.233   7.357
11299WAT     H234140   1.301   6.168   7.505
11300WAT      O34141   2.329   4.562   3.598
11300WAT     H134142   2.268   4.613   3.658
11300WAT     H234143   2.371   4.486   3.648
11301WAT      O34144   9.754   9.576   0.268
11301WAT     H134145   9.830   9.581   0.333
11301WAT     H234146   9.788   9.592   0.175
11302WAT      O34147   4.827   0.800   3.034
11302WAT     H134148   4.822   0.843   3.124
11302WAT     H234149   4.834   0.870   2.964
11303WAT      O34150   0.401   5.356   7.819
11303WAT     H134151   0.451   5.270   7.809
11303WAT     H234152   0.375   5.391   7.729
11304WAT      O34153   8.643   5.646   8.448
11304WAT     H134154   8.676   5.627   8.356
11304WAT     H234155   8.708   5.706   8.495
11305WAT      O34156   0.752   7.750   8.598
11305WAT     H134157   0.672   7.713   8.645
11305WAT     H234158   0.788   7.681   8.535
11306WAT      O34159   9.215   4.943   4.677
11306WAT     H134160   9.208   5.042   4.666
11306WAT     H234161   9.263   4.922   4.762
11307WAT      O34162   2.742   4.762   9.472
11307WAT     H134163   2.708   4.671   9.495
11307WAT     H234164   2.747   4.818   9.555
11308WAT      O34165   6.270   2.063   2.382
11308WAT     H134166   6.230   2.072   2.291
11308WAT     H234167   6.310   2.150   2.410
11309WAT      O34168   9.845   5.974   5.245
11309WAT     H134169   9.756   6.015   5.268
11309WAT     H234170   9.832   5.901   5.178
11310WAT      O34171   7.318   0.595   2.303
11310WAT     H134172   7.232   0.607   2.354
11310WAT     H234173   7.308   0.632   2.211
11311WAT      O34174   1.539   3.854   6.074
11311WAT     H134175   1.597   3.922   6.029
11311WAT     H234176   1.497   3.894   6.155
11312WAT      O34177   2.417   0.815   8.806
11312WAT     H134178   2.489   0.750   8.782
11312WAT     H234179   2.441   0.861   8.891
11313WAT      O34180   4.159   5.818   4.862
11313WAT     H134181   4.116   5.797   4.950
11313WAT     H234182   4.164   5.735   4.806
11314WAT      O34183   8.532   9.521   2.407
11314WAT     H134184   8.601   9.488   2.343
11314WAT     H234185   8.546   9.619   2.424
11315WAT      O34186   5.362   7.862   1.975
11315WAT     H134187   5.454   7.848   2.012
11315WAT     H234188   5.298   7.801   2.021
11316WAT      O34189   4.395   2.915   5.823
11316WAT     H134190   4.327   2.974   5.866
11316WAT     H234191   4.436   2.855   5.892
11317WAT      O34192   1.610   9.423   8.808
11317WAT     H134193   1.681   9.430   8.879
11317WAT     H234194   1.525   9.463   8.843
11318WAT      O34195   6.398   8.663   4.845
11318WAT     H134196   6.437   8.665   4.753
11318WAT     H234197   6.460   8.613   4.906
11319WAT      O34198   1.150   2.199   8.443
11319WAT     H134199   1.178   2.204   8.347
11319WAT     H234200   1.137   2.103   8.469
11320WAT      O34201   6.199   7.544   4.668
11320WAT     H134202   6.135   7.614   4.699
11320WAT     H234203   6.156   7.454   4.673
11321WAT      O34204   0.583   3.212   4.912
11321WAT     H134205   0.643   3.259   4.847
11321WAT     H234206   0.636   3.185   4.993
11322WAT      O34207   7.162   6.131   5.921
11322WAT     H134208   7.144   6.037   5.948
11322WAT     H234209   7.171   6.135   5.821
11323WAT      O34210   6.515   1.979   3.517
11323WAT     H134211   6.507   1.911   3.590
11323WAT     H234212   6.599   2.032   3.529
11324WAT      O34213   8.359   6.867   8.499
11324WAT     H134214   8.389   6.813   8.577
11324WAT     H234215   8.432   6.929   8.470
11325WAT      O34216   5.442   9.787   1.938
11325WAT     H134217   5.479   9.779   1.845
11325WAT     H234218   5.459   9.879   1.973
11326WAT      O34219   5.377   5.737   0.077
11326WAT     H134220   5.316   5.691   0.012
11326WAT     H234221   5.359   5.702   0.170
11327WAT      O34222   2.967   6.410   1.212
11327WAT     H134223   2.978   6.465   1.295
11327WAT     H234224   2.870   6.404   1.189
11328WAT      O34225   9.292   6.477   3.044
11328WAT     H134226   9.326   6.532   3.119
11328WAT     H234227   9.257   6.390   3.079
11329WAT      O34228   5.548   7.458   1.652
11329WAT     H134229   5.554   7.359   1.665
11329WAT     H234230   5.456   7.482   1.623
11330WAT      O34231   8.007   6.391   4.981
11330WAT     H134232   7.909   6.408   4.986
11330WAT     H234233   8.048   6.452   4.912
11331WAT      O34234   8.858   5.791   7.725
11331WAT     H134235   8.912   5.836   7.654
11331WAT     H234236   8.917   5.770   7.803
11332WAT      O34237   3.772   0.463   0.769
11332WAT     H134238   3.807   0.398   0.837
11332WAT     H234239   3.763   0.553   0.810
11333WAT      O34240   2.641   1.412   8.418
11333WAT     H134241   2.566   1.465   8.458
11333WAT     H234242   2.605   1.327   8.379
11334WAT      O34243   5.512   4.053   7.302
11334WAT     H134244   5.560   4.122   7.357
11334WAT     H234245   5.571   4.024   7.226
11335WAT      O34246   6.814   0.078   8.838
11335WAT     H134247   6.798   0.097   8.935
11335WAT     H234248   6.786   0.157   8.783
11336WAT      O34249   4.127   1.125   6.867
11336WAT     H134250   4.057   1.197   6.869
11336WAT     H234251   4.178   1.130   6.781
11337WAT      O34252   3.140   5.214   0.571
11337WAT     H134253   3.210   5.148   0.599
11337WAT     H234254   3.181   5.306   0.568
11338WAT      O34255   9.300   0.795   6.117
11338WAT     H134256   9.287   0.832   6.025
11338WAT     H234257   9.249   0.709   6.126
11339WAT      O34258   9.650   0.250   4.037
11339WAT     H134259   9.737   0.272   3.994
11339WAT     H234260   9.655   0.269   4.135
11340WAT      O34261   6.420   8.309   0.089
11340WAT     H134262   6.341   8.335   0.144
11340WAT     H234263   6.397   8.232   0.030
11341WAT      O34264   0.169   3.408   9.388
11341WAT     H134265   0.115   3.372   9.464
11341WAT     H234266   0.225   3.485   9.421
11342WAT      O34267   1.587   1.359   0.934
11342WAT     H134268   1.663   1.348   0.870
11342WAT     H234269   1.564   1.270   0.973
11343WAT      O34270   7.224   8.615   7.967
11343WAT     H134271   7.264   8.684   7.906
11343WAT     H234272   7.295   8.552   7.998
11344WAT      O34273   3.147   2.675   6.819
11344WAT     H134274   3.129   2.738   6.743
11344WAT     H234275   3.069   2.613   6.830
11345WAT      O34276   0.771   8.412   8.331
11345WAT     H134277   0.729   8.447   8.415
11345WAT     H234278   0.774   8.312   8.335
11346WAT      O34279   0.017   6.541   3.577
11346WAT     H134280   0.084   6.611   3.604
11346WAT     H234281  -0.035   6.574   3.498
11347WAT      O34282   1.306   1.566   9.513
11347WAT     H134283   1.325   1.600   9.605
11347WAT     H234284   1.372   1.494   9.490
11348WAT      O34285   6.596   8.784   2.129
11348WAT     H134286   6.622   8.849   2.200
11348WAT     H234287   6.672   8.773   2.065
11349WAT      O34288   1.521   8.249   0.477
11349WAT     H134289   1.459   8.180   0.515
11349WAT     H234290   1.601   8.203   0.437
11350WAT      O34291   7.692   5.338   9.232
11350WAT     H134292   7.659   5.304   9.144
11350WAT     H234293   7.638   5.418   9.260
11351WAT      O34294   5.831   1.182   0.649
11351WAT     H134295   5.852   1.087   0.627
11351WAT     H234296   5.875   1.242   0.582
11352WAT      O34297   1.491   6.036   9.453
11352WAT     H134298   1.427   5.963   9.431
11352WAT     H234299   1.552   6.006   9.526
11353WAT      O34300   8.316   3.827   8.644
11353WAT     H134301   8.308   3.908   8.586
11353WAT     H234302   8.394   3.837   8.706
11354WAT      O34303   0.725   8.501   6.987
11354WAT     H134304   0.656   8.434   7.016
11354WAT     H234305   0.815   8.457   6.984
11355WAT      O34306   8.418   1.268   0.842
11355WAT     H134307   8.320   1.255   0.853
11355WAT     H234308   8.445   1.244   0.749
11356WAT      O34309   8.601   6.821   5.582
11356WAT     H134310   8.539   6.750   5.549
11356WAT     H234311   8.671   6.838   5.512
11357WAT      O34312   7.374   1.741   6.237
11357WAT     H134313   7.321   1.822   6.212
11357WAT     H234314   7.469   1.766   6.253
11358WAT      O34315   7.050   4.315   6.691
11358WAT     H134316   6.960   4.347   6.722
11358WAT     H234317   7.121   4.377   6.724
11359WAT      O34318   7.626   9.137   6.057
11359WAT     H134319   7.547   9.139   5.996
11359WAT     H234320   7.676   9.052   6.045
11360WAT      O34321   8.349   3.923   1.595
11360WAT     H134322   8.301   3.978   1.527
11360WAT     H234323   8.311   3.941   1.686
11361WAT      O34324   7.732   0.829   9.119
11361WAT     H134325   7.653   0.883   9.087
11361WAT     H234326   7.704   0.734   9.133
11362WAT      O34327   4.808   8.248   7.776
11362WAT     H134328   4.903   8.260   7.749
11362WAT     H234329   4.766   8.337   7.794
11363WAT      O34330   5.001   8.832   7.564
11363WAT     H134331   5.091   8.857   7.599
11363WAT     H234332   4.941   8.806   7.639
11364WAT      O34333   2.504   3.011   2.846
11364WAT     H134334   2.527   3.087   2.785
11364WAT     H234335   2.562   3.015   2.928
11365WAT      O34336   4.177   7.971   6.862
11365WAT     H134337   4.195   7.884   6.907
11365WAT     H234338   4.096   8.014   6.902
11366WAT      O34339   5.637   1.336   8.831
11366WAT     H134340   5.568   1.331   8.760
11366WAT     H234341   5.605   1.394   8.906
11367WAT      O34342   1.890   9.549   4.869
11367WAT     H134343   1.867   9.607   4.947
11367WAT     H234344   1.896   9.605   4.786
11368WAT      O34345   8.969   4.566   0.646
11368WAT     H134346   9.044   4.630   0.662
11368WAT     H234347   9.001   4.473   0.662
11369WAT      O34348   0.359   7.878   2.547
11369WAT     H134349   0.347   7.809   2.618
11369WAT     H234350   0.446   7.925   2.560
11370WAT      O34351   6.207   0.419   1.157
11370WAT     H134352   6.202   0.367   1.242
11370WAT     H234353   6.125   0.475   1.146
11371WAT      O34354   2.371   2.508   4.371
11371WAT     H134355   2.369   2.422   4.321
11371WAT     H234356   2.394   2.583   4.308
11372WAT      O34357   1.289   0.232   1.861
11372WAT     H134358   1.332   0.277   1.783
11372WAT     H234359   1.339   0.149   1.885
11373WAT      O34360   7.786   5.459   7.824
11373WAT     H134361   7.868   5.501   7.785
11373WAT     H234362   7.811   5.375   7.873
11374WAT      O34363   3.199   1.196   1.172
11374WAT     H134364   3.156   1.286   1.176
11374WAT     H234365   3.287   1.203   1.125
11375WAT      O34366   8.916   6.439   3.697
11375WAT     H134367   8.930   6.408   3.602
11375WAT     H234368   8.819   6.456   3.713
11376WAT      O34369   9.473   8.577   3.867
11376WAT     H134370   9.445   8.493   3.914
11376WAT     H234371   9.436   8.656   3.916
11377WAT      O34372   7.053   2.262   2.459
11377WAT     H134373   7.130   2.263   2.523
11377WAT     H234374   7.026   2.168   2.440
11378WAT      O34375   1.013   9.557   2.757
11378WAT     H134376   1.104   9.518   2.744
11378WAT     H234377   1.018   9.656   2.755
11379WAT      O34378   8.147   3.160   2.192
11379WAT     H134379   8.235   3.187   2.232
11379WAT     H234380   8.073   3.213   2.234
11380WAT      O34381   1.625   0.748   3.553
11380WAT     H134382   1.629   0.845   3.527
11380WAT     H234383   1.538   0.709   3.524
11381WAT      O34384   9.008   2.828   9.523
11381WAT     H134385   8.986   2.739   9.484
11381WAT     H234386   9.066   2.817   9.603
11382WAT      O34387   6.824   8.590   1.628
11382WAT     H134388   6.767   8.533   1.569
11382WAT     H234389   6.783   8.680   1.637
11383WAT      O34390   8.634   8.437   9.444
11383WAT     H134391   8.589   8.506   9.386
11383WAT     H234392   8.619   8.346   9.405
11384WAT      O34393   5.433   7.110   5.267
11384WAT     H134394   5.375   7.087   5.346
11384WAT     H234395   5.393   7.070   5.185
11385WAT      O34396   8.074   4.300   3.982
11385WAT     H134397   8.009   4.253   4.041
11385WAT     H234398   8.034   4.387   3.951
11386WAT      O34399   8.400   2.869   7.226
11386WAT     H134400   8.396   2.967   7.205
11386WAT     H234401   8.434   2.819   7.147
11387WAT      O34402   5.147   2.122   9.367
11387WAT     H134403   5.141   2.153   9.272
11387WAT     H234404   5.089   2.179   9.425
11388WAT      O34405   3.491   8.461   9.075
11388WAT     H134406   3.410   8.411   9.105
11388WAT     H234407   3.523   8.424   8.988
11389WAT      O34408   3.211   9.608   3.102
11389WAT     H134409   3.250   9.694   3.069
11389WAT     H234410   3.112   9.612   3.093
11390WAT      O34411   4.711   4.360   3.998
11390WAT     H134412   4.624   4.382   3.953
11390WAT     H234413   4.785   4.366   3.931
11391WAT      O34414   2.371   5.354   8.005
11391WAT     H134415   2.342   5.445   8.034
11391WAT     H234416   2.404   5.303   8.085
11392WAT      O34417   2.938   2.456   3.566
11392WAT     H134418   2.944   2.442   3.665
11392WAT     H234419   2.849   2.495   3.543
11393WAT      O34420   5.239   2.169   7.620
11393WAT     H134421   5.232   2.256   7.670
11393WAT     H234422   5.148   2.142   7.587
11394WAT      O34423   4.288   5.308   8.299
11394WAT     H134424   4.352   5.295   8.375
11394WAT     H234425   4.194   5.306   8.334
11395WAT      O34426   3.959   1.516   5.685
11395WAT     H134427   3.939   1.442   5.620
11395WAT     H234428   3.952   1.604   5.639
11396WAT      O34429   3.390   2.766   6.162
11396WAT     H134430   3.299   2.751   6.200
11396WAT     H234431   3.405   2.864   6.150
11397WAT      O34432   1.080   8.616   5.736
11397WAT     H134433   1.124   8.676   5.803
11397WAT     H234434   1.000   8.662   5.699
11398WAT      O34435   3.923   1.639   7.731
11398WAT     H134436   3.842   1.642   7.673
11398WAT     H234437   3.916   1.562   7.794
11399WAT      O34438   0.853   3.023   3.546
11399WAT     H134439   0.870   3.114   3.507
11399WAT     H234440   0.776   2.981   3.497
11400WAT      O34441   9.101   4.400   4.489
11400WAT     H134442   9.037   4.475   4.479
11400WAT     H234443   9.149   4.408   4.576
11401WAT      O34444   2.829   4.423   6.362
11401WAT     H134445   2.738   4.408   6.399
11401WAT     H234446   2.865   4.510   6.397
11402WAT      O34447   9.669   6.619   8.141
11402WAT     H134448   9.574   6.648   8.151
11402WAT     H234449   9.709   6.607   8.232
11403WAT      O34450   5.770   9.033   4.768
11403WAT     H134451   5.836   9.108   4.777
11403WAT     H234452   5.730   9.034   4.676
11404WAT      O34453   0.404   1.966   0.855
11404WAT     H134454   0.361   1.959   0.944
11404WAT     H234455   0.409   1.875   0.813
11405WAT      O34456   1.292   4.922   5.895
11405WAT     H134457   1.387   4.940   5.919
11405WAT     H234458   1.237   4.917   5.979
11406WAT      O34459   3.089   5.646   9.214
11406WAT     H134460   3.031   5.595   9.149
11406WAT     H234461   3.035   5.717   9.258
11407WAT      O34462   9.218   3.523   6.901
11407WAT     H134463   9.123   3.494   6.887
11407WAT     H234464   9.272   3.498   6.822
11408WAT      O34465   3.821   4.151   0.064
11408WAT     H134466   3.869   4.238   0.054
11408WAT     H234467   3.783   4.144   0.157
11409WAT      O34468   4.920   7.036   0.517
11409WAT     H134469   4.936   7.090   0.435
11409WAT     H234470   4.997   6.974   0.532
11410WAT      O34471   5.164   7.555   4.295
11410WAT     H134472   5.249   7.548   4.244
11410WAT     H234473   5.087   7.567   4.232
11411WAT      O34474   0.111   4.130   6.835
11411WAT     H134475   0.123   4.155   6.931
11411WAT     H234476   0.165   4.048   6.816
11412WAT      O34477   5.210   8.019   6.704
11412WAT     H134478   5.196   8.039   6.801
11412WAT     H234479   5.273   7.942   6.694
11413WAT      O34480   0.242   2.373   5.329
11413WAT     H134481   0.243   2.421   5.242
11413WAT     H234482   0.151   2.337   5.347
11414WAT      O34483   2.045   5.601   4.746
11414WAT     H134484   2.005   5.539   4.814
11414WAT     H234485   2.012   5.694   4.764
11415WAT      O34486   2.097   0.289   9.172
11415WAT     H134487   2.036   0.368   9.163
11415WAT     H234488   2.045   0.205   9.162
11416WAT      O34489   2.778   8.651   1.307
11416WAT     H134490   2.722   8.657   1.225
11416WAT     H234491   2.721   8.663   1.388
11417WAT      O34492   1.465   9.559   5.459
11417WAT     H134493   1.461   9.461   5.440
11417WAT     H234494   1.402   9.607   5.399
11418WAT      O34495   6.413   6.250   9.203
11418WAT     H134496   6.508   6.280   9.200
11418WAT     H234497   6.403   6.178   9.272
11419WAT      O34498   0.631   1.535   9.447
11419WAT     H134499   0.576   1.551   9.529
11419WAT     H234500   0.724   1.568   9.463
11420WAT      O34501   9.877   6.719   6.019
11420WAT     H134502   9.928   6.777   5.955
11420WAT     H234503   9.939   6.652   6.060
11421WAT      O34504   1.671   6.201   2.622
11421WAT     H134505   1.727   6.123   2.648
11421WAT     H234506   1.683   6.274   2.689
11422WAT      O34507   5.904   2.464   6.638
11422WAT     H134508   5.839   2.422   6.576
11422WAT     H234509   5.994   2.470   6.595
11423WAT      O34510   7.159   8.623   6.782
11423WAT     H134511   7.161   8.528   6.750
11423WAT     H234512   7.092   8.674   6.730
11424WAT      O34513   6.546   6.184   0.985
11424WAT     H134514   6.561   6.085   0.979
11424WAT     H234515   6.624   6.232   0.945
11425WAT      O34516   4.616   6.597   6.996
11425WAT     H134517   4.560   6.564   7.072
11425WAT     H234518   4.557   6.612   6.916
11426WAT      O34519   1.811   2.129   6.547
11426WAT     H134520   1.890   2.105   6.491
11426WAT     H234521   1.826   2.097   6.640
11427WAT      O34522   8.957   0.866   2.449
11427WAT     H134523   9.040   0.875   2.504
11427WAT     H234524   8.981   0.841   2.355
11428WAT      O34525   8.878   4.106   3.009
11428WAT     H134526   8.921   4.196   2.998
11428WAT     H234527   8.841   4.097   3.101
11429WAT      O34528   9.111   6.545   9.580
11429WAT     H134529   9.127   6.561   9.483
11429WAT     H234530   9.197   6.519   9.624
11430WAT      O34531   5.417   1.676   1.766
11430WAT     H134532   5.497   1.710   1.816
11430WAT     H234533   5.338   1.673   1.828
11431WAT      O34534   7.172   0.944   3.446
11431WAT     H134535   7.208   0.960   3.539
11431WAT     H234536   7.247   0.947   3.381
11432WAT      O34537   2.115   3.830   8.016
11432WAT     H134538   2.192   3.770   8.038
11432WAT     H234539   2.087   3.879   8.098
11433WAT      O34540   6.272   9.822   5.169
11433WAT     H134541   6.198   9.800   5.106
11433WAT     H234542   6.266   9.918   5.195
11434WAT      O34543   0.151   8.783   7.164
11434WAT     H134544   0.062   8.793   7.120
11434WAT     H234545   0.147   8.711   7.233
11435WAT      O34546   1.411   0.959   1.206
11435WAT     H134547   1.387   1.037   1.265
11435WAT     H234548   1.339   0.946   1.138
11436WAT      O34549   5.059   1.095   4.789
11436WAT     H134550   5.038   1.192   4.795
11436WAT     H234551   4.975   1.043   4.772
11437WAT      O34552   5.411   3.455   0.713
11437WAT     H134553   5.346   3.532   0.713
11437WAT     H234554   5.503   3.489   0.694
11438WAT      O34555   1.077   2.306   4.150
11438WAT     H134556   1.136   2.323   4.228
11438WAT     H234557   1.069   2.208   4.135
11439WAT      O34558   2.654   3.842   5.293
11439WAT     H134559   2.675   3.872   5.200
11439WAT     H234560   2.729   3.865   5.354
11440WAT      O34561   8.075   6.507   6.331
11440WAT     H134562   8.166   6.508   6.290
11440WAT     H234563   8.006   6.518   6.260
11441WAT      O34564   0.303   2.774   1.223
11441WAT     H134565   0.249   2.837   1.279
11441WAT     H234566   0.251   2.690   1.209
11442WAT      O34567   0.978   2.963   0.075
11442WAT     H134568   1.025   2.900   0.137
11442WAT     H234569   1.045   3.016   0.024
11443WAT      O34570   1.521   0.673   2.573
11443WAT     H134571   1.506   0.768   2.544
11443WAT     H234572   1.476   0.611   2.508
11444WAT      O34573   3.776   0.454   8.498
11444WAT     H134574   3.717   0.406   8.562
11444WAT     H234575   3.871   0.449   8.530
11445WAT      O34576   7.802   7.676   8.075
11445WAT     H134577   7.832   7.625   7.994
11445WAT     H234578   7.713   7.718   8.056
11446WAT      O34579   0.600   4.230   6.146
11446WAT     H134580   0.696   4.225   6.119
11446WAT     H234581   0.568   4.139   6.173
11447WAT      O34582   2.198   3.118   0.651
11447WAT     H134583   2.275   3.182   0.651
11447WAT     H234584   2.118   3.163   0.689
11448WAT      O34585   2.875   3.643   9.084
11448WAT     H134586   2.794   3.690   9.119
11448WAT     H234587   2.951   3.656   9.149
11449WAT      O34588   2.260   1.798   9.020
11449WAT     H134589   2.211   1.869   8.969
11449WAT     H234590   2.206   1.714   9.019
11450WAT      O34591   6.873   4.543   3.358
11450WAT     H134592   6.968   4.512   3.368
11450WAT     H234593   6.840   4.576   3.446
11451WAT      O34594   7.520   5.433   5.715
11451WAT     H134595   7.619   5.449   5.715
11451WAT     H234596   7.500   5.347   5.762
11452WAT      O34597   6.434   3.736   5.199
11452WAT     H134598   6.510   3.678   5.228
11452WAT     H234599   6.372   3.683   5.142
11453WAT      O34600   6.598   8.471   0.584
11453WAT     H134601   6.629   8.458   0.490
11453WAT     H234602   6.677   8.470   0.645
11454WAT      O34603   7.896   0.366   8.836
11454WAT     H134604   7.854   0.456   8.845
11454WAT     H234605   7.938   0.357   8.746
11455WAT      O34606   2.499   2.437   6.228
11455WAT     H134607   2.470   2.358   6.283
11455WAT     H234608   2.592   2.462   6.255
11456WAT      O34609   2.163   7.851   7.184
11456WAT     H134610   2.252   7.886   7.156
11456WAT     H234611   2.103   7.845   7.104
11457WAT      O34612   7.198   5.137   4.158
11457WAT     H134613   7.181   5.100   4.249
11457WAT     H234614   7.262   5.213   4.164
11458WAT      O34615   8.146   0.548   0.021
11458WAT     H134616   8.172   0.595  -0.063
11458WAT     H234617   8.056   0.579   0.050
11459WAT      O34618   8.850   9.785   2.497
11459WAT     H134619   8.820   9.784   2.401
11459WAT     H234620   8.785   9.837   2.552
11460WAT      O34621   8.153   6.183   9.642
11460WAT     H134622   8.077   6.238   9.607
11460WAT     H234623   8.165   6.202   9.740
11461WAT      O34624   5.626   1.621   4.996
11461WAT     H134625   5.646   1.523   5.002
11461WAT     H234626   5.531   1.635   4.969
11462WAT      O34627   2.245   6.071   8.576
11462WAT     H134628   2.286   6.153   8.535
11462WAT     H234629   2.275   6.063   8.671
11463WAT      O34630   9.240   7.100   6.613
11463WAT     H134631   9.318   7.088   6.675
11463WAT     H234632   9.155   7.102   6.665
11464WAT      O34633   7.136   2.324   0.090
11464WAT     H134634   7.103   2.235   0.057
11464WAT     H234635   7.223   2.346   0.047
11465WAT      O34636   6.899   2.929   6.217
11465WAT     H134637   6.950   2.941   6.303
11465WAT     H234638   6.921   2.839   6.178
11466WAT      O34639   1.116   4.649   7.841
11466WAT     H134640   1.196   4.708   7.833
11466WAT     H234641   1.082   4.627   7.749
11467WAT      O34642   8.789   4.344   6.157
11467WAT     H134643   8.699   4.308   6.180
11467WAT     H234644   8.851   4.332   6.235
11468WAT      O34645   5.134   6.375   7.897
11468WAT     H134646   5.071   6.387   7.820
11468WAT     H234647   5.216   6.328   7.866
11469WAT      O34648   7.695   4.863   8.649
11469WAT     H134649   7.783   4.908   8.635
11469WAT     H234650   7.634   4.884   8.573
11470WAT      O34651   0.372   9.583   1.125
11470WAT     H134652   0.347   9.578   1.222
11470WAT     H234653   0.446   9.519   1.106
11471WAT      O34654   6.088   2.638   2.620
11471WAT     H134655   6.146   2.560   2.640
11471WAT     H234656   6.089   2.702   2.697
11472WAT      O34657   6.443   0.255   1.668
11472WAT     H134658   6.500   0.179   1.699
11472WAT     H234659   6.364   0.265   1.729
11473WAT      O34660   4.354   6.112   7.847
11473WAT     H134661   4.269   6.087   7.800
11473WAT     H234662   4.336   6.189   7.908
11474WAT      O34663   8.347   5.362   3.757
11474WAT     H134664   8.316   5.308   3.835
11474WAT     H234665   8.293   5.447   3.752
11475WAT      O34666   0.725   3.843   0.171
11475WAT     H134667   0.641   3.884   0.134
11475WAT     H234668   0.751   3.765   0.114
11476WAT      O34669   3.343   3.589   9.298
11476WAT     H134670   3.389   3.505   9.324
11476WAT     H234671   3.337   3.650   9.377
11477WAT      O34672   7.525   1.317   4.617
11477WAT     H134673   7.443   1.259   4.616
11477WAT     H234674   7.519   1.385   4.544
11478WAT      O34675   0.154   8.620   5.562
11478WAT     H134676   0.161   8.568   5.477
11478WAT     H234677   0.210   8.576   5.633
11479WAT      O34678   2.751   7.346   0.819
11479WAT     H134679   2.811   7.420   0.790
11479WAT     H234680   2.658   7.363   0.787
11480WAT      O34681   5.052   8.747   8.985
11480WAT     H134682   5.141   8.757   9.029
11480WAT     H234683   5.010   8.837   8.975
11481WAT      O34684   2.999   1.611   8.464
11481WAT     H134685   2.903   1.634   8.448
11481WAT     H234686   3.020   1.620   8.562
11482WAT      O34687   9.436   1.210   2.957
11482WAT     H134688   9.489   1.282   2.912
11482WAT     H234689   9.390   1.249   3.038
11483WAT      O34690   4.580   1.297   3.095
11483WAT     H134691   4.517   1.300   3.172
11483WAT     H234692   4.571   1.382   3.042
11484WAT      O34693   0.217   3.084   9.307
11484WAT     H134694   0.276   3.160   9.336
11484WAT     H234695   0.242   3.002   9.359
11485WAT      O34696   3.067   2.008   0.887
11485WAT     H134697   3.052   1.913   0.913
11485WAT     H234698   3.041   2.020   0.791
11486WAT      O34699   9.038   6.689   2.539
11486WAT     H134700   9.028   6.740   2.625
11486WAT     H234701   9.020   6.592   2.556
11487WAT      O34702   6.336   6.736   2.064
11487WAT     H134703   6.329   6.666   2.134
11487WAT     H234704   6.255   6.733   2.006
11488WAT      O34705   0.718   7.372   5.790
11488WAT     H134706   0.780   7.450   5.793
11488WAT     H234707   0.764   7.294   5.750
11489WAT      O34708   7.142   1.223   9.371
11489WAT     H134709   7.166   1.273   9.287
11489WAT     H234710   7.197   1.259   9.447
11490WAT      O34711   8.156   6.751   3.518
11490WAT     H134712   8.229   6.708   3.572
11490WAT     H234713   8.088   6.683   3.492
11491WAT      O34714   9.392   1.065   5.156
11491WAT     H134715   9.397   1.164   5.141
11491WAT     H234716   9.404   1.017   5.069
11492WAT      O34717   4.820   4.380   1.688
11492WAT     H134718   4.881   4.321   1.740
11492WAT     H234719   4.727   4.372   1.725
11493WAT      O34720   7.599   2.704   0.264
11493WAT     H134721   7.564   2.787   0.219
11493WAT     H234722   7.660   2.730   0.339
11494WAT      O34723   4.567   5.874   4.026
11494WAT     H134724   4.489   5.823   4.063
11494WAT     H234725   4.533   5.958   3.983
11495WAT      O34726   1.676   3.846   2.107
11495WAT     H134727   1.760   3.797   2.086
11495WAT     H234728   1.604   3.819   2.042
11496WAT      O34729   7.659   7.546   2.230
11496WAT     H134730   7.681   7.481   2.158
11496WAT     H234731   7.700   7.516   2.316
11497WAT      O34732   8.093   2.046   5.875
11497WAT     H134733   8.084   1.946   5.865
11497WAT     H234734   8.127   2.067   5.966
11498WAT      O34735   3.351   2.383   6.976
11498WAT     H134736   3.402   2.298   6.959
11498WAT     H234737   3.408   2.462   6.955
11499WAT      O34738   1.684   5.137   7.825
11499WAT     H134739   1.588   5.111   7.825
11499WAT     H234740   1.740   5.057   7.849
11500WAT      O34741   5.458   8.717   1.365
11500WAT     H134742   5.381   8.746   1.421
11500WAT     H234743   5.467   8.778   1.287
11501WAT      O34744   1.166   3.925   3.942
11501WAT     H134745   1.242   3.913   4.006
11501WAT     H234746   1.080   3.934   3.993
11502WAT      O34747   1.285   4.251   2.664
11502WAT     H134748   1.201   4.200   2.645
11502WAT     H234749   1.273   4.307   2.746
11503WAT      O34750   5.677   6.791   8.478
11503WAT     H134751   5.672   6.732   8.559
11503WAT     H234752   5.585   6.811   8.446
11504WAT      O34753   2.322   3.377   5.565
11504WAT     H134754   2.317   3.284   5.527
11504WAT     H234755   2.276   3.378   5.654
11505WAT      O34756   1.471   2.388   9.590
11505WAT     H134757   1.559   2.434   9.596
11505WAT     H234758   1.478   2.296   9.630
11506WAT      O34759   7.369   9.215   5.754
11506WAT     H134760   7.374   9.260   5.843
11506WAT     H234761   7.376   9.285   5.682
11507WAT      O34762   2.102   2.141   4.856
11507WAT     H134763   2.187   2.184   4.886
11507WAT     H234764   2.030   2.161   4.922
11508WAT      O34765   8.333   3.376   7.306
11508WAT     H134766   8.306   3.429   7.387
11508WAT     H234767   8.408   3.421   7.259
11509WAT      O34768   3.060   0.191   1.870
11509WAT     H134769   2.966   0.186   1.901
11509WAT     H234770   3.066   0.158   1.776
11510WAT      O34771   3.383   9.600   3.321
11510WAT     H134772   3.341   9.620   3.233
11510WAT     H234773   3.402   9.502   3.327
11511WAT      O34774   4.434   8.134   6.057
11511WAT     H134775   4.395   8.070   5.991
11511WAT     H234776   4.377   8.216   6.062
11512WAT      O34777   6.419   2.836   1.594
11512WAT     H134778   6.325   2.827   1.561
11512WAT     H234779   6.466   2.748   1.587
11513WAT      O34780   1.599   4.086   1.155
11513WAT     H134781   1.516   4.142   1.145
11513WAT     H234782   1.642   4.074   1.066
11514WAT      O34783   3.680   9.415   4.469
11514WAT     H134784   3.676   9.327   4.517
11514WAT     H234785   3.774   9.435   4.444
11515WAT      O34786   1.882   3.231   8.057
11515WAT     H134787   1.906   3.271   7.968
11515WAT     H234788   1.910   3.294   8.130
11516WAT      O34789   2.660   9.663   2.564
11516WAT     H134790   2.740   9.650   2.506
11516WAT     H234791   2.640   9.578   2.614
11517WAT      O34792   3.432   8.205   8.669
11517WAT     H134793   3.531   8.207   8.683
11517WAT     H234794   3.391   8.289   8.704
11518WAT      O34795   1.779   8.171   1.210
11518WAT     H134796   1.715   8.094   1.213
11518WAT     H234797   1.745   8.240   1.145
11519WAT      O34798   1.771   1.517   1.794
11519WAT     H134799   1.720   1.570   1.726
11519WAT     H234800   1.860   1.559   1.810
11520WAT      O34801   7.870   3.020   9.675
11520WAT     H134802   7.919   2.988   9.594
11520WAT     H234803   7.797   2.955   9.698
11521WAT      O34804   0.821   1.808   5.928
11521WAT     H134805   0.840   1.752   6.008
11521WAT     H234806   0.724   1.834   5.928
11522WAT      O34807   5.308   0.138   5.604
11522WAT     H134808   5.356   0.094   5.529
11522WAT     H234809   5.363   0.133   5.687
11523WAT      O34810   7.580   5.310   4.403
11523WAT     H134811   7.638   5.388   4.426
11523WAT     H234812   7.486   5.341   4.390
11524WAT      O34813   0.814   6.491   9.725
11524WAT     H134814   0.839   6.401   9.690
11524WAT     H234815   0.793   6.552   9.648
11525WAT      O34816   5.722   5.208   2.912
11525WAT     H134817   5.805   5.260   2.891
11525WAT     H234818   5.713   5.198   3.011
11526WAT      O34819   7.048   1.057   6.801
11526WAT     H134820   7.030   1.120   6.876
11526WAT     H234821   6.991   1.081   6.722
11527WAT      O34822   1.830   2.940   7.351
11527WAT     H134823   1.813   3.004   7.277
11527WAT     H234824   1.809   2.983   7.439
11528WAT      O34825   1.435   2.331   2.771
11528WAT     H134826   1.360   2.271   2.797
11528WAT     H234827   1.510   2.278   2.732
11529WAT      O34828   9.488   7.386   9.606
11529WAT     H134829   9.473   7.357   9.701
11529WAT     H234830   9.586   7.387   9.587
11530WAT      O34831   3.289   2.214   2.354
11530WAT     H134832   3.210   2.233   2.297
11530WAT     H234833   3.343   2.141   2.312
11531WAT      O34834   4.025   2.479   5.301
11531WAT     H134835   4.008   2.553   5.367
11531WAT     H234836   4.097   2.419   5.336
11532WAT      O34837   2.204   0.185   4.500
11532WAT     H134838   2.166   0.235   4.422
11532WAT     H234839   2.171   0.225   4.585
11533WAT      O34840   7.437   3.906   4.005
11533WAT     H134841   7.414   3.833   4.070
11533WAT     H234842   7.420   3.875   3.912
11534WAT      O34843   7.720   9.585   0.944
11534WAT     H134844   7.621   9.589   0.957
11534WAT     H234845   7.758   9.516   1.006
11535WAT      O34846   0.368   1.770   7.043
11535WAT     H134847   0.430   1.716   7.100
11535WAT     H234848   0.375   1.867   7.070
11536WAT      O34849   5.569   8.290   7.207
11536WAT     H134850   5.598   8.237   7.287
11536WAT     H234851   5.644   8.297   7.142
11537WAT      O34852   7.015   0.569   5.246
11537WAT     H134853   6.980   0.494   5.302
11537WAT     H234854   7.088   0.534   5.187
11538WAT      O34855   6.119   1.390   6.918
11538WAT     H134856   6.161   1.300   6.906
11538WAT     H234857   6.049   1.385   6.990
11539WAT      O34858   1.645   2.380   7.898
11539WAT     H134859   1.667   2.313   7.969
11539WAT     H234860   1.560   2.353   7.852
11540WAT      O34861   9.300   0.573   1.253
11540WAT     H134862   9.234   0.624   1.310
11540WAT     H234863   9.388   0.568   1.300
11541WAT      O34864   5.239   3.639   6.072
11541WAT     H134865   5.267   3.570   6.139
11541WAT     H234866   5.163   3.603   6.018
11542WAT      O34867   2.061   2.638   1.979
11542WAT     H134868   2.053   2.679   2.069
11542WAT     H234869   2.156   2.644   1.948
11543WAT      O34870   1.431   6.507   7.979
11543WAT     H134871   1.354   6.444   7.989
11543WAT     H234872   1.516   6.460   8.005
11544WAT      O34873   1.187   2.659   2.449
11544WAT     H134874   1.230   2.635   2.362
11544WAT     H234875   1.250   2.638   2.524
11545WAT      O34876   7.509   7.953   7.179
11545WAT     H134877   7.529   8.015   7.103
11545WAT     H234878   7.556   7.866   7.164
11546WAT      O34879   5.937   9.702   1.900
11546WAT     H134880   6.020   9.732   1.947
11546WAT     H234881   5.907   9.614   1.937
11547WAT      O34882   3.691   6.191   8.790
11547WAT     H134883   3.745   6.266   8.827
11547WAT     H234884   3.595   6.218   8.787
11548WAT      O34885   4.670   5.334   6.944
11548WAT     H134886   4.737   5.407   6.937
11548WAT     H234887   4.619   5.327   6.858
11549WAT      O34888   1.332   0.670   2.069
11549WAT     H134889   1.405   0.719   2.117
11549WAT     H234890   1.250   0.727   2.066
11550WAT      O34891   1.899   4.326   5.776
11550WAT     H134892   1.962   4.381   5.721
11550WAT     H234893   1.890   4.368   5.867
11551WAT      O34894   6.169   8.617   5.636
11551WAT     H134895   6.217   8.692   5.681
11551WAT     H234896   6.205   8.606   5.543
11552WAT      O34897   5.200   8.504   0.746
11552WAT     H134898   5.194   8.529   0.650
11552WAT     H234899   5.157   8.574   0.802
11553WAT      O34900   3.433   1.649   9.606
11553WAT     H134901   3.400   1.580   9.542
11553WAT     H234902   3.405   1.740   9.574
11554WAT      O34903   3.818   6.236   2.505
11554WAT     H134904   3.882   6.176   2.554
11554WAT     H234905   3.870   6.294   2.443
11555WAT      O34906   9.398   4.176   9.049
11555WAT     H134907   9.317   4.126   9.019
11555WAT     H234908   9.379   4.275   9.048
11556WAT      O34909   6.117   2.740   4.932
11556WAT     H134910   6.157   2.819   4.887
11556WAT     H234911   6.094   2.763   5.027
11557WAT      O34912   0.696   9.584   8.915
11557WAT     H134913   0.700   9.514   8.843
11557WAT     H234914   0.608   9.577   8.963
11558WAT      O34915   0.126   5.007   4.604
11558WAT     H134916   0.123   5.056   4.691
11558WAT     H234917   0.140   4.909   4.621
11559WAT      O34918   5.290   6.276   6.933
11559WAT     H134919   5.209   6.334   6.934
11559WAT     H234920   5.370   6.331   6.959
11560WAT      O34921   1.074   9.134   4.058
11560WAT     H134922   1.014   9.166   4.132
11560WAT     H234923   1.126   9.055   4.090
11561WAT      O34924   0.943   9.721   3.240
11561WAT     H134925   0.960   9.633   3.284
11561WAT     H234926   1.016   9.740   3.175
11562WAT      O34927   3.710   4.115   0.313
11562WAT     H134928   3.702   4.015   0.312
11562WAT     H234929   3.633   4.155   0.364
11563WAT      O34930   8.087   0.065   4.807
11563WAT     H134931   8.166   0.107   4.851
11563WAT     H234932   8.093  -0.035   4.816
11564WAT      O34933   4.230   3.417   8.856
11564WAT     H134934   4.168   3.339   8.844
11564WAT     H234935   4.214   3.459   8.945
11565WAT      O34936   9.748   6.276   0.540
11565WAT     H134937   9.782   6.252   0.632
11565WAT     H234938   9.689   6.356   0.546
11566WAT      O34939   2.357   4.767   1.063
11566WAT     H134940   2.331   4.851   1.015
11566WAT     H234941   2.274   4.716   1.087
11567WAT      O34942   6.153   5.143   6.947
11567WAT     H134943   6.180   5.203   6.872
11567WAT     H234944   6.208   5.163   7.028
11568WAT      O34945   9.746   0.279   0.094
11568WAT     H134946   9.753   0.180   0.096
11568WAT     H234947   9.796   0.318   0.172
11569WAT      O34948   5.680   4.323   5.067
11569WAT     H134949   5.615   4.247   5.065
11569WAT     H234950   5.704   4.343   5.162
11570WAT      O34951   2.293   6.396   0.163
11570WAT     H134952   2.356   6.473   0.159
11570WAT     H234953   2.319   6.329   0.093
11571WAT      O34954   7.244   1.000   0.394
11571WAT     H134955   7.319   1.060   0.421
11571WAT     H234956   7.239   0.995   0.295
11572WAT      O34957   8.497   6.996   3.968
11572WAT     H134958   8.458   7.086   3.947
11572WAT     H234959   8.427   6.939   4.010
11573WAT      O34960   0.485   9.176   8.785
11573WAT     H134961   0.475   9.268   8.747
11573WAT     H234962   0.505   9.112   8.711
11574WAT      O34963   1.417   7.651   6.520
11574WAT     H134964   1.429   7.645   6.421
11574WAT     H234965   1.477   7.585   6.566
11575WAT      O34966   7.704   5.746   3.471
11575WAT     H134967   7.616   5.787   3.493
11575WAT     H234968   7.734   5.689   3.547
11576WAT      O34969   5.615   4.892   1.241
11576WAT     H134970   5.551   4.942   1.300
11576WAT     H234971   5.630   4.944   1.157
11577WAT      O34972   9.735   0.242   4.730
11577WAT     H134973   9.681   0.158   4.723
11577WAT     H234974   9.702   0.296   4.807
11578WAT      O34975   2.600   5.421   6.066
11578WAT     H134976   2.565   5.396   5.975
11578WAT     H234977   2.562   5.509   6.093
11579WAT      O34978   7.766   6.546   9.490
11579WAT     H134979   7.782   6.549   9.392
11579WAT     H234980   7.707   6.623   9.516
11580WAT      O34981   4.603   5.888   1.052
11580WAT     H134982   4.519   5.915   1.098
11580WAT     H234983   4.581   5.842   0.966
11581WAT      O34984   0.276   3.171   3.870
11581WAT     H134985   0.180   3.192   3.884
11581WAT     H234986   0.298   3.083   3.912
11582WAT      O34987   7.002   2.475   6.048
11582WAT     H134988   6.990   2.574   6.034
11582WAT     H234989   6.989   2.453   6.144
11583WAT      O34990   4.730   6.072   9.255
11583WAT     H134991   4.642   6.121   9.257
11583WAT     H234992   4.767   6.077   9.162
11584WAT      O34993   7.292   1.504   0.014
11584WAT     H134994   7.378   1.460  -0.014
11584WAT     H234995   7.306   1.552   0.100
11585WAT      O34996   3.563   7.517   0.520
11585WAT     H134997   3.576   7.528   0.421
11585WAT     H234998   3.490   7.451   0.537
11586WAT      O34999   6.146   6.369   3.469
11586WAT     H135000   6.106   6.417   3.546
11586WAT     H235001   6.172   6.435   3.398
11587WAT      O35002   0.829   8.239   4.853
11587WAT     H135003   0.816   8.336   4.873
11587WAT     H235004   0.740   8.195   4.839
11588WAT      O35005   2.843   6.017   7.357
11588WAT     H135006   2.859   5.919   7.370
11588WAT     H235007   2.855   6.065   7.444
11589WAT      O35008   3.995   7.600   2.007
11589WAT     H135009   3.922   7.625   2.070
11589WAT     H235010   3.986   7.653   1.923
11590WAT      O35011   8.880   6.481   2.718
11590WAT     H135012   8.970   6.437   2.719
11590WAT     H235013   8.825   6.446   2.794
11591WAT      O35014   9.161   7.929   1.892
11591WAT     H135015   9.190   7.837   1.919
11591WAT     H235016   9.237   7.993   1.904
11592WAT      O35017   1.112   0.916   6.522
11592WAT     H135018   1.113   1.016   6.523
11592WAT     H235019   1.071   0.881   6.606
11593WAT      O35020   0.309   8.745   6.252
11593WAT     H135021   0.322   8.656   6.295
11593WAT     H235022   0.397   8.780   6.220
11594WAT      O35023   1.450   5.219   4.413
11594WAT     H135024   1.368   5.228   4.357
11594WAT     H235025   1.429   5.166   4.496
11595WAT      O35026   9.760   4.654   2.937
11595WAT     H135027   9.796   4.743   2.963
11595WAT     H235028   9.709   4.614   3.013
11596WAT      O35029   5.709   9.381   4.134
11596WAT     H135030   5.730   9.399   4.038
11596WAT     H235031   5.617   9.342   4.141
11597WAT      O35032   8.600   4.032   7.401
11597WAT     H135033   8.503   4.012   7.390
11597WAT     H235034   8.648   4.010   7.316
11598WAT      O35035   8.246   7.565   5.244
11598WAT     H135036   8.202   7.647   5.281
11598WAT     H235037   8.234   7.489   5.307
11599WAT      O35038   1.285   7.758   0.804
11599WAT     H135039   1.345   7.756   0.724
11599WAT     H235040   1.241   7.669   0.814
11600WAT      O35041   3.522   5.760   6.047
11600WAT     H135042   3.452   5.795   5.985
11600WAT     H235043   3.508   5.798   6.138
11601WAT      O35044   8.663   7.096   9.592
11601WAT     H135045   8.689   7.077   9.497
11601WAT     H235046   8.744   7.096   9.650
11602WAT      O35047   4.547   7.709   1.693
11602WAT     H135048   4.522   7.800   1.724
11602WAT     H235049   4.464   7.658   1.670
11603WAT      O35050   4.501   0.229   5.639
11603WAT     H135051   4.450   0.143   5.645
11603WAT     H235052   4.565   0.224   5.562
11604WAT      O35053   8.023   0.433   1.706
11604WAT     H135054   7.928   0.401   1.698
11604WAT     H235055   8.084   0.355   1.717
11605WAT      O35056   3.047   5.009   7.154
11605WAT     H135057   3.038   4.917   7.116
11605WAT     H235058   3.140   5.043   7.135
11606WAT      O35059   3.589   1.372   0.645
11606WAT     H135060   3.675   1.383   0.595
11606WAT     H235061   3.544   1.461   0.652
11607WAT      O35062   5.041   2.319   5.044
11607WAT     H135063   5.040   2.227   5.083
11607WAT     H235064   5.131   2.360   5.060
11608WAT      O35065   1.852   7.159   9.351
11608WAT     H135066   1.762   7.202   9.352
11608WAT     H235067   1.869   7.121   9.260
11609WAT      O35068   9.584   5.259   8.630
11609WAT     H135069   9.569   5.330   8.698
11609WAT     H235070   9.680   5.261   8.601
11610WAT      O35071   4.053   6.091   4.448
11610WAT     H135072   4.020   6.068   4.540
11610WAT     H235073   4.151   6.110   4.451
11611WAT      O35074   1.083   3.814   1.118
11611WAT     H135075   1.031   3.790   1.200
11611WAT     H235076   1.142   3.737   1.092
11612WAT      O35077   8.051   9.505   5.522
11612WAT     H135078   7.985   9.554   5.465
11612WAT     H235079   8.069   9.556   5.605
11613WAT      O35080   6.813   6.200   1.322
11613WAT     H135081   6.823   6.172   1.418
11613WAT     H235082   6.869   6.281   1.305
11614WAT      O35083   7.195   5.806   9.717
11614WAT     H135084   7.217   5.721   9.765
11614WAT     H235085   7.277   5.864   9.710
11615WAT      O35086   7.237   9.615   0.742
11615WAT     H135087   7.188   9.534   0.710
11615WAT     H235088   7.172   9.682   0.776
11616WAT      O35089   0.003   9.478   3.526
11616WAT     H135090  -0.045   9.418   3.462
11616WAT     H235091   0.043   9.422   3.600
11617WAT      O35092   4.224   5.961   0.970
11617WAT     H135093   4.266   5.974   1.059
11617WAT     H235094   4.286   5.994   0.898
11618WAT      O35095   1.154   4.299   2.156
11618WAT     H135096   1.254   4.292   2.158
11618WAT     H235097   1.128   4.392   2.130
11619WAT      O35098   9.681   1.817   8.898
11619WAT     H135099   9.617   1.826   8.821
11619WAT     H235100   9.638   1.762   8.970
11620WAT      O35101   1.074   0.875   7.185
11620WAT     H135102   1.125   0.803   7.232
11620WAT     H235103   1.138   0.940   7.144
11621WAT      O35104   6.557   9.049   5.929
11621WAT     H135105   6.590   9.072   5.837
11621WAT     H235106   6.514   9.129   5.970
11622WAT      O35107   4.862   4.788   3.805
11622WAT     H135108   4.776   4.770   3.758
11622WAT     H235109   4.888   4.708   3.858
11623WAT      O35110   8.014   0.055   5.153
11623WAT     H135111   7.973   0.106   5.077
11623WAT     H235112   8.081   0.112   5.199
11624WAT      O35113   7.857   5.813   2.587
11624WAT     H135114   7.765   5.783   2.612
11624WAT     H235115   7.896   5.867   2.661
11625WAT      O35116   4.971   5.012   3.212
11625WAT     H135117   5.021   4.965   3.285
11625WAT     H235118   5.016   5.098   3.191
11626WAT      O35119   9.593   7.213   6.503
11626WAT     H135120   9.667   7.225   6.569
11626WAT     H235121   9.596   7.288   6.437
11627WAT      O35122   3.438   7.208   0.862
11627WAT     H135123   3.378   7.136   0.897
11627WAT     H235124   3.489   7.249   0.937
11628WAT      O35125   9.366   1.536   1.916
11628WAT     H135126   9.277   1.580   1.931
11628WAT     H235127   9.436   1.586   1.966
11629WAT      O35128   1.818   2.873   7.662
11629WAT     H135129   1.828   2.973   7.653
11629WAT     H235130   1.909   2.832   7.672
11630WAT      O35131   6.971   0.493   7.793
11630WAT     H135132   6.909   0.526   7.721
11630WAT     H235133   6.954   0.544   7.877
11631WAT      O35134   8.870   3.494   0.555
11631WAT     H135135   8.831   3.456   0.638
11631WAT     H235136   8.962   3.529   0.573
11632WAT      O35137   5.445   1.951   0.205
11632WAT     H135138   5.437   2.047   0.232
11632WAT     H235139   5.415   1.940   0.110
11633WAT      O35140   7.087   0.219   0.712
11633WAT     H135141   7.005   0.174   0.747
11633WAT     H235142   7.073   0.244   0.616
11634WAT      O35143   8.882   0.011   1.401
11634WAT     H135144   8.897  -0.035   1.313
11634WAT     H235145   8.796  -0.019   1.440
11635WAT      O35146   5.167   7.238   4.112
11635WAT     H135147   5.211   7.306   4.054
11635WAT     H235148   5.229   7.212   4.186
11636WAT      O35149   6.443   6.548   2.780
11636WAT     H135150   6.360   6.546   2.836
11636WAT     H235151   6.442   6.629   2.722
11637WAT      O35152   6.976   4.201   8.872
11637WAT     H135153   6.931   4.237   8.790
11637WAT     H235154   6.955   4.103   8.880
11638WAT      O35155   0.969   4.848   7.497
11638WAT     H135156   1.053   4.794   7.493
11638WAT     H235157   0.955   4.880   7.591
11639WAT      O35158   4.027   9.472   5.782
11639WAT     H135159   3.956   9.482   5.851
11639WAT     H235160   4.067   9.380   5.789
11640WAT      O35161   2.249   2.727   4.467
11640WAT     H135162   2.267   2.631   4.443
11640WAT     H235163   2.304   2.752   4.546
11641WAT      O35164   0.000   0.497   1.935
11641WAT     H135165  -0.024   0.571   1.873
11641WAT     H235166   0.072   0.528   1.998
11642WAT      O35167   0.171   0.575   3.194
11642WAT     H135168   0.074   0.594   3.180
11642WAT     H235169   0.189   0.478   3.182
11643WAT      O35170   3.791   3.184   6.235
11643WAT     H135171   3.886   3.205   6.211
11643WAT     H235172   3.731   3.257   6.204
11644WAT      O35173   4.013   5.191   6.210
11644WAT     H135174   3.972   5.276   6.246
11644WAT     H235175   4.095   5.214   6.158
11645WAT      O35176   0.236   4.903   3.215
11645WAT     H135177   0.247   4.852   3.300
11645WAT     H235178   0.175   4.853   3.154
11646WAT      O35179   1.732   9.788   6.925
11646WAT     H135180   1.717   9.797   6.827
11646WAT     H235181   1.719   9.877   6.969
11647WAT      O35182   9.856   4.287   0.271
11647WAT     H135183   9.789   4.354   0.304
11647WAT     H235184   9.845   4.202   0.321
11648WAT      O35185   5.083   0.034   6.831
11648WAT     H135186   5.057   0.113   6.887
11648WAT     H235187   5.059  -0.050   6.878
11649WAT      O35188   5.458   9.257   4.130
11649WAT     H135189   5.454   9.160   4.109
11649WAT     H235190   5.392   9.306   4.074
11650WAT      O35191   6.898   8.364   0.643
11650WAT     H135192   6.958   8.380   0.565
11650WAT     H235193   6.843   8.282   0.628
11651WAT      O35194   7.731   6.399   0.130
11651WAT     H135195   7.764   6.489   0.159
11651WAT     H235196   7.633   6.404   0.110
11652WAT      O35197   7.526   6.545   4.414
11652WAT     H135198   7.466   6.564   4.492
11652WAT     H235199   7.480   6.572   4.329
11653WAT      O35200   3.043   4.585   6.592
11653WAT     H135201   2.994   4.521   6.651
11653WAT     H235202   3.141   4.563   6.594
11654WAT      O35203   6.163   0.771   4.026
11654WAT     H135204   6.122   0.745   3.938
11654WAT     H235205   6.144   0.700   4.094
11655WAT      O35206   3.339   7.214   7.328
11655WAT     H135207   3.402   7.230   7.252
11655WAT     H235208   3.391   7.208   7.413
11656WAT      O35209   1.525   4.610   1.263
11656WAT     H135210   1.499   4.583   1.171
11656WAT     H235211   1.448   4.655   1.308
11657WAT      O35212   1.733   3.585   5.368
11657WAT     H135213   1.762   3.495   5.335
11657WAT     H235214   1.810   3.648   5.362
11658WAT      O35215   9.731   5.420   1.973
11658WAT     H135216   9.684   5.365   2.043
11658WAT     H235217   9.826   5.391   1.967
11659WAT      O35218   4.952   9.078   9.430
11659WAT     H135219   4.974   8.980   9.439
11659WAT     H235220   4.997   9.128   9.504
11660WAT      O35221   4.149   9.201   8.397
11660WAT     H135222   4.119   9.289   8.362
11660WAT     H235223   4.211   9.158   8.331
11661WAT      O35224   5.816   9.395   9.284
11661WAT     H135225   5.860   9.378   9.372
11661WAT     H235226   5.749   9.469   9.294
11662WAT      O35227   4.416   7.749   8.542
11662WAT     H135228   4.419   7.659   8.584
11662WAT     H235229   4.409   7.819   8.613
11663WAT      O35230   0.460   5.368   2.065
11663WAT     H135231   0.401   5.366   1.985
11663WAT     H235232   0.411   5.330   2.144
11664WAT      O35233   4.136   9.531   4.218
11664WAT     H135234   4.196   9.610   4.224
11664WAT     H235235   4.104   9.520   4.124
11665WAT      O35236   4.042   1.369   3.108
11665WAT     H135237   4.112   1.297   3.109
11665WAT     H235238   4.048   1.420   3.022
11666WAT      O35239   5.478   5.476   2.494
11666WAT     H135240   5.406   5.523   2.442
11666WAT     H235241   5.505   5.393   2.445
11667WAT      O35242   3.802   2.269   1.229
11667WAT     H135243   3.888   2.312   1.199
11667WAT     H235244   3.727   2.335   1.221
11668WAT      O35245   9.713   2.280   1.619
11668WAT     H135246   9.648   2.332   1.564
11668WAT     H235247   9.779   2.342   1.661
11669WAT      O35248   8.216   1.262   2.564
11669WAT     H135249   8.172   1.300   2.483
11669WAT     H235250   8.315   1.276   2.557
11670WAT      O35251   9.777   6.935   5.775
11670WAT     H135252   9.817   6.872   5.709
11670WAT     H235253   9.841   7.010   5.793
11671WAT      O35254   5.764   1.899   9.821
11671WAT     H135255   5.698   1.974   9.819
11671WAT     H235256   5.716   1.813   9.835
11672WAT      O35257   2.179   5.903   5.236
11672WAT     H135258   2.274   5.874   5.243
11672WAT     H235259   2.174   5.990   5.186
11673WAT      O35260   0.201   4.935   1.148
11673WAT     H135261   0.191   5.010   1.083
11673WAT     H235262   0.114   4.886   1.156
11674WAT      O35263   4.607   6.168   8.101
11674WAT     H135264   4.688   6.147   8.156
11674WAT     H235265   4.582   6.264   8.114
11675WAT      O35266   6.400   0.432   3.809
11675WAT     H135267   6.321   0.381   3.844
11675WAT     H235268   6.473   0.367   3.786
11676WAT      O35269   8.834   3.802   2.176
11676WAT     H135270   8.867   3.877   2.120
11676WAT     H235271   8.869   3.715   2.141
11677WAT      O35272   7.278   8.113   2.510
11677WAT     H135273   7.289   8.103   2.609
11677WAT     H235274   7.341   8.183   2.476
11678WAT      O35275   1.921   9.740   6.566
11678WAT     H135276   1.983   9.754   6.643
11678WAT     H235277   1.935   9.648   6.528
11679WAT      O35278   2.716   1.566   7.843
11679WAT     H135279   2.653   1.490   7.825
11679WAT     H235280   2.679   1.622   7.918
11680WAT      O35281   9.263   4.023   5.839
11680WAT     H135282   9.282   3.940   5.891
11680WAT     H235283   9.350   4.067   5.814
11681WAT      O35284   1.240   4.510   4.343
11681WAT     H135285   1.180   4.446   4.294
11681WAT     H235286   1.314   4.540   4.283
11682WAT      O35287   8.345   6.850   6.414
11682WAT     H135288   8.274   6.909   6.374
11682WAT     H235289   8.326   6.837   6.511
11683WAT      O35290   3.445   0.378   6.252
11683WAT     H135291   3.424   0.298   6.308
11683WAT     H235292   3.491   0.350   6.168
11684WAT      O35293   1.381   6.079   3.040
11684WAT     H135294   1.309   6.014   3.066
11684WAT     H235295   1.366   6.110   2.946
11685WAT      O35296   1.603   4.511   9.892
11685WAT     H135297   1.604   4.576   9.816
11685WAT     H235298   1.537   4.438   9.873
11686WAT      O35299   9.452   7.975   2.589
11686WAT     H135300   9.500   7.929   2.664
11686WAT     H235301   9.353   7.962   2.600
11687WAT      O35302   3.453   0.540   5.325
11687WAT     H135303   3.414   0.584   5.406
11687WAT     H235304   3.381   0.524   5.257
11688WAT      O35305   0.620   2.675   0.746
11688WAT     H135306   0.565   2.631   0.675
11688WAT     H235307   0.596   2.636   0.835
11689WAT      O35308   7.847   3.364   9.356
11689WAT     H135309   7.896   3.446   9.384
11689WAT     H235310   7.799   3.325   9.435
11690WAT      O35311   4.199   9.744   3.369
11690WAT     H135312   4.185   9.836   3.405
11690WAT     H235313   4.296   9.720   3.373
11691WAT      O35314   0.375   9.540   5.056
11691WAT     H135315   0.373   9.440   5.058
11691WAT     H235316   0.282   9.575   5.062
11692WAT      O35317   2.155   4.552   0.488
11692WAT     H135318   2.099   4.478   0.451
11692WAT     H235319   2.150   4.631   0.426
11693WAT      O35320   1.703   7.318   3.043
11693WAT     H135321   1.749   7.407   3.054
11693WAT     H235322   1.690   7.299   2.946
11694WAT      O35323   1.574   2.555   2.565
11694WAT     H135324   1.479   2.562   2.593
11694WAT     H235325   1.633   2.569   2.644
11695WAT      O35326   8.514   0.099   0.577
11695WAT     H135327   8.564   0.163   0.636
11695WAT     H235328   8.570   0.017   0.562
11696WAT      O35329   0.053   2.928   6.869
11696WAT     H135330   0.066   2.995   6.942
11696WAT     H235331   0.138   2.918   6.817
11697WAT      O35332   4.605   3.454   0.858
11697WAT     H135333   4.684   3.404   0.823
11697WAT     H235334   4.624   3.485   0.951
11698WAT      O35335   4.591   8.079   1.938
11698WAT     H135336   4.680   8.107   1.900
11698WAT     H235337   4.605   8.002   2.001
11699WAT      O35338   1.530   3.198   9.793
11699WAT     H135339   1.476   3.272   9.832
11699WAT     H235340   1.478   3.113   9.798
11700WAT      O35341   4.786   5.044   2.971
11700WAT     H135342   4.838   5.021   3.054
11700WAT     H235343   4.701   5.090   2.997
11701WAT      O35344   6.617   6.338   8.471
11701WAT     H135345   6.633   6.268   8.401
11701WAT     H235346   6.700   6.353   8.523
11702WAT      O35347   4.243   8.904   6.120
11702WAT     H135348   4.338   8.879   6.104
11702WAT     H235349   4.190   8.823   6.145
11703WAT      O35350   5.530   7.896   3.482
11703WAT     H135351   5.616   7.908   3.533
11703WAT     H235352   5.514   7.977   3.425
11704WAT      O35353   6.197   8.972   1.463
11704WAT     H135354   6.225   8.896   1.523
11704WAT     H235355   6.206   9.058   1.513
11705WAT      O35356   0.996   0.761   5.143
11705WAT     H135357   1.026   0.682   5.090
11705WAT     H235358   1.056   0.771   5.223
11706WAT      O35359   4.875   2.361   5.259
11706WAT     H135360   4.784   2.327   5.237
11706WAT     H235361   4.934   2.354   5.179
11707WAT      O35362   7.230   9.450   8.664
11707WAT     H135363   7.243   9.491   8.574
11707WAT     H235364   7.218   9.521   8.732
11708WAT      O35365   0.215   9.579   4.378
11708WAT     H135366   0.240   9.564   4.473
11708WAT     H235367   0.289   9.626   4.330
11709WAT      O35368   1.890   2.250   5.319
11709WAT     H135369   1.964   2.257   5.252
11709WAT     H235370   1.806   2.218   5.273
11710WAT      O35371   8.743   8.771   5.567
11710WAT     H135372   8.654   8.742   5.601
11710WAT     H235373   8.754   8.870   5.581
11711WAT      O35374   0.941   6.654   2.761
11711WAT     H135375   0.885   6.730   2.796
11711WAT     H235376   1.030   6.655   2.805
11712WAT      O35377   6.237   0.661   0.272
11712WAT     H135378   6.188   0.739   0.312
11712WAT     H235379   6.334   0.669   0.294
11713WAT      O35380   4.266   2.326   7.613
11713WAT     H135381   4.238   2.246   7.666
11713WAT     H235382   4.280   2.299   7.517
11714WAT      O35383   5.003   2.476   3.593
11714WAT     H135384   5.068   2.474   3.518
11714WAT     H235385   5.002   2.567   3.634
11715WAT      O35386   4.527   1.151   1.162
11715WAT     H135387   4.603   1.094   1.193
11715WAT     H235388   4.549   1.189   1.071
11716WAT      O35389   2.421   3.085   6.500
11716WAT     H135390   2.332   3.103   6.457
11716WAT     H235391   2.494   3.114   6.440
11717WAT      O35392   7.541   7.239   8.427
11717WAT     H135393   7.458   7.196   8.462
11717WAT     H235394   7.563   7.200   8.337
11718WAT      O35395   8.375   6.107   2.209
11718WAT     H135396   8.350   6.106   2.112
11718WAT     H235397   8.302   6.068   2.264
11719WAT      O35398   4.279   8.587   2.817
11719WAT     H135399   4.367   8.611   2.777
11719WAT     H235400   4.209   8.585   2.746
11720WAT      O35401   6.971   1.714   4.828
11720WAT     H135402   6.970   1.812   4.849
11720WAT     H235403   6.983   1.662   4.913
11721WAT      O35404   3.383   8.424   6.679
11721WAT     H135405   3.325   8.343   6.681
11721WAT     H235406   3.442   8.421   6.598
11722WAT      O35407   6.854   8.921   1.320
11722WAT     H135408   6.848   8.986   1.245
11722WAT     H235409   6.761   8.895   1.349
11723WAT      O35410   6.748   7.814   8.867
11723WAT     H135411   6.737   7.851   8.959
11723WAT     H235412   6.662   7.771   8.838
11724WAT      O35413   6.136   2.072   8.194
11724WAT     H135414   6.207   2.093   8.127
11724WAT     H235415   6.089   1.988   8.168
11725WAT      O35416   0.665   1.305   7.950
11725WAT     H135417   0.698   1.346   7.864
11725WAT     H235418   0.566   1.293   7.945
11726WAT      O35419   3.896   6.498   8.004
11726WAT     H135420   3.941   6.410   7.993
11726WAT     H235421   3.926   6.540   8.090
11727WAT      O35422   9.849   7.797   7.744
11727WAT     H135423   9.887   7.889   7.731
11727WAT     H235424   9.750   7.805   7.762
11728WAT      O35425   4.406   9.832   7.673
11728WAT     H135426   4.364   9.919   7.698
11728WAT     H235427   4.497   9.849   7.634
11729WAT      O35428   4.790   0.391   5.589
11729WAT     H135429   4.757   0.321   5.526
11729WAT     H235430   4.861   0.445   5.544
11730WAT      O35431   9.491   3.348   9.203
11730WAT     H135432   9.549   3.278   9.245
11730WAT     H235433   9.513   3.437   9.241
11731WAT      O35434   5.449   5.719   8.576
11731WAT     H135435   5.352   5.701   8.596
11731WAT     H235436   5.471   5.813   8.604
11732WAT      O35437   1.376   6.271   3.634
11732WAT     H135438   1.325   6.192   3.598
11732WAT     H235439   1.459   6.284   3.579
11733WAT      O35440   7.928   5.061   8.141
11733WAT     H135441   7.996   5.131   8.160
11733WAT     H235442   7.836   5.100   8.149
11734WAT      O35443   3.393   8.816   6.788
11734WAT     H135444   3.402   8.717   6.801
11734WAT     H235445   3.477   8.852   6.746
11735WAT      O35446   6.676   4.760   4.118
11735WAT     H135447   6.675   4.693   4.043
11735WAT     H235448   6.699   4.713   4.203
11736WAT      O35449   4.063   9.238   1.379
11736WAT     H135450   4.138   9.287   1.335
11736WAT     H235451   4.028   9.293   1.455
11737WAT      O35452   8.535   7.362   5.160
11737WAT     H135453   8.469   7.388   5.230
11737WAT     H235454   8.591   7.286   5.193
11738WAT      O35455   7.703   8.816   8.777
11738WAT     H135456   7.693   8.733   8.832
11738WAT     H235457   7.688   8.793   8.680
11739WAT      O35458   6.913   5.565   3.705
11739WAT     H135459   6.922   5.556   3.804
11739WAT     H235460   6.987   5.622   3.669
11740WAT      O35461   8.195   5.165   2.801
11740WAT     H135462   8.259   5.163   2.877
11740WAT     H235463   8.244   5.149   2.715
11741WAT      O35464   4.277   9.667   8.063
11741WAT     H135465   4.318   9.585   8.104
11741WAT     H235466   4.215   9.640   7.990
11742WAT      O35467   2.367  -0.002   2.215
11742WAT     H135468   2.293   0.036   2.271
11742WAT     H235469   2.384   0.060   2.138
11743WAT      O35470   7.618   0.803   8.644
11743WAT     H135471   7.615   0.703   8.633
11743WAT     H235472   7.690   0.827   8.708
11744WAT      O35473   6.187   2.628   6.773
11744WAT     H135474   6.177   2.650   6.676
11744WAT     H235475   6.127   2.688   6.827
11745WAT      O35476   6.246   2.335   7.763
11745WAT     H135477   6.313   2.343   7.690
11745WAT     H235478   6.259   2.410   7.829
11746WAT      O35479   3.966   1.169   8.132
11746WAT     H135480   3.922   1.228   8.199
11746WAT     H235481   3.993   1.083   8.175
11747WAT      O35482   5.953   6.308   2.696
11747WAT     H135483   5.916   6.364   2.770
11747WAT     H235484   6.031   6.354   2.654
11748WAT      O35485   1.940   3.861   4.297
11748WAT     H135486   1.879   3.892   4.369
11748WAT     H235487   1.930   3.919   4.216
11749WAT      O35488   2.552   8.849   3.735
11749WAT     H135489   2.575   8.768   3.789
11749WAT     H235490   2.452   8.859   3.731
11750WAT      O35491   9.176   3.476   9.273
11750WAT     H135492   9.253   3.493   9.211
11750WAT     H235493   9.105   3.426   9.224
11751WAT      O35494   8.418   6.092   0.081
11751WAT     H135495   8.490   6.074   0.015
11751WAT     H235496   8.392   6.007   0.127
11752WAT      O35497   8.879   4.245   3.797
11752WAT     H135498   8.879   4.268   3.894
11752WAT     H235499   8.970   4.263   3.759
11753WAT      O35500   6.959   4.892   1.724
11753WAT     H135501   7.058   4.883   1.720
11753WAT     H235502   6.935   4.971   1.781
11754WAT      O35503   8.811   2.676   0.748
11754WAT     H135504   8.891   2.616   0.748
11754WAT     H235505   8.832   2.760   0.797
11755WAT      O35506   9.544   9.736   9.573
11755WAT     H135507   9.532   9.660   9.636
11755WAT     H235508   9.606   9.803   9.613
11756WAT      O35509   6.488   9.008   3.736
11756WAT     H135510   6.420   8.966   3.676
11756WAT     H235511   6.457   9.100   3.761
11757WAT      O35512   6.614   5.999   1.838
11757WAT     H135513   6.562   6.063   1.781
11757WAT     H235514   6.564   5.981   1.922
11758WAT      O35515   2.379   9.821   3.404
11758WAT     H135516   2.358   9.849   3.498
11758WAT     H235517   2.445   9.884   3.364
11759WAT      O35518   5.818   8.889   8.402
11759WAT     H135519   5.906   8.906   8.445
11759WAT     H235520   5.808   8.950   8.323
11760WAT      O35521   6.941   2.115   5.258
11760WAT     H135522   6.995   2.048   5.310
11760WAT     H235523   6.851   2.076   5.239
11761WAT      O35524   8.077   8.785   0.217
11761WAT     H135525   8.169   8.795   0.253
11761WAT     H235526   8.026   8.718   0.271
11762WAT      O35527   8.932   2.807   2.009
11762WAT     H135528   8.977   2.719   1.996
11762WAT     H235529   8.835   2.798   1.986
11763WAT      O35530   9.746   0.069   3.703
11763WAT     H135531   9.679   0.118   3.647
11763WAT     H235532   9.787  -0.005   3.648
11764WAT      O35533   2.044   2.141   2.784
11764WAT     H135534   2.063   2.225   2.835
11764WAT     H235535   1.996   2.163   2.700
11765WAT      O35536   8.625   8.383   3.113
11765WAT     H135537   8.688   8.424   3.179
11765WAT     H235538   8.611   8.445   3.037
11766WAT      O35539   8.738   4.735   8.021
11766WAT     H135540   8.730   4.688   7.933
11766WAT     H235541   8.665   4.802   8.029
11767WAT      O35542   4.907   4.297   5.743
11767WAT     H135543   5.003   4.275   5.763
11767WAT     H235544   4.903   4.363   5.668
11768WAT      O35545   9.189   4.366   8.645
11768WAT     H135546   9.278   4.322   8.657
11768WAT     H235547   9.200   4.447   8.588
11769WAT      O35548   6.108   2.801   3.351
11769WAT     H135549   6.088   2.888   3.397
11769WAT     H235550   6.039   2.733   3.377
11770WAT      O35551   3.146   9.366   5.546
11770WAT     H135552   3.083   9.315   5.487
11770WAT     H235553   3.127   9.342   5.642
11771WAT      O35554   3.804   6.863   3.694
11771WAT     H135555   3.814   6.868   3.793
11771WAT     H235556   3.874   6.918   3.650
11772WAT      O35557   8.953   6.801   2.801
11772WAT     H135558   8.858   6.773   2.816
11772WAT     H235559   9.010   6.765   2.874
11773WAT      O35560   6.849   7.995   7.498
11773WAT     H135561   6.928   8.012   7.438
11773WAT     H235562   6.765   8.016   7.449
11774WAT      O35563   4.375   0.479   0.468
11774WAT     H135564   4.409   0.561   0.422
11774WAT     H235565   4.295   0.503   0.524
11775WAT      O35566   6.088   3.575   0.666
11775WAT     H135567   6.098   3.478   0.690
11775WAT     H235568   6.026   3.620   0.730
11776WAT      O35569   4.465   6.045   0.146
11776WAT     H135570   4.428   5.962   0.187
11776WAT     H235571   4.445   6.123   0.205
11777WAT      O35572   7.180   1.830   8.276
11777WAT     H135573   7.279   1.844   8.283
11777WAT     H235574   7.134   1.918   8.264
11778WAT      O35575   6.762   3.806   2.149
11778WAT     H135576   6.782   3.892   2.196
11778WAT     H235577   6.844   3.773   2.103
11779WAT      O35578   3.252   8.156   6.153
11779WAT     H135579   3.240   8.255   6.148
11779WAT     H235580   3.280   8.122   6.063
11780WAT      O35581   8.704   8.302   7.074
11780WAT     H135582   8.679   8.266   6.984
11780WAT     H235583   8.779   8.368   7.063
11781WAT      O35584   7.033   2.961   7.114
11781WAT     H135585   6.989   2.871   7.110
11781WAT     H235586   6.988   3.016   7.185
11782WAT      O35587   3.357   3.774   3.654
11782WAT     H135588   3.318   3.842   3.591
11782WAT     H235589   3.329   3.795   3.747
11783WAT      O35590   5.337   9.554   6.490
11783WAT     H135591   5.325   9.629   6.426
11783WAT     H235592   5.337   9.590   6.584
11784WAT      O35593   8.790   1.528   8.452
11784WAT     H135594   8.821   1.623   8.465
11784WAT     H235595   8.864   1.475   8.410
11785WAT      O35596   0.758   2.926   0.778
11785WAT     H135597   0.730   2.831   0.763
11785WAT     H235598   0.791   2.936   0.872
11786WAT      O35599   8.857   2.212   2.822
11786WAT     H135600   8.886   2.186   2.914
11786WAT     H235601   8.861   2.311   2.812
11787WAT      O35602   7.866   5.263   0.681
11787WAT     H135603   7.898   5.213   0.602
11787WAT     H235604   7.833   5.199   0.750
11788WAT      O35605   2.694   7.419   3.872
11788WAT     H135606   2.643   7.464   3.945
11788WAT     H235607   2.633   7.361   3.819
11789WAT      O35608   5.189   4.314   7.854
11789WAT     H135609   5.123   4.387   7.832
11789WAT     H235610   5.174   4.236   7.793
11790WAT      O35611   6.464   8.914   7.156
11790WAT     H135612   6.367   8.939   7.156
11790WAT     H235613   6.476   8.830   7.103
11791WAT      O35614   3.559   5.398   3.693
11791WAT     H135615   3.564   5.404   3.793
11791WAT     H235616   3.635   5.342   3.660
11792WAT      O35617   0.054   3.664   8.231
11792WAT     H135618   0.022   3.594   8.294
11792WAT     H235619   0.008   3.654   8.143
11793WAT      O35620   0.963   4.584   4.344
11793WAT     H135621   0.911   4.633   4.274
11793WAT     H235622   1.061   4.603   4.333
11794WAT      O35623   9.557   8.169   2.793
11794WAT     H135624   9.560   8.081   2.746
11794WAT     H235625   9.478   8.171   2.855
11795WAT      O35626   9.733   3.152   9.568
11795WAT     H135627   9.728   3.185   9.663
11795WAT     H235628   9.817   3.100   9.556
11796WAT      O35629   5.467   3.557   4.961
11796WAT     H135630   5.475   3.488   5.033
11796WAT     H235631   5.441   3.513   4.875
11797WAT      O35632   4.236   8.337   7.575
11797WAT     H135633   4.245   8.372   7.482
11797WAT     H235634   4.261   8.408   7.640
11798WAT      O35635   8.231   8.687   3.029
11798WAT     H135636   8.315   8.639   3.005
11798WAT     H235637   8.152   8.633   2.997
11799WAT      O35638   9.607   0.174   3.488
11799WAT     H135639   9.661   0.138   3.412
11799WAT     H235640   9.601   0.274   3.479
11800WAT      O35641   3.556   6.736   8.063
11800WAT     H135642   3.595   6.655   8.020
11800WAT     H235643   3.514   6.793   7.994
11801WAT      O35644   5.133   0.378   4.177
11801WAT     H135645   5.171   0.324   4.102
11801WAT     H235646   5.113   0.317   4.254
11802WAT      O35647   0.619   1.712   0.492
11802WAT     H135648   0.527   1.692   0.457
11802WAT     H235649   0.681   1.727   0.416
11803WAT      O35650   9.054   5.703   5.048
11803WAT     H135651   9.120   5.653   5.103
11803WAT     H235652   9.005   5.640   4.989
11804WAT      O35653   1.518   3.087   6.848
11804WAT     H135654   1.490   2.991   6.848
11804WAT     H235655   1.438   3.145   6.864
11805WAT      O35656   0.723   0.005   5.293
11805WAT     H135657   0.640   0.013   5.350
11805WAT     H235658   0.790   0.073   5.323
11806WAT      O35659   7.860   1.240   0.206
11806WAT     H135660   7.808   1.226   0.122
11806WAT     H235661   7.935   1.174   0.210
11807WAT      O35662   5.503   5.402   8.201
11807WAT     H135663   5.597   5.432   8.183
11807WAT     H235664   5.445   5.426   8.123
11808WAT      O35665   6.491   6.631   7.011
11808WAT     H135666   6.403   6.675   6.989
11808WAT     H235667   6.481   6.532   7.003
11809WAT      O35668   6.804   8.167   4.819
11809WAT     H135669   6.827   8.259   4.788
11809WAT     H235670   6.757   8.173   4.907
11810WAT      O35671   4.215   2.045   8.487
11810WAT     H135672   4.253   2.073   8.575
11810WAT     H235673   4.277   2.074   8.414
11811WAT      O35674   3.271   5.247   5.188
11811WAT     H135675   3.302   5.308   5.114
11811WAT     H235676   3.200   5.186   5.153
11812WAT      O35677   1.350   4.140   4.836
11812WAT     H135678   1.361   4.059   4.779
11812WAT     H235679   1.317   4.216   4.780
11813WAT      O35680   5.402   0.127   2.414
11813WAT     H135681   5.449   0.040   2.400
11813WAT     H235682   5.452   0.182   2.481
11814WAT      O35683   1.183   6.252   1.926
11814WAT     H135684   1.227   6.229   2.012
11814WAT     H235685   1.085   6.235   1.933
11815WAT      O35686   3.579   6.330   6.509
11815WAT     H135687   3.580   6.430   6.514
11815WAT     H235688   3.505   6.300   6.449
11816WAT      O35689   3.430   8.193   0.367
11816WAT     H135690   3.382   8.186   0.455
11816WAT     H235691   3.517   8.144   0.372
11817WAT      O35692   4.241   2.214   6.109
11817WAT     H135693   4.182   2.137   6.084
11817WAT     H235694   4.323   2.214   6.051
11818WAT      O35695   8.601   7.303   1.941
11818WAT     H135696   8.582   7.218   1.991
11818WAT     H235697   8.663   7.284   1.865
11819WAT      O35698   4.142   2.055   1.928
11819WAT     H135699   4.241   2.068   1.924
11819WAT     H235700   4.099   2.137   1.965
11820WAT      O35701   8.819   4.458   4.025
11820WAT     H135702   8.792   4.493   4.115
11820WAT     H235703   8.737   4.429   3.975
11821WAT      O35704   5.171   7.308   3.052
11821WAT     H135705   5.096   7.340   3.110
11821WAT     H235706   5.258   7.335   3.091
11822WAT      O35707   0.072   7.372   6.365
11822WAT     H135708  -0.025   7.389   6.383
11822WAT     H235709   0.089   7.378   6.267
11823WAT      O35710   0.642   2.209   0.610
11823WAT     H135711   0.597   2.178   0.694
11823WAT     H235712   0.626   2.307   0.598
11824WAT      O35713   6.521   9.177   0.521
11824WAT     H135714   6.544   9.096   0.574
11824WAT     H235715   6.439   9.160   0.467
11825WAT      O35716   8.609   1.023   5.572
11825WAT     H135717   8.583   0.931   5.543
11825WAT     H235718   8.660   1.068   5.499
11826WAT      O35719   8.452   4.380   2.374
11826WAT     H135720   8.375   4.403   2.433
11826WAT     H235721   8.419   4.338   2.290
11827WAT      O35722   0.594   7.588   3.452
11827WAT     H135723   0.542   7.520   3.505
11827WAT     H235724   0.610   7.552   3.360
11828WAT      O35725   4.926   2.945   7.829
11828WAT     H135726   4.998   3.014   7.823
11828WAT     H235727   4.930   2.886   7.748
11829WAT      O35728   3.025   3.759   9.331
11829WAT     H135729   2.953   3.759   9.400
11829WAT     H235730   3.101   3.816   9.364
11830WAT      O35731   6.780   7.742   3.430
11830WAT     H135732   6.845   7.761   3.356
11830WAT     H235733   6.787   7.814   3.499
11831WAT      O35734   8.024   8.742   1.838
11831WAT     H135735   7.926   8.760   1.828
11831WAT     H235736   8.075   8.828   1.835
11832WAT      O35737   1.876   3.450   5.897
11832WAT     H135738   1.923   3.511   5.833
11832WAT     H235739   1.866   3.360   5.854
11833WAT      O35740   0.046   7.807   8.524
11833WAT     H135741  -0.034   7.837   8.576
11833WAT     H235742   0.034   7.711   8.498
11834WAT      O35743   1.081   1.690   9.408
11834WAT     H135744   1.056   1.631   9.331
11834WAT     H235745   1.146   1.643   9.467
11835WAT      O35746   4.197   4.799   9.292
11835WAT     H135747   4.157   4.747   9.217
11835WAT     H235748   4.174   4.896   9.282
11836WAT      O35749   3.534   3.695   9.630
11836WAT     H135750   3.491   3.775   9.673
11836WAT     H235751   3.471   3.618   9.632
11837WAT      O35752   4.734   5.078   0.706
11837WAT     H135753   4.833   5.080   0.720
11837WAT     H235754   4.704   5.168   0.673
11838WAT      O35755   3.771   0.767   4.201
11838WAT     H135756   3.706   0.830   4.158
11838WAT     H235757   3.722   0.711   4.268
11839WAT      O35758   9.130   8.445   2.612
11839WAT     H135759   9.123   8.363   2.669
11839WAT     H235760   9.041   8.464   2.570
11840WAT      O35761   9.778   0.425   6.827
11840WAT     H135762   9.784   0.421   6.927
11840WAT     H235763   9.857   0.475   6.791
11841WAT      O35764   5.026   9.357   7.547
11841WAT     H135765   5.018   9.312   7.458
11841WAT     H235766   4.950   9.329   7.605
11842WAT      O35767   7.087   6.621   5.741
11842WAT     H135768   7.187   6.623   5.747
11842WAT     H235769   7.057   6.670   5.660
11843WAT      O35770   4.876   6.383   9.571
11843WAT     H135771   4.968   6.422   9.574
11843WAT     H235772   4.882   6.287   9.544
11844WAT      O35773   4.758   2.198   3.040
11844WAT     H135774   4.689   2.271   3.043
11844WAT     H235775   4.818   2.206   3.120
11845WAT      O35776   5.752   0.236   0.234
11845WAT     H135777   5.717   0.148   0.266
11845WAT     H235778   5.843   0.252   0.272
11846WAT      O35779   2.857   0.979   5.632
11846WAT     H135780   2.802   0.898   5.655
11846WAT     H235781   2.898   1.015   5.715
11847WAT      O35782   1.988   2.418   8.744
11847WAT     H135783   1.950   2.338   8.697
11847WAT     H235784   1.948   2.425   8.835
11848WAT      O35785   6.335   8.614   3.425
11848WAT     H135786   6.277   8.536   3.447
11848WAT     H235787   6.356   8.613   3.327
11849WAT      O35788   1.347   0.253   2.291
11849WAT     H135789   1.309   0.313   2.220
11849WAT     H235790   1.431   0.210   2.256
11850WAT      O35791   4.965   8.590   3.254
11850WAT     H135792   4.965   8.687   3.278
11850WAT     H235793   4.925   8.577   3.164
11851WAT      O35794   0.325   6.690   1.086
11851WAT     H135795   0.316   6.641   1.173
11851WAT     H235796   0.237   6.688   1.037
11852WAT      O35797   4.215   2.264   1.269
11852WAT     H135798   4.140   2.288   1.207
11852WAT     H235799   4.182   2.202   1.340
11853WAT      O35800   4.170   7.317   9.504
11853WAT     H135801   4.120   7.382   9.446
11853WAT     H235802   4.188   7.358   9.593
11854WAT      O35803   2.412   4.610   0.702
11854WAT     H135804   2.476   4.549   0.749
11854WAT     H235805   2.318   4.589   0.731
11855WAT      O35806   2.500   7.650   0.984
11855WAT     H135807   2.523   7.578   0.919
11855WAT     H235808   2.474   7.733   0.934
11856WAT      O35809   6.959   4.853   3.746
11856WAT     H135810   6.934   4.883   3.654
11856WAT     H235811   6.943   4.927   3.811
11857WAT      O35812   0.351   2.777   4.350
11857WAT     H135813   0.435   2.799   4.301
11857WAT     H235814   0.310   2.861   4.385
11858WAT      O35815   6.534   1.506   8.305
11858WAT     H135816   6.542   1.593   8.352
11858WAT     H235817   6.567   1.515   8.211
11859WAT      O35818   9.533   6.735   0.393
11859WAT     H135819   9.480   6.777   0.467
11859WAT     H235820   9.473   6.676   0.340
11860WAT      O35821   1.202   0.362   9.353
11860WAT     H135822   1.205   0.267   9.321
11860WAT     H235823   1.229   0.366   9.449
11861WAT      O35824   7.839   9.708   7.071
11861WAT     H135825   7.817   9.611   7.062
11861WAT     H235826   7.856   9.729   7.168
11862WAT      O35827   5.515   7.177   0.642
11862WAT     H135828   5.510   7.264   0.692
11862WAT     H235829   5.555   7.192   0.552
11863WAT      O35830   8.262   8.465   2.874
11863WAT     H135831   8.166   8.478   2.898
11863WAT     H235832   8.283   8.517   2.791
11864WAT      O35833   3.235   2.641   1.619
11864WAT     H135834   3.164   2.618   1.553
11864WAT     H235835   3.193   2.660   1.708
11865WAT      O35836   9.645   4.522   6.950
11865WAT     H135837   9.669   4.465   6.872
11865WAT     H235838   9.639   4.465   7.033
11866WAT      O35839   4.460   6.936   4.557
11866WAT     H135840   4.427   6.947   4.651
11866WAT     H235841   4.477   6.840   4.538
11867WAT      O35842   3.617   1.992   4.943
11867WAT     H135843   3.644   1.905   4.983
11867WAT     H235844   3.698   2.047   4.923
11868WAT      O35845   6.061   4.002   2.264
11868WAT     H135846   5.971   3.991   2.223
11868WAT     H235847   6.053   4.012   2.363
11869WAT      O35848   2.688   6.073   7.149
11869WAT     H135849   2.720   6.047   7.240
11869WAT     H235850   2.634   6.157   7.156
11870WAT      O35851   2.188   7.053   6.207
11870WAT     H135852   2.193   7.131   6.145
11870WAT     H235853   2.193   7.085   6.302
11871WAT      O35854   6.433   7.494   9.467
11871WAT     H135855   6.495   7.477   9.390
11871WAT     H235856   6.468   7.447   9.548
11872WAT      O35857   8.703   2.132   1.580
11872WAT     H135858   8.781   2.072   1.597
11872WAT     H235859   8.673   2.173   1.666
11873WAT      O35860   4.506   5.520   6.174
11873WAT     H135861   4.591   5.516   6.123
11873WAT     H235862   4.461   5.430   6.172
11874WAT      O35863   8.723   0.434   2.295
11874WAT     H135864   8.730   0.530   2.321
11874WAT     H235865   8.704   0.427   2.197
11875WAT      O35866   6.909   8.923   3.489
11875WAT     H135867   6.910   9.022   3.504
11875WAT     H235868   6.847   8.902   3.413
11876WAT      O35869   0.606   0.481   8.608
11876WAT     H135870   0.668   0.550   8.644
11876WAT     H235871   0.517   0.489   8.654
11877WAT      O35872   3.117   5.285   8.981
11877WAT     H135873   3.117   5.289   8.881
11877WAT     H235874   3.060   5.209   9.011
11878WAT      O35875   5.738   2.983   0.506
11878WAT     H135876   5.645   2.981   0.544
11878WAT     H235877   5.804   2.970   0.580
11879WAT      O35878   4.445   0.820   4.325
11879WAT     H135879   4.478   0.913   4.313
11879WAT     H235880   4.388   0.816   4.407
11880WAT      O35881   1.269   9.092   4.868
11880WAT     H135882   1.316   9.174   4.833
11880WAT     H235883   1.281   9.017   4.804
11881WAT      O35884   5.873   0.663   9.830
11881WAT     H135885   5.894   0.711   9.745
11881WAT     H235886   5.941   0.591   9.846
11882WAT      O35887   0.759   3.519   4.481
11882WAT     H135888   0.836   3.483   4.429
11882WAT     H235889   0.787   3.602   4.530
11883WAT      O35890   4.971   7.254   0.361
11883WAT     H135891   5.071   7.257   0.355
11883WAT     H235892   4.933   7.303   0.282
11884WAT      O35893   5.364   8.662   3.370
11884WAT     H135894   5.320   8.573   3.359
11884WAT     H235895   5.436   8.672   3.301
11885WAT      O35896   7.060   3.937   3.288
11885WAT     H135897   7.012   4.010   3.240
11885WAT     H235898   7.132   3.975   3.345
11886WAT      O35899   0.613   8.243   6.565
11886WAT     H135900   0.641   8.307   6.495
11886WAT     H235901   0.691   8.221   6.624
11887WAT      O35902   5.738   1.989   4.890
11887WAT     H135903   5.770   1.908   4.841
11887WAT     H235904   5.734   1.970   4.988
11888WAT      O35905   7.687   7.145   1.373
11888WAT     H135906   7.639   7.191   1.298
11888WAT     H235907   7.643   7.169   1.460
11889WAT      O35908   8.662   6.322   3.267
11889WAT     H135909   8.711   6.290   3.348
11889WAT     H235910   8.698   6.412   3.240
11890WAT      O35911   6.646   1.212   6.055
11890WAT     H135912   6.714   1.261   6.111
11890WAT     H235913   6.605   1.276   5.990
11891WAT      O35914   9.252   2.751   4.266
11891WAT     H135915   9.319   2.689   4.226
11891WAT     H235916   9.204   2.705   4.340
11892WAT      O35917   8.061   0.040   4.171
11892WAT     H135918   8.003   0.110   4.129
11892WAT     H235919   8.105  -0.014   4.099
11893WAT      O35920   0.709   4.206   2.504
11893WAT     H135921   0.623   4.203   2.556
11893WAT     H235922   0.713   4.292   2.453
11894WAT      O35923   5.978   6.777   7.058
11894WAT     H135924   5.914   6.813   7.126
11894WAT     H235925   5.935   6.781   6.967
11895WAT      O35926   5.325   1.637   4.607
11895WAT     H135927   5.278   1.661   4.522
11895WAT     H235928   5.397   1.571   4.588
11896WAT      O35929   7.723   8.589   8.142
11896WAT     H135930   7.810   8.588   8.192
11896WAT     H235931   7.719   8.671   8.085
11897WAT      O35932   2.710   6.334   5.707
11897WAT     H135933   2.632   6.324   5.646
11897WAT     H235934   2.699   6.275   5.786
11898WAT      O35935   3.091   1.311   3.143
11898WAT     H135936   3.045   1.393   3.178
11898WAT     H235937   3.061   1.295   3.049
11899WAT      O35938   6.627   4.056   7.924
11899WAT     H135939   6.544   4.002   7.910
11899WAT     H235940   6.707   4.000   7.903
11900WAT      O35941   2.473   7.420   2.303
11900WAT     H135942   2.474   7.343   2.238
11900WAT     H235943   2.420   7.395   2.384
11901WAT      O35944   7.225   6.768   1.874
11901WAT     H135945   7.145   6.712   1.854
11901WAT     H235946   7.302   6.708   1.897
11902WAT      O35947   5.846   7.448   3.517
11902WAT     H135948   5.921   7.382   3.525
11902WAT     H235949   5.855   7.518   3.589
11903WAT      O35950   5.206   0.459   7.900
11903WAT     H135951   5.119   0.506   7.886
11903WAT     H235952   5.281   0.519   7.876
11904WAT      O35953   3.758   0.394   1.627
11904WAT     H135954   3.696   0.353   1.694
11904WAT     H235955   3.798   0.322   1.570
11905WAT      O35956   1.032   2.729   0.999
11905WAT     H135957   0.967   2.657   0.974
11905WAT     H235958   1.112   2.724   0.939
11906WAT      O35959   2.637   7.999   6.813
11906WAT     H135960   2.622   7.912   6.765
11906WAT     H235961   2.708   8.051   6.765
11907WAT      O35962   9.040   5.706   4.250
11907WAT     H135963   9.078   5.799   4.252
11907WAT     H235964   8.941   5.711   4.235
11908WAT      O35965   6.363   0.899   1.873
11908WAT     H135966   6.372   0.898   1.774
11908WAT     H235967   6.385   0.808   1.909
11909WAT      O35968   8.422   8.444   8.463
11909WAT     H135969   8.384   8.401   8.545
11909WAT     H235970   8.477   8.378   8.413
11910WAT      O35971   4.329   8.469   3.127
11910WAT     H135972   4.291   8.475   3.035
11910WAT     H235973   4.274   8.406   3.181
11911WAT      O35974   1.418   4.290   9.878
11911WAT     H135975   1.507   4.246   9.864
11911WAT     H235976   1.396   4.289   9.976
11912WAT      O35977   8.267   1.826   0.404
11912WAT     H135978   8.248   1.731   0.431
11912WAT     H235979   8.343   1.827   0.339
11913WAT      O35980   0.281   0.639   3.876
11913WAT     H135981   0.213   0.614   3.807
11913WAT     H235982   0.307   0.735   3.863
11914WAT      O35983   6.382   2.573   2.881
11914WAT     H135984   6.384   2.534   2.973
11914WAT     H235985   6.453   2.530   2.825
11915WAT      O35986   6.846   9.135   1.958
11915WAT     H135987   6.771   9.101   1.901
11915WAT     H235988   6.850   9.235   1.950
11916WAT      O35989   7.707   8.191   2.226
11916WAT     H135990   7.805   8.179   2.210
11916WAT     H235991   7.662   8.101   2.226
11917WAT      O35992   5.450   6.144   9.154
11917WAT     H135993   5.477   6.072   9.090
11917WAT     H235994   5.508   6.139   9.236
11918WAT      O35995   3.860   3.901   6.319
11918WAT     H135996   3.906   3.954   6.248
11918WAT     H235997   3.801   3.832   6.276
11919WAT      O35998   5.822   4.078   6.152
11919WAT     H135999   5.818   4.173   6.180
11919WAT     H236000   5.869   4.071   6.064
11920WAT      O36001   5.713   8.292   4.231
11920WAT     H136002   5.623   8.294   4.275
11920WAT     H236003   5.708   8.335   4.141
11921WAT      O36004   7.417   6.879   1.440
11921WAT     H136005   7.453   6.791   1.471
11921WAT     H236006   7.379   6.929   1.519
11922WAT      O36007   4.606   3.482   8.501
11922WAT     H136008   4.542   3.492   8.577
11922WAT     H236009   4.563   3.514   8.417
11923WAT      O36010   3.878   7.698   8.930
11923WAT     H136011   3.798   7.641   8.913
11923WAT     H236012   3.875   7.778   8.870
11924WAT      O36013   4.713   5.704   9.647
11924WAT     H136014   4.790   5.755   9.608
11924WAT     H236015   4.664   5.657   9.574
11925WAT      O36016   3.598   9.243   0.172
11925WAT     H136017   3.618   9.184   0.094
11925WAT     H236018   3.581   9.336   0.141
11926WAT      O36019   2.443   1.791   4.288
11926WAT     H136020   2.386   1.757   4.363
11926WAT     H236021   2.515   1.724   4.268
11927WAT      O36022   1.689   9.580   2.637
11927WAT     H136023   1.612   9.608   2.580
11927WAT     H236024   1.750   9.520   2.584
11928WAT      O36025   9.213   8.385   3.846
11928WAT     H136026   9.190   8.317   3.776
11928WAT     H236027   9.288   8.350   3.903
11929WAT      O36028   5.640   9.159   9.295
11929WAT     H136029   5.697   9.240   9.309
11929WAT     H236030   5.631   9.110   9.382
11930WAT      O36031   3.528   5.853   8.594
11930WAT     H136032   3.475   5.772   8.619
11930WAT     H236033   3.529   5.863   8.495
11931WAT      O36034   6.297   6.069   3.967
11931WAT     H136035   6.283   6.000   3.896
11931WAT     H236036   6.208   6.101   4.000
11932WAT      O36037   0.593   7.273   0.260
11932WAT     H136038   0.649   7.355   0.257
11932WAT     H236039   0.513   7.289   0.317
11933WAT      O36040   7.216   1.609   6.974
11933WAT     H136041   7.281   1.654   6.912
11933WAT     H236042   7.205   1.514   6.948
11934WAT      O36043   1.441   9.601   6.991
11934WAT     H136044   1.383   9.546   7.051
11934WAT     H236045   1.405   9.694   6.986
11935WAT      O36046   2.604   8.002   3.992
11935WAT     H136047   2.631   7.911   4.023
11935WAT     H236048   2.622   8.069   4.065
11936WAT      O36049   5.091   0.976   0.715
11936WAT     H136050   5.153   0.914   0.763
11936WAT     H236051   5.002   0.977   0.762
11937WAT      O36052   8.753   9.370   8.253
11937WAT     H136053   8.819   9.432   8.211
11937WAT     H236054   8.763   9.372   8.352
11938WAT      O36055   3.562   1.786   3.465
11938WAT     H136056   3.565   1.876   3.421
11938WAT     H236057   3.491   1.730   3.423
11939WAT      O36058   5.586   5.843   8.207
11939WAT     H136059   5.547   5.929   8.174
11939WAT     H236060   5.518   5.795   8.263
11940WAT      O36061   6.706   4.809   0.314
11940WAT     H136062   6.707   4.712   0.338
11940WAT     H236063   6.619   4.832   0.272
11941WAT      O36064   9.733   4.984   2.199
11941WAT     H136065   9.688   5.072   2.184
11941WAT     H236066   9.742   4.967   2.297
11942WAT      O36067   0.079   3.851   8.679
11942WAT     H136068   0.135   3.851   8.762
11942WAT     H236069   0.087   3.763   8.632
11943WAT      O36070   1.598   9.822   3.381
11943WAT     H136071   1.679   9.784   3.427
11943WAT     H236072   1.622   9.909   3.339
11944WAT      O36073   5.450   7.949   7.038
11944WAT     H136074   5.402   7.991   7.115
11944WAT     H236075   5.392   7.881   6.995
11945WAT      O36076   2.879   3.348   9.574
11945WAT     H136077   2.858   3.327   9.479
11945WAT     H236078   2.794   3.354   9.626
11946WAT      O36079   2.386   6.990   8.608
11946WAT     H136080   2.458   6.929   8.641
11946WAT     H236081   2.414   7.033   8.523
11947WAT      O36082   4.764   7.650   7.273
11947WAT     H136083   4.812   7.724   7.318
11947WAT     H236084   4.763   7.667   7.174
11948WAT      O36085   9.671   7.793   6.472
11948WAT     H136086   9.667   7.720   6.541
11948WAT     H236087   9.579   7.831   6.459
11949WAT      O36088   2.542   4.806   6.243
11949WAT     H136089   2.444   4.786   6.243
11949WAT     H236090   2.577   4.801   6.337
11950WAT      O36091   3.661   2.848   0.530
11950WAT     H136092   3.615   2.935   0.546
11950WAT     H236093   3.716   2.823   0.610
11951WAT      O36094   7.753   6.597   3.609
11951WAT     H136095   7.666   6.643   3.596
11951WAT     H236096   7.772   6.589   3.707
11952WAT      O36097   1.879   2.242   2.574
11952WAT     H136098   1.880   2.342   2.581
11952WAT     H236099   1.868   2.216   2.478
11953WAT      O36100   4.673   2.281   3.617
11953WAT     H136101   4.765   2.250   3.595
11953WAT     H236102   4.623   2.207   3.663
11954WAT      O36103   8.790   2.332   2.415
11954WAT     H136104   8.878   2.371   2.388
11954WAT     H236105   8.766   2.363   2.507
11955WAT      O36106   8.622   6.888   6.249
11955WAT     H136107   8.583   6.944   6.322
11955WAT     H236108   8.622   6.792   6.278
11956WAT      O36109   7.497   3.094   8.770
11956WAT     H136110   7.424   3.058   8.829
11956WAT     H236111   7.470   3.086   8.674
11957WAT      O36112   2.478   8.092   2.362
11957WAT     H136113   2.504   8.042   2.280
11957WAT     H236114   2.486   8.191   2.344
11958WAT      O36115   7.160   1.545   3.763
11958WAT     H136116   7.064   1.519   3.771
11958WAT     H236117   7.187   1.544   3.667
11959WAT      O36118   7.657   3.183   7.277
11959WAT     H136119   7.744   3.139   7.299
11959WAT     H236120   7.607   3.202   7.362
11960WAT      O36121   3.351   9.654   9.385
11960WAT     H136122   3.396   9.616   9.465
11960WAT     H236123   3.273   9.597   9.360
11961WAT      O36124   0.013   8.993   3.713
11961WAT     H136125   0.109   9.021   3.717
11961WAT     H236126  -0.038   9.043   3.783
11962WAT      O36127   4.275   9.004   8.704
11962WAT     H136128   4.348   9.032   8.642
11962WAT     H236129   4.312   8.938   8.770
11963WAT      O36130   6.689   2.426   2.999
11963WAT     H136131   6.668   2.462   2.908
11963WAT     H236132   6.766   2.476   3.038
11964WAT      O36133   5.352   2.124   0.867
11964WAT     H136134   5.438   2.109   0.916
11964WAT     H236135   5.354   2.074   0.780
11965WAT      O36136   4.987   4.442   6.492
11965WAT     H136137   5.013   4.354   6.453
11965WAT     H236138   5.067   4.486   6.533
11966WAT      O36139   1.452   4.369   4.469
11966WAT     H136140   1.546   4.400   4.458
11966WAT     H236141   1.394   4.415   4.402
11967WAT      O36142   2.148   5.289   0.317
11967WAT     H136143   2.194   5.281   0.405
11967WAT     H236144   2.203   5.243   0.247
11968WAT      O36145   9.088   9.009   7.593
11968WAT     H136146   9.151   9.036   7.520
11968WAT     H236147   9.100   9.069   7.672
11969WAT      O36148   8.555   3.557   8.855
11969WAT     H136149   8.623   3.593   8.919
11969WAT     H236150   8.595   3.548   8.764
11970WAT      O36151   7.885   3.285   5.293
11970WAT     H136152   7.959   3.291   5.361
11970WAT     H236153   7.858   3.189   5.281
11971WAT      O36154   6.098   0.157   2.398
11971WAT     H136155   6.115   0.236   2.340
11971WAT     H236156   6.147   0.168   2.484
11972WAT      O36157   7.496   3.200   5.901
11972WAT     H136158   7.492   3.281   5.843
11972WAT     H236159   7.581   3.201   5.954
11973WAT      O36160   5.002   7.508   8.698
11973WAT     H136161   4.911   7.478   8.728
11973WAT     H236162   5.013   7.486   8.601
11974WAT      O36163   1.595   8.369   8.444
11974WAT     H136164   1.518   8.433   8.449
11974WAT     H236165   1.561   8.279   8.418
11975WAT      O36166   7.537   4.874   2.878
11975WAT     H136167   7.565   4.793   2.929
11975WAT     H236168   7.469   4.848   2.810
11976WAT      O36169   0.184   3.695   5.481
11976WAT     H136170   0.104   3.720   5.427
11976WAT     H236171   0.264   3.689   5.422
11977WAT      O36172   8.560   3.443   5.405
11977WAT     H136173   8.497   3.374   5.441
11977WAT     H236174   8.509   3.524   5.378
11978WAT      O36175   0.661   7.281   4.521
11978WAT     H136176   0.689   7.366   4.565
11978WAT     H236177   0.562   7.283   4.506
11979WAT      O36178   8.910   5.462   6.961
11979WAT     H136179   8.845   5.491   6.891
11979WAT     H236180   9.003   5.473   6.926
11980WAT      O36181   9.166   6.413   2.623
11980WAT     H136182   9.158   6.338   2.689
11980WAT     H236183   9.133   6.382   2.533
11981WAT      O36184   8.767   5.694   4.188
11981WAT     H136185   8.762   5.595   4.189
11981WAT     H236186   8.781   5.726   4.094
11982WAT      O36187   0.254   7.136   4.422
11982WAT     H136188   0.264   7.039   4.399
11982WAT     H236189   0.163   7.167   4.397
11983WAT      O36190   6.856   0.199   1.697
11983WAT     H136191   6.955   0.214   1.695
11983WAT     H236192   6.837   0.101   1.700
11984WAT      O36193   8.000   8.400   8.625
11984WAT     H136194   7.954   8.457   8.558
11984WAT     H236195   7.978   8.304   8.608
11985WAT      O36196   5.447   0.782   1.494
11985WAT     H136197   5.445   0.712   1.565
11985WAT     H236198   5.475   0.742   1.407
11986WAT      O36199   2.008   1.536   7.947
11986WAT     H136200   2.049   1.446   7.943
11986WAT     H236201   1.908   1.527   7.956
11987WAT      O36202   5.315   6.570   5.252
11987WAT     H136203   5.280   6.482   5.221
11987WAT     H236204   5.249   6.642   5.231
11988WAT      O36205   8.500   8.782   9.614
11988WAT     H136206   8.489   8.846   9.538
11988WAT     H236207   8.558   8.824   9.685
11989WAT      O36208   1.815   9.169   6.342
11989WAT     H136209   1.787   9.124   6.427
11989WAT     H236210   1.734   9.196   6.290
11990WAT      O36211   0.228   0.298   7.287
11990WAT     H136212   0.264   0.389   7.307
11990WAT     H236213   0.203   0.293   7.190
11991WAT      O36214   9.068   6.398   4.835
11991WAT     H136215   8.993   6.464   4.846
11991WAT     H236216   9.093   6.361   4.924
11992WAT      O36217   4.734   4.540   9.825
11992WAT     H136218   4.726   4.451   9.870
11992WAT     H236219   4.740   4.611   9.895
11993WAT      O36220   7.639   9.446   2.718
11993WAT     H136221   7.733   9.434   2.685
11993WAT     H236222   7.635   9.527   2.777
11994WAT      O36223   2.248   0.568   2.177
11994WAT     H136224   2.156   0.588   2.213
11994WAT     H236225   2.308   0.541   2.252
11995WAT      O36226   9.006   6.935   0.515
11995WAT     H136227   9.056   6.954   0.430
11995WAT     H236228   8.994   7.020   0.567
11996WAT      O36229   2.739   4.370   8.238
11996WAT     H136230   2.796   4.294   8.270
11996WAT     H236231   2.645   4.338   8.225
11997WAT      O36232   9.050   4.861   7.788
11997WAT     H136233   9.068   4.859   7.690
11997WAT     H236234   9.081   4.948   7.826
11998WAT      O36235   0.500   8.059   1.596
11998WAT     H136236   0.571   8.130   1.598
11998WAT     H236237   0.430   8.084   1.529
11999WAT      O36238   3.920   4.182   8.908
11999WAT     H136239   3.931   4.088   8.940
11999WAT     H236240   3.841   4.187   8.846
12000WAT      O36241   6.528   5.007   8.166
12000WAT     H136242   6.496   4.938   8.231
12000WAT     H236243   6.452   5.031   8.104
12001WAT      O36244   2.111   5.504   2.800
12001WAT     H136245   2.096   5.417   2.848
12001WAT     H236246   2.077   5.579   2.856
12002WAT      O36247   1.321   3.795   9.334
12002WAT     H136248   1.341   3.702   9.302
12002WAT     H236249   1.392   3.857   9.302
12003WAT      O36250   9.138   4.304   1.354
12003WAT     H136251   9.150   4.352   1.441
12003WAT     H236252   9.226   4.268   1.324
12004WAT      O36253   7.199   0.467   6.005
12004WAT     H136254   7.220   0.525   5.927
12004WAT     H236255   7.280   0.411   6.028
12005WAT      O36256   2.262   0.830   9.629
12005WAT     H136257   2.189   0.829   9.698
12005WAT     H236258   2.307   0.920   9.629
12006WAT      O36259   5.627   3.873   6.027
12006WAT     H136260   5.678   3.817   5.962
12006WAT     H236261   5.611   3.963   5.986
12007WAT      O36262   9.865   8.548   1.595
12007WAT     H136263   9.878   8.487   1.516
12007WAT     H236264   9.876   8.643   1.566
12008WAT      O36265   1.653   2.661   7.668
12008WAT     H136266   1.602   2.646   7.583
12008WAT     H236267   1.721   2.733   7.654
12009WAT      O36268   8.251   9.738   2.728
12009WAT     H136269   8.233   9.673   2.655
12009WAT     H236270   8.350   9.755   2.735
12010WAT      O36271   7.756   8.551   9.064
12010WAT     H136272   7.835   8.516   9.013
12010WAT     H236273   7.681   8.485   9.060
12011WAT      O36274   5.361   2.327   8.824
12011WAT     H136275   5.442   2.343   8.880
12011WAT     H236276   5.370   2.375   8.737
12012WAT      O36277   6.837   5.728   9.224
12012WAT     H136278   6.750   5.754   9.184
12012WAT     H236279   6.897   5.690   9.153
12013WAT      O36280   6.460   0.669   4.083
12013WAT     H136281   6.478   0.765   4.100
12013WAT     H236282   6.362   0.656   4.066
12014WAT      O36283   8.614   4.454   5.471
12014WAT     H136284   8.652   4.452   5.379
12014WAT     H236285   8.687   4.438   5.538
12015WAT      O36286   1.959   3.343   2.790
12015WAT     H136287   1.886   3.370   2.729
12015WAT     H236288   1.926   3.274   2.854
12016WAT      O36289   3.434   9.732   8.624
12016WAT     H136290   3.349   9.763   8.581
12016WAT     H236291   3.483   9.671   8.560
12017WAT      O36292   7.989   1.226   7.673
12017WAT     H136293   7.918   1.284   7.635
12017WAT     H236294   8.061   1.213   7.605
12018WAT      O36295   2.744   0.439   9.115
12018WAT     H136296   2.709   0.403   9.202
12018WAT     H236297   2.773   0.364   9.057
12019WAT      O36298   8.359   7.421   7.659
12019WAT     H136299   8.296   7.388   7.729
12019WAT     H236300   8.423   7.348   7.634
12020WAT      O36301   1.329   8.983   1.467
12020WAT     H136302   1.412   8.949   1.424
12020WAT     H236303   1.311   8.931   1.551
12021WAT      O36304   6.307   4.276   5.336
12021WAT     H136305   6.359   4.258   5.420
12021WAT     H236306   6.268   4.191   5.302
12022WAT      O36307   2.485   7.237   1.009
12022WAT     H136308   2.492   7.146   0.969
12022WAT     H236309   2.398   7.246   1.058
12023WAT      O36310   0.596   9.233   3.866
12023WAT     H136311   0.674   9.285   3.830
12023WAT     H236312   0.612   9.136   3.852
12024WAT      O36313   7.583   8.112   8.846
12024WAT     H136314   7.568   8.083   8.940
12024WAT     H236315   7.681   8.115   8.827
12025WAT      O36316   7.282   3.699   4.122
12025WAT     H136317   7.183   3.705   4.109
12025WAT     H236318   7.319   3.626   4.063
12026WAT      O36319   5.177   5.568   1.667
12026WAT     H136320   5.107   5.497   1.668
12026WAT     H236321   5.146   5.645   1.612
12027WAT      O36322   4.835   4.429   7.265
12027WAT     H136323   4.835   4.468   7.173
12027WAT     H236324   4.899   4.352   7.268
12028WAT      O36325   4.263   8.978   0.345
12028WAT     H136326   4.179   8.945   0.387
12028WAT     H236327   4.342   8.944   0.397
12029WAT      O36328   1.549   5.791   0.820
12029WAT     H136329   1.613   5.735   0.873
12029WAT     H236330   1.485   5.731   0.772
12030WAT      O36331   7.616   9.695   2.839
12030WAT     H136332   7.666   9.674   2.923
12030WAT     H236333   7.545   9.763   2.859
12031WAT      O36334   2.354   7.033   4.482
12031WAT     H136335   2.445   6.996   4.498
12031WAT     H236336   2.306   7.042   4.570
12032WAT      O36337   0.970   0.500   0.086
12032WAT     H136338   0.875   0.472   0.096
12032WAT     H236339   1.026   0.420   0.062
12033WAT      O36340   4.951   4.402   0.360
12033WAT     H136341   5.014   4.434   0.290
12033WAT     H236342   4.891   4.476   0.389
12034WAT      O36343   3.329   1.780   1.634
12034WAT     H136344   3.426   1.761   1.645
12034WAT     H236345   3.279   1.748   1.715
12035WAT      O36346   1.033   1.858   2.544
12035WAT     H136347   1.100   1.919   2.587
12035WAT     H236348   1.033   1.874   2.445
12036WAT      O36349   5.160   6.824   3.847
12036WAT     H136350   5.249   6.860   3.822
12036WAT     H236351   5.145   6.834   3.945
12037WAT      O36352   5.497   4.206   5.807
12037WAT     H136353   5.462   4.294   5.776
12037WAT     H236354   5.464   4.186   5.899
12038WAT      O36355   7.215   2.373   1.289
12038WAT     H136356   7.219   2.285   1.338
12038WAT     H236357   7.216   2.448   1.355
12039WAT      O36358   7.565   8.355   5.147
12039WAT     H136359   7.587   8.448   5.118
12039WAT     H236360   7.500   8.358   5.223
12040WAT      O36361   2.195   6.379   7.498
12040WAT     H136362   2.174   6.453   7.434
12040WAT     H236363   2.294   6.377   7.514
12041WAT      O36364   8.948   7.911   1.090
12041WAT     H136365   8.966   7.966   1.008
12041WAT     H236366   9.034   7.890   1.136
12042WAT      O36367   2.185   9.776   7.163
12042WAT     H136368   2.086   9.789   7.174
12042WAT     H236369   2.221   9.843   7.099
12043WAT      O36370   1.879   8.793   2.547
12043WAT     H136371   1.884   8.870   2.483
12043WAT     H236372   1.847   8.712   2.499
12044WAT      O36373   9.690   2.455   9.331
12044WAT     H136374   9.782   2.421   9.312
12044WAT     H236375   9.642   2.471   9.245
12045WAT      O36376   4.740   4.021   1.480
12045WAT     H136377   4.683   4.102   1.484
12045WAT     H236378   4.813   4.034   1.413
12046WAT      O36379   0.404   3.225   6.906
12046WAT     H136380   0.341   3.216   6.829
12046WAT     H236381   0.415   3.137   6.951
12047WAT      O36382   2.949   5.847   3.866
12047WAT     H136383   2.849   5.845   3.859
12047WAT     H236384   2.985   5.919   3.807
12048WAT      O36385   4.145   7.472   0.605
12048WAT     H136386   4.155   7.549   0.543
12048WAT     H236387   4.208   7.399   0.579
12049WAT      O36388   8.155   1.830   3.394
12049WAT     H136389   8.107   1.886   3.327
12049WAT     H236390   8.177   1.740   3.354
12050WAT      O36391   0.406   5.631   2.794
12050WAT     H136392   0.435   5.539   2.819
12050WAT     H236393   0.323   5.625   2.738
12051WAT      O36394   5.272   4.956   8.303
12051WAT     H136395   5.339   4.884   8.323
12051WAT     H236396   5.190   4.940   8.357
12052WAT      O36397   6.353   7.661   6.710
12052WAT     H136398   6.412   7.719   6.766
12052WAT     H236399   6.269   7.641   6.761
12053WAT      O36400   4.115   4.847   7.053
12053WAT     H136401   4.027   4.819   7.093
12053WAT     H236402   4.102   4.870   6.957
12054WAT      O36403   3.936   3.762   0.701
12054WAT     H136404   3.979   3.779   0.789
12054WAT     H236405   4.005   3.732   0.635
12055WAT      O36406   0.761   5.191   6.952
12055WAT     H136407   0.729   5.269   6.898
12055WAT     H236408   0.718   5.108   6.918
12056WAT      O36409   9.398   1.965   0.263
12056WAT     H136410   9.363   1.892   0.321
12056WAT     H236411   9.445   1.925   0.183
12057WAT      O36412   1.656   4.762   7.544
12057WAT     H136413   1.703   4.844   7.511
12057WAT     H236414   1.558   4.769   7.523
12058WAT      O36415   1.084   6.402   9.192
12058WAT     H136416   1.126   6.353   9.268
12058WAT     H236417   1.084   6.344   9.110
12059WAT      O36418   7.148   0.809   7.605
12059WAT     H136419   7.090   0.889   7.622
12059WAT     H236420   7.178   0.770   7.692
12060WAT      O36421   3.314   0.439   4.854
12060WAT     H136422   3.236   0.475   4.803
12060WAT     H236423   3.394   0.434   4.794
12061WAT      O36424   2.605   8.523   1.088
12061WAT     H136425   2.629   8.573   1.005
12061WAT     H236426   2.505   8.512   1.092
12062WAT      O36427   6.353   4.670   8.592
12062WAT     H136428   6.301   4.592   8.627
12062WAT     H236429   6.449   4.643   8.582
12063WAT      O36430   7.101   5.107   5.097
12063WAT     H136431   7.008   5.105   5.061
12063WAT     H236432   7.166   5.088   5.023
12064WAT      O36433   0.460   9.798   2.021
12064WAT     H136434   0.479   9.716   1.966
12064WAT     H236435   0.374   9.839   1.990
12065WAT      O36436   6.568   6.690   5.640
12065WAT     H136437   6.631   6.759   5.604
12065WAT     H236438   6.583   6.603   5.593
12066WAT      O36439   7.092   8.156   1.468
12066WAT     H136440   7.187   8.180   1.484
12066WAT     H236441   7.059   8.201   1.385
12067WAT      O36442   2.046   1.569   8.665
12067WAT     H136443   2.070   1.503   8.736
12067WAT     H236444   2.114   1.642   8.662
12068WAT      O36445   0.907   6.442   4.256
12068WAT     H136446   0.988   6.384   4.249
12068WAT     H236447   0.925   6.517   4.319
12069WAT      O36448   9.734   7.040   1.280
12069WAT     H136449   9.701   7.126   1.242
12069WAT     H236450   9.829   7.025   1.251
12070WAT      O36451   5.562   2.263   4.493
12070WAT     H136452   5.492   2.334   4.501
12070WAT     H236453   5.562   2.227   4.400
12071WAT      O36454   9.208   0.968   0.859
12071WAT     H136455   9.256   0.884   0.831
12071WAT     H236456   9.273   1.044   0.859
12072WAT      O36457   2.675   1.919   1.528
12072WAT     H136458   2.681   2.019   1.521
12072WAT     H236459   2.629   1.895   1.613
12073WAT      O36460   0.634   0.166   9.718
12073WAT     H136461   0.600   0.218   9.640
12073WAT     H236462   0.733   0.173   9.722
12074WAT      O36463   6.171   3.288   2.778
12074WAT     H136464   6.243   3.358   2.778
12074WAT     H236465   6.094   3.320   2.833
12075WAT      O36466   5.618   1.706   6.822
12075WAT     H136467   5.583   1.649   6.748
12075WAT     H236468   5.708   1.671   6.850
12076WAT      O36469   5.015   2.882   0.013
12076WAT     H136470   5.045   2.978   0.011
12076WAT     H236471   5.022   2.844  -0.079
12077WAT      O36472   4.755   2.661   4.248
12077WAT     H136473   4.704   2.579   4.273
12077WAT     H236474   4.692   2.738   4.238
12078WAT      O36475   0.978   8.684   6.740
12078WAT     H136476   1.035   8.604   6.721
12078WAT     H236477   0.932   8.713   6.656
12079WAT      O36478   1.733   0.812   5.929
12079WAT     H136479   1.830   0.797   5.910
12079WAT     H236480   1.721   0.830   6.027
12080WAT      O36481   8.782   3.158   9.286
12080WAT     H136482   8.881   3.170   9.290
12080WAT     H236483   8.755   3.088   9.353
12081WAT      O36484   9.014   7.614   5.535
12081WAT     H136485   8.986   7.562   5.616
12081WAT     H236486   9.114   7.618   5.532
12082WAT      O36487   2.342   2.113   5.981
12082WAT     H136488   2.337   2.198   5.927
12082WAT     H236489   2.312   2.036   5.925
12083WAT      O36490   3.808   3.223   3.568
12083WAT     H136491   3.774   3.182   3.653
12083WAT     H236492   3.745   3.295   3.539
12084WAT      O36493   3.129   6.302   6.169
12084WAT     H136494   3.067   6.251   6.108
12084WAT     H236495   3.156   6.244   6.245
12085WAT      O36496   3.388   1.773   8.410
12085WAT     H136497   3.337   1.688   8.398
12085WAT     H236498   3.465   1.775   8.346
12086WAT      O36499   2.507   1.452   1.398
12086WAT     H136500   2.564   1.464   1.479
12086WAT     H236501   2.559   1.406   1.326
12087WAT      O36502   5.165   0.478   8.168
12087WAT     H136503   5.129   0.572   8.165
12087WAT     H236504   5.175   0.444   8.075
12088WAT      O36505   6.429   6.659   6.073
12088WAT     H136506   6.398   6.688   6.163
12088WAT     H236507   6.464   6.738   6.022
12089WAT      O36508   9.454   4.801   3.302
12089WAT     H136509   9.539   4.749   3.311
12089WAT     H236510   9.465   4.870   3.231
12090WAT      O36511   2.607   2.669   3.914
12090WAT     H136512   2.561   2.654   3.827
12090WAT     H236513   2.541   2.662   3.988
12091WAT      O36514   1.480   4.289   5.549
12091WAT     H136515   1.500   4.356   5.478
12091WAT     H236516   1.388   4.305   5.585
12092WAT      O36517   8.724   5.178   3.707
12092WAT     H136518   8.653   5.151   3.643
12092WAT     H236519   8.724   5.278   3.716
12093WAT      O36520   4.020   7.639   7.643
12093WAT     H136521   4.068   7.555   7.666
12093WAT     H236522   4.086   7.713   7.630
12094WAT      O36523   3.330   7.997   2.340
12094WAT     H136524   3.231   7.992   2.332
12094WAT     H236525   3.357   7.970   2.432
12095WAT      O36526   3.180   5.122   1.468
12095WAT     H136527   3.097   5.121   1.412
12095WAT     H236528   3.188   5.210   1.513
12096WAT      O36529   0.633   2.533   6.017
12096WAT     H136530   0.656   2.591   6.096
12096WAT     H236531   0.610   2.441   6.049
12097WAT      O36532   2.965   8.919   7.236
12097WAT     H136533   3.001   8.944   7.145
12097WAT     H236534   2.915   8.832   7.229
12098WAT      O36535   3.496   2.688   1.889
12098WAT     H136536   3.483   2.630   1.970
12098WAT     H236537   3.421   2.754   1.884
12099WAT      O36538   0.770   5.778   6.611
12099WAT     H136539   0.717   5.720   6.550
12099WAT     H236540   0.857   5.733   6.631
12100WAT      O36541   4.034   3.147   3.046
12100WAT     H136542   3.971   3.222   3.066
12100WAT     H236543   4.128   3.179   3.058
12101WAT      O36544   3.523   9.360   8.087
12101WAT     H136545   3.455   9.290   8.066
12101WAT     H236546   3.579   9.331   8.165
12102WAT      O36547   6.752   7.654   5.744
12102WAT     H136548   6.797   7.568   5.721
12102WAT     H236549   6.818   7.715   5.789
12103WAT      O36550   1.681   9.757   5.074
12103WAT     H136551   1.600   9.813   5.092
12103WAT     H236552   1.736   9.751   5.158
12104WAT      O36553   3.547   5.939   9.654
12104WAT     H136554   3.516   5.907   9.565
12104WAT     H236555   3.601   6.023   9.642
12105WAT      O36556   2.243   7.547   0.645
12105WAT     H136557   2.223   7.570   0.741
12105WAT     H236558   2.165   7.499   0.606
12106WAT      O36559   0.904   7.845   4.519
12106WAT     H136560   0.948   7.933   4.505
12106WAT     H236561   0.805   7.856   4.512
12107WAT      O36562   4.999   5.160   6.055
12107WAT     H136563   5.056   5.213   5.992
12107WAT     H236564   5.042   5.072   6.072
12108WAT      O36565   3.085   6.936   4.811
12108WAT     H136566   3.129   6.854   4.773
12108WAT     H236567   3.139   7.017   4.787
12109WAT      O36568   0.683   3.835   7.584
12109WAT     H136569   0.585   3.828   7.602
12109WAT     H236570   0.734   3.813   7.666
12110WAT      O36571   9.289   7.931   0.576
12110WAT     H136572   9.206   7.985   0.590
12110WAT     H236573   9.310   7.881   0.660
12111WAT      O36574   4.414   2.499   7.165
12111WAT     H136575   4.479   2.496   7.241
12111WAT     H236576   4.330   2.546   7.195
12112WAT      O36577   9.817   2.390   5.334
12112WAT     H136578   9.807   2.478   5.289
12112WAT     H236579   9.782   2.317   5.275
12113WAT      O36580   6.332   2.183   1.144
12113WAT     H136581   6.359   2.088   1.129
12113WAT     H236582   6.384   2.220   1.221
12114WAT      O36583   7.657   6.222   5.222
12114WAT     H136584   7.575   6.255   5.175
12114WAT     H236585   7.707   6.301   5.259
12115WAT      O36586   3.090   6.226   8.613
12115WAT     H136587   3.167   6.182   8.567
12115WAT     H236588   3.116   6.318   8.641
12116WAT      O36589   9.465   0.766   6.577
12116WAT     H136590   9.485   0.694   6.512
12116WAT     H236591   9.544   0.827   6.585
12117WAT      O36592   4.406   3.074   4.979
12117WAT     H136593   4.394   3.165   5.018
12117WAT     H236594   4.422   3.008   5.052
12118WAT      O36595   2.754   2.277   6.403
12118WAT     H136596   2.766   2.359   6.347
12118WAT     H236597   2.741   2.304   6.499
12119WAT      O36598   6.371   8.043   1.046
12119WAT     H136599   6.328   7.969   0.995
12119WAT     H236600   6.413   8.007   1.129
12120WAT      O36601   5.025   3.510   5.925
12120WAT     H136602   5.044   3.575   5.851
12120WAT     H236603   4.960   3.550   5.989
12121WAT      O36604   0.177   8.423   3.999
12121WAT     H136605   0.173   8.516   3.962
12121WAT     H236606   0.262   8.379   3.969
12122WAT      O36607   5.458   8.969   2.406
12122WAT     H136608   5.436   8.967   2.309
12122WAT     H236609   5.391   9.025   2.454
12123WAT      O36610   2.162   5.696   8.310
12123WAT     H136611   2.091   5.766   8.296
12123WAT     H236612   2.214   5.717   8.393
12124WAT      O36613   7.532   5.286   6.296
12124WAT     H136614   7.630   5.278   6.276
12124WAT     H236615   7.480   5.279   6.211
12125WAT      O36616   9.053   3.921   4.531
12125WAT     H136617   9.108   3.994   4.489
12125WAT     H236618   8.972   3.961   4.574
12126WAT      O36619   7.426   5.771   4.381
12126WAT     H136620   7.455   5.865   4.365
12126WAT     H236621   7.416   5.755   4.479
12127WAT      O36622   5.287   4.258   1.694
12127WAT     H136623   5.280   4.351   1.731
12127WAT     H236624   5.374   4.218   1.721
12128WAT      O36625   5.525   7.480   8.395
12128WAT     H136626   5.469   7.488   8.477
12128WAT     H236627   5.498   7.399   8.343
12129WAT      O36628   6.580   6.380   3.662
12129WAT     H136629   6.519   6.315   3.616
12129WAT     H236630   6.645   6.330   3.719
12130WAT      O36631   0.869   8.989   2.665
12130WAT     H136632   0.774   8.966   2.644
12130WAT     H236633   0.877   9.088   2.679
12131WAT      O36634   2.849   1.783   5.905
12131WAT     H136635   2.887   1.697   5.870
12131WAT     H236636   2.771   1.810   5.849
12132WAT      O36637   6.725   7.953   2.032
12132WAT     H136638   6.772   7.887   2.090
12132WAT     H236639   6.635   7.917   2.007
12133WAT      O36640   9.411   4.771   9.402
12133WAT     H136641   9.458   4.741   9.319
12133WAT     H236642   9.352   4.698   9.436
12134WAT      O36643   6.530   1.711   4.305
12134WAT     H136644   6.523   1.806   4.273
12134WAT     H236645   6.594   1.661   4.247
12135WAT      O36646   8.284   2.786   3.345
12135WAT     H136647   8.358   2.719   3.338
12135WAT     H236648   8.305   2.865   3.288
12136WAT      O36649   7.402   2.048   0.396
12136WAT     H136650   7.449   1.985   0.458
12136WAT     H236651   7.466   2.116   0.363
12137WAT      O36652   2.083   8.079   2.171
12137WAT     H136653   2.039   8.162   2.206
12137WAT     H236654   2.039   7.999   2.212
12138WAT      O36655   4.209   2.803   5.457
12138WAT     H136656   4.179   2.816   5.363
12138WAT     H236657   4.300   2.843   5.470
12139WAT      O36658   4.786   2.961   6.540
12139WAT     H136659   4.818   2.904   6.615
12139WAT     H236660   4.862   2.981   6.478
12140WAT      O36661   2.969   1.029   7.950
12140WAT     H136662   2.978   1.107   7.888
12140WAT     H236663   2.887   0.977   7.925
12141WAT      O36664   1.922   2.675   1.703
12141WAT     H136665   2.016   2.658   1.676
12141WAT     H236666   1.879   2.590   1.732
12142WAT      O36667   4.570   7.551   2.347
12142WAT     H136668   4.570   7.452   2.358
12142WAT     H236669   4.535   7.575   2.257
12143WAT      O36670   1.060   3.550   7.590
12143WAT     H136671   0.963   3.573   7.586
12143WAT     H236672   1.105   3.578   7.506
12144WAT      O36673   7.739   2.116   2.247
12144WAT     H136674   7.735   2.161   2.337
12144WAT     H236675   7.737   2.186   2.175
12145WAT      O36676   8.367   1.710   2.169
12145WAT     H136677   8.293   1.718   2.235
12145WAT     H236678   8.382   1.798   2.124
12146WAT      O36679   5.218   5.741   3.466
12146WAT     H136680   5.303   5.739   3.519
12146WAT     H236681   5.158   5.812   3.503
12147WAT      O36682   4.651   3.362   2.398
12147WAT     H136683   4.671   3.382   2.493
12147WAT     H236684   4.605   3.273   2.391
12148WAT      O36685   2.802   8.058   8.415
12148WAT     H136686   2.769   7.967   8.393
12148WAT     H236687   2.727   8.115   8.449
12149WAT      O36688   8.010   9.804   5.978
12149WAT     H136689   7.947   9.767   6.045
12149WAT     H236690   8.001   9.904   5.975
12150WAT      O36691   9.706   6.891   3.558
12150WAT     H136692   9.694   6.989   3.541
12150WAT     H236693   9.623   6.854   3.599
12151WAT      O36694   5.695   4.973   6.957
12151WAT     H136695   5.655   4.905   7.019
12151WAT     H236696   5.794   4.958   6.951
12152WAT      O36697   8.975   3.677   9.161
12152WAT     H136698   8.991   3.614   9.237
12152WAT     H236699   8.945   3.766   9.197
12153WAT      O36700   0.346   6.375   3.695
12153WAT     H136701   0.296   6.341   3.616
12153WAT     H236702   0.439   6.399   3.669
12154WAT      O36703   0.498   6.966   1.764
12154WAT     H136704   0.398   6.963   1.768
12154WAT     H236705   0.530   6.902   1.694
12155WAT      O36706   1.325   7.342   0.088
12155WAT     H136707   1.390   7.297   0.149
12155WAT     H236708   1.328   7.298  -0.002
12156WAT      O36709   5.525   9.172   9.697
12156WAT     H136710   5.434   9.136   9.716
12156WAT     H236711   5.520   9.271   9.681
12157WAT      O36712   5.435   8.741   8.304
12157WAT     H136713   5.387   8.741   8.216
12157WAT     H236714   5.531   8.716   8.289
12158WAT      O36715   4.394   6.929   4.820
12158WAT     H136716   4.482   6.951   4.862
12158WAT     H236717   4.321   6.949   4.886
12159WAT      O36718   2.652   5.938   4.518
12159WAT     H136719   2.581   5.972   4.580
12159WAT     H236720   2.636   5.841   4.499
12160WAT      O36721   9.619   4.334   8.035
12160WAT     H136722   9.708   4.320   8.079
12160WAT     H236723   9.572   4.411   8.078
12161WAT      O36724   0.900   9.510   6.137
12161WAT     H136725   0.897   9.605   6.106
12161WAT     H236726   0.935   9.452   6.064
12162WAT      O36727   2.702   7.836   9.770
12162WAT     H136728   2.699   7.736   9.776
12162WAT     H236729   2.747   7.873   9.851
12163WAT      O36730   0.812   5.991   0.708
12163WAT     H136731   0.734   6.011   0.768
12163WAT     H236732   0.875   6.069   0.709
12164WAT      O36733   5.721   4.503   5.795
12164WAT     H136734   5.782   4.553   5.857
12164WAT     H236735   5.750   4.408   5.788
12165WAT      O36736   8.147   7.645   9.728
12165WAT     H136737   8.218   7.616   9.792
12165WAT     H236738   8.084   7.568   9.711
12166WAT      O36739   2.584   2.285   3.973
12166WAT     H136740   2.595   2.359   4.039
12166WAT     H236741   2.601   2.198   4.018
12167WAT      O36742   9.849   5.986   7.319
12167WAT     H136743   9.860   5.894   7.281
12167WAT     H236744   9.939   6.026   7.337
12168WAT      O36745   8.450   8.678   5.076
12168WAT     H136746   8.476   8.582   5.081
12168WAT     H236747   8.368   8.693   5.131
12169WAT      O36748   4.345   6.729   3.360
12169WAT     H136749   4.349   6.760   3.455
12169WAT     H236750   4.429   6.754   3.313
12170WAT      O36751   9.301   5.647   8.544
12170WAT     H136752   9.203   5.642   8.561
12170WAT     H236753   9.350   5.612   8.624
12171WAT      O36754   2.195   3.942   9.416
12171WAT     H136755   2.232   3.971   9.504
12171WAT     H236756   2.130   4.011   9.382
12172WAT      O36757   4.901   4.157   8.017
12172WAT     H136758   4.907   4.254   8.041
12172WAT     H236759   4.819   4.118   8.059
12173WAT      O36760   7.391   9.795   8.683
12173WAT     H136761   7.469   9.855   8.670
12173WAT     H236762   7.309   9.838   8.646
12174WAT      O36763   2.795   2.052   3.698
12174WAT     H136764   2.781   2.006   3.786
12174WAT     H236765   2.881   2.021   3.658
12175WAT      O36766   3.298   4.792   8.018
12175WAT     H136767   3.361   4.818   7.945
12175WAT     H236768   3.273   4.874   8.071
12176WAT      O36769   8.280   9.659   8.627
12176WAT     H136770   8.265   9.654   8.528
12176WAT     H236771   8.297   9.754   8.653
12177WAT      O36772   9.174   9.288   4.555
12177WAT     H136773   9.239   9.213   4.560
12177WAT     H236774   9.213   9.370   4.598
12178WAT      O36775   5.235  -0.000   6.146
12178WAT     H136776   5.295   0.025   6.071
12178WAT     H236777   5.140   0.022   6.122
12179WAT      O36778   7.022   5.701   0.917
12179WAT     H136779   7.108   5.703   0.866
12179WAT     H236780   7.023   5.772   0.987
12180WAT      O36781   6.607   9.043   2.860
12180WAT     H136782   6.636   9.133   2.893
12180WAT     H236783   6.549   9.000   2.930
12181WAT      O36784   4.205   0.876   8.831
12181WAT     H136785   4.252   0.866   8.744
12181WAT     H236786   4.245   0.953   8.882
12182WAT      O36787   8.981   2.889   4.520
12182WAT     H136788   8.981   2.981   4.480
12182WAT     H236789   8.918   2.887   4.598
12183WAT      O36790   0.433   1.276   5.938
12183WAT     H136791   0.514   1.217   5.939
12183WAT     H236792   0.351   1.221   5.925
12184WAT      O36793   9.653   1.882   0.106
12184WAT     H136794   9.745   1.873   0.070
12184WAT     H236795   9.596   1.933   0.041
12185WAT      O36796   7.739   1.252   8.624
12185WAT     H136797   7.664   1.245   8.559
12185WAT     H236798   7.730   1.337   8.676
12186WAT      O36799   3.344   8.527   8.071
12186WAT     H136800   3.277   8.489   8.007
12186WAT     H236801   3.420   8.566   8.020
12187WAT      O36802   4.688   0.291   6.451
12187WAT     H136803   4.751   0.334   6.386
12187WAT     H236804   4.738   0.227   6.509
12188WAT      O36805   7.592   3.830   1.976
12188WAT     H136806   7.627   3.760   1.914
12188WAT     H236807   7.623   3.811   2.069
12189WAT      O36808   9.386   3.835   0.261
12189WAT     H136809   9.361   3.776   0.184
12189WAT     H236810   9.484   3.855   0.258
12190WAT      O36811   2.081   6.506   4.805
12190WAT     H136812   2.137   6.589   4.795
12190WAT     H236813   2.038   6.505   4.895
12191WAT      O36814   0.694   2.717   1.755
12191WAT     H136815   0.736   2.795   1.802
12191WAT     H236816   0.639   2.665   1.820
12192WAT      O36817   1.115   1.054   6.212
12192WAT     H136818   1.194   1.046   6.150
12192WAT     H236819   1.147   1.078   6.303
12193WAT      O36820   7.677   7.075   0.393
12193WAT     H136821   7.641   7.010   0.460
12193WAT     H236822   7.616   7.153   0.386
12194WAT      O36823   4.982   3.447   6.238
12194WAT     H136824   5.077   3.424   6.217
12194WAT     H236825   4.943   3.376   6.297
12195WAT      O36826   7.659   4.917   2.095
12195WAT     H136827   7.708   4.934   2.009
12195WAT     H236828   7.711   4.851   2.150
12196WAT      O36829   0.654   8.158   3.629
12196WAT     H136830   0.646   8.202   3.539
12196WAT     H236831   0.653   8.059   3.618
12197WAT      O36832   8.510   0.820   7.958
12197WAT     H136833   8.471   0.805   7.867
12197WAT     H236834   8.459   0.892   8.005
12198WAT      O36835   1.415   9.336   9.016
12198WAT     H136836   1.396   9.424   8.972
12198WAT     H236837   1.475   9.350   9.094
12199WAT      O36838   3.377   6.721   3.223
12199WAT     H136839   3.280   6.741   3.233
12199WAT     H236840   3.426   6.804   3.196
12200WAT      O36841   6.021   0.616   9.486
12200WAT     H136842   6.121   0.620   9.497
12200WAT     H236843   5.980   0.698   9.524
12201WAT      O36844   8.936   0.647   0.158
12201WAT     H136845   8.904   0.558   0.127
12201WAT     H236846   8.916   0.716   0.088
12202WAT      O36847   6.543   9.821   0.603
12202WAT     H136848   6.527   9.764   0.684
12202WAT     H236849   6.495   9.908   0.614
12203WAT      O36850   6.212   0.086   9.158
12203WAT     H136851   6.249   0.084   9.065
12203WAT     H236852   6.112   0.082   9.154
12204WAT      O36853   1.674   4.635   8.517
12204WAT     H136854   1.637   4.589   8.598
12204WAT     H236855   1.687   4.568   8.444
12205WAT      O36856   6.727   8.891   3.309
12205WAT     H136857   6.755   8.913   3.216
12205WAT     H236858   6.635   8.926   3.325
12206WAT      O36859   8.879   0.171   6.092
12206WAT     H136860   8.904   0.167   5.996
12206WAT     H236861   8.927   0.099   6.143
12207WAT      O36862   2.892   2.713   9.213
12207WAT     H136863   2.992   2.713   9.211
12207WAT     H236864   2.861   2.693   9.306
12208WAT      O36865   3.815   7.786   3.119
12208WAT     H136866   3.745   7.745   3.061
12208WAT     H236867   3.897   7.805   3.065
12209WAT      O36868   9.450   8.008   4.425
12209WAT     H136869   9.370   7.948   4.437
12209WAT     H236870   9.512   7.997   4.503
12210WAT      O36871   1.358   0.012   7.002
12210WAT     H136872   1.282   0.066   7.038
12210WAT     H236873   1.368   0.031   6.904
12211WAT      O36874   0.121   2.089   9.407
12211WAT     H136875   0.043   2.028   9.391
12211WAT     H236876   0.196   2.064   9.346
12212WAT      O36877   5.216   0.614   9.706
12212WAT     H136878   5.295   0.676   9.708
12212WAT     H236879   5.205   0.572   9.796
12213WAT      O36880   6.465   7.955   1.661
12213WAT     H136881   6.520   7.871   1.666
12213WAT     H236882   6.387   7.948   1.722
12214WAT      O36883   4.805   6.555   4.957
12214WAT     H136884   4.752   6.471   4.970
12214WAT     H236885   4.900   6.537   4.983
12215WAT      O36886   0.939   8.814   9.177
12215WAT     H136887   0.998   8.892   9.194
12215WAT     H236888   0.977   8.758   9.104
12216WAT      O36889   7.809   9.457   4.453
12216WAT     H136890   7.863   9.375   4.471
12216WAT     H236891   7.868   9.530   4.418
12217WAT      O36892   5.638   5.067   1.873
12217WAT     H136893   5.729   5.066   1.913
12217WAT     H236894   5.612   5.161   1.853
12218WAT      O36895   4.674   5.540   7.843
12218WAT     H136896   4.772   5.559   7.841
12218WAT     H236897   4.638   5.543   7.750
12219WAT      O36898   7.257   4.656   8.868
12219WAT     H136899   7.227   4.579   8.926
12219WAT     H236900   7.280   4.733   8.926
12220WAT      O36901   3.499   2.789   4.667
12220WAT     H136902   3.581   2.761   4.716
12220WAT     H236903   3.425   2.723   4.684
12221WAT      O36904   8.581   3.893   1.882
12221WAT     H136905   8.574   3.851   1.792
12221WAT     H236906   8.657   3.958   1.883
12222WAT      O36907   8.040   8.185   5.159
12222WAT     H136908   8.046   8.141   5.249
12222WAT     H236909   8.109   8.146   5.098
12223WAT      O36910   9.073   1.366   5.962
12223WAT     H136911   9.023   1.362   5.876
12223WAT     H236912   9.095   1.274   5.993
12224WAT      O36913   3.872   8.271   0.930
12224WAT     H136914   3.950   8.289   0.990
12224WAT     H236915   3.874   8.176   0.899
12225WAT      O36916   0.347   7.450   5.959
12225WAT     H136917   0.357   7.391   5.879
12225WAT     H236918   0.438   7.472   5.995
12226WAT      O36919   0.946   1.288   4.062
12226WAT     H136920   0.891   1.233   3.999
12226WAT     H236921   0.906   1.284   4.154
12227WAT      O36922   0.639   0.007   9.393
12227WAT     H136923   0.657   0.105   9.393
12227WAT     H236924   0.725  -0.044   9.383
12228WAT      O36925   7.490   4.088   4.368
12228WAT     H136926   7.417   4.118   4.429
12228WAT     H236927   7.522   3.997   4.396
12229WAT      O36928   8.784   8.207   4.273
12229WAT     H136929   8.756   8.112   4.259
12229WAT     H236930   8.878   8.218   4.242
12230WAT      O36931   5.514   2.664   2.196
12230WAT     H136932   5.419   2.683   2.173
12230WAT     H236933   5.555   2.608   2.123
12231WAT      O36934   5.077   4.778   6.498
12231WAT     H136935   5.010   4.767   6.425
12231WAT     H236936   5.051   4.721   6.576
12232WAT      O36937   8.237   7.671   7.552
12232WAT     H136938   8.287   7.585   7.548
12232WAT     H236939   8.204   7.695   7.460
12233WAT      O36940   6.457   8.762   8.290
12233WAT     H136941   6.450   8.777   8.388
12233WAT     H236942   6.549   8.730   8.268
12234WAT      O36943   2.615   4.960   2.188
12234WAT     H136944   2.593   5.057   2.191
12234WAT     H236945   2.586   4.922   2.100
12235WAT      O36946   0.934   9.465   3.411
12235WAT     H136947   0.957   9.374   3.444
12235WAT     H236948   0.926   9.528   3.488
12236WAT      O36949   5.225   3.365   6.211
12236WAT     H136950   5.193   3.274   6.236
12236WAT     H236951   5.316   3.359   6.172
12237WAT      O36952   5.088   4.770   2.841
12237WAT     H136953   5.157   4.836   2.808
12237WAT     H236954   5.103   4.752   2.938
12238WAT      O36955   8.906   9.049   7.193
12238WAT     H136956   8.966   8.983   7.238
12238WAT     H236957   8.908   9.135   7.244
12239WAT      O36958   6.612   1.130   2.538
12239WAT     H136959   6.555   1.136   2.456
12239WAT     H236960   6.564   1.078   2.608
12240WAT      O36961   6.864   2.702   9.739
12240WAT     H136962   6.831   2.660   9.823
12240WAT     H236963   6.821   2.792   9.728
12241WAT      O36964   5.803   9.701   9.043
12241WAT     H136965   5.710   9.694   9.007
12241WAT     H236966   5.846   9.611   9.040
12242WAT      O36967   7.034   2.466   0.363
12242WAT     H136968   7.043   2.413   0.279
12242WAT     H236969   6.956   2.432   0.415
12243WAT      O36970   7.713   3.226   6.064
12243WAT     H136971   7.685   3.319   6.087
12243WAT     H236972   7.808   3.226   6.032
12244WAT      O36973   6.902   7.611   4.760
12244WAT     H136974   6.995   7.587   4.789
12244WAT     H236975   6.896   7.709   4.745
12245WAT      O36976   5.502   3.181   2.083
12245WAT     H136977   5.510   3.249   2.010
12245WAT     H236978   5.410   3.186   2.122
12246WAT      O36979   3.339   8.585   4.618
12246WAT     H136980   3.253   8.613   4.661
12246WAT     H236981   3.416   8.613   4.676
12247WAT      O36982   7.039   7.071   1.737
12247WAT     H136983   7.047   7.168   1.715
12247WAT     H236984   7.066   7.055   1.832
12248WAT      O36985   0.892   6.580   1.442
12248WAT     H136986   0.809   6.595   1.388
12248WAT     H236987   0.867   6.553   1.535
12249WAT      O36988   1.865   5.761   9.853
12249WAT     H136989   1.790   5.696   9.865
12249WAT     H236990   1.893   5.763   9.758
12250WAT      O36991   0.844   9.431   3.153
12250WAT     H136992   0.922   9.445   3.092
12250WAT     H236993   0.873   9.444   3.247
12251WAT      O36994   3.079   4.623   2.870
12251WAT     H136995   3.083   4.722   2.886
12251WAT     H236996   3.165   4.581   2.900
12252WAT      O36997   9.883   0.511   8.789
12252WAT     H136998   9.949   0.585   8.803
12252WAT     H236999   9.884   0.450   8.868
12253WAT      O37000   5.348   1.810   6.402
12253WAT     H137001   5.411   1.845   6.333
12253WAT     H237002   5.379   1.839   6.493
12254WAT      O37003   5.615   4.930   3.027
12254WAT     H137004   5.585   4.984   2.948
12254WAT     H237005   5.624   4.989   3.107
12255WAT      O37006   0.551   7.548   4.817
12255WAT     H137007   0.527   7.455   4.847
12255WAT     H237008   0.513   7.614   4.881
12256WAT      O37009   5.116   5.002   9.654
12256WAT     H137010   5.074   4.992   9.564
12256WAT     H237011   5.206   5.047   9.643
12257WAT      O37012   0.220   4.929   6.192
12257WAT     H137013   0.320   4.933   6.197
12257WAT     H237014   0.181   4.942   6.283
12258WAT      O37015   9.737   2.546   1.001
12258WAT     H137016   9.710   2.599   1.082
12258WAT     H237017   9.665   2.481   0.978
12259WAT      O37018   9.250   0.675   0.090
12259WAT     H137019   9.267   0.677  -0.008
12259WAT     H237020   9.170   0.618   0.110
12260WAT      O37021   6.396   5.700   3.366
12260WAT     H137022   6.300   5.702   3.396
12260WAT     H237023   6.431   5.607   3.376
12261WAT      O37024   7.819   7.007   6.659
12261WAT     H137025   7.899   7.058   6.628
12261WAT     H237026   7.762   6.982   6.581
12262WAT      O37027   2.576   5.704   8.108
12262WAT     H137028   2.649   5.652   8.063
12262WAT     H237029   2.580   5.799   8.078
12263WAT      O37030   9.150   2.670   7.885
12263WAT     H137031   9.109   2.673   7.976
12263WAT     H237032   9.182   2.761   7.859
12264WAT      O37033   8.169   3.956   3.975
12264WAT     H137034   8.157   3.993   4.068
12264WAT     H237035   8.265   3.965   3.948
12265WAT      O37036   1.737   5.650   0.967
12265WAT     H137037   1.785   5.586   0.907
12265WAT     H237038   1.681   5.600   1.032
12266WAT      O37039   9.678   1.249   1.798
12266WAT     H137040   9.743   1.314   1.837
12266WAT     H237041   9.729   1.170   1.763
12267WAT      O37042   4.587   7.175   5.185
12267WAT     H137043   4.551   7.117   5.112
12267WAT     H237044   4.654   7.123   5.238
12268WAT      O37045   2.300   7.564   4.414
12268WAT     H137046   2.309   7.632   4.342
12268WAT     H237047   2.206   7.528   4.415
12269WAT      O37048   7.075   7.263   1.542
12269WAT     H137049   6.984   7.305   1.540
12269WAT     H237050   7.066   7.164   1.526
12270WAT      O37051   6.576   5.113   6.118
12270WAT     H137052   6.611   5.067   6.037
12270WAT     H237053   6.650   5.128   6.184
12271WAT      O37054   2.053   4.899   9.656
12271WAT     H137055   1.959   4.884   9.625
12271WAT     H237056   2.104   4.950   9.587
12272WAT      O37057   6.291   6.700   3.112
12272WAT     H137058   6.335   6.781   3.073
12272WAT     H237059   6.237   6.654   3.040
12273WAT      O37060   1.462   7.605   1.517
12273WAT     H137061   1.422   7.674   1.456
12273WAT     H237062   1.559   7.594   1.495
12274WAT      O37063   1.481   0.836   3.944
12274WAT     H137064   1.551   0.791   3.889
12274WAT     H237065   1.525   0.893   4.013
12275WAT      O37066   1.359   7.419   9.004
12275WAT     H137067   1.294   7.403   9.077
12275WAT     H237068   1.316   7.472   8.931
12276WAT      O37069   2.633   0.991   9.300
12276WAT     H137070   2.576   0.909   9.302
12276WAT     H237071   2.684   0.994   9.215
12277WAT      O37072   4.938   6.317   0.991
12277WAT     H137073   5.014   6.317   1.056
12277WAT     H237074   4.937   6.231   0.941
12278WAT      O37075   8.703   5.783   1.691
12278WAT     H137076   8.650   5.698   1.692
12278WAT     H237077   8.778   5.776   1.757
12279WAT      O37078   6.201   3.854   0.486
12279WAT     H137079   6.129   3.788   0.465
12279WAT     H237080   6.160   3.937   0.523
12280WAT      O37081   1.232   7.445   1.453
12280WAT     H137082   1.217   7.403   1.364
12280WAT     H237083   1.326   7.478   1.460
12281WAT      O37084   4.120   2.409   5.689
12281WAT     H137085   4.070   2.393   5.774
12281WAT     H237086   4.173   2.494   5.697
12282WAT      O37087   1.904   0.661   9.633
12282WAT     H137088   1.983   0.708   9.595
12282WAT     H237089   1.829   0.664   9.567
12283WAT      O37090   3.041   1.538   8.155
12283WAT     H137091   3.094   1.583   8.226
12283WAT     H237092   2.996   1.457   8.194
12284WAT      O37093   1.854   2.470   0.007
12284WAT     H137094   1.901   2.383   0.025
12284WAT     H237095   1.901   2.544   0.056
12285WAT      O37096   7.659   0.376   9.638
12285WAT     H137097   7.753   0.343   9.642
12285WAT     H237098   7.653   0.451   9.572
12286WAT      O37099   2.530   2.087   9.289
12286WAT     H137100   2.628   2.067   9.278
12286WAT     H237101   2.504   2.161   9.227
12287WAT      O37102   9.328   8.921   1.714
12287WAT     H137103   9.262   8.899   1.786
12287WAT     H237104   9.328   9.020   1.699
12288WAT      O37105   3.146   5.941   8.222
12288WAT     H137106   3.146   5.857   8.277
12288WAT     H237107   3.062   5.992   8.239
12289WAT      O37108   6.706   1.163   4.950
12289WAT     H137109   6.629   1.209   4.907
12289WAT     H237110   6.791   1.208   4.922
12290WAT      O37111   3.822   8.706   1.056
12290WAT     H137112   3.784   8.657   1.135
12290WAT     H237113   3.913   8.669   1.035
12291WAT      O37114   8.460   5.222   4.305
12291WAT     H137115   8.423   5.161   4.235
12291WAT     H237116   8.511   5.168   4.372
12292WAT      O37117   5.827   3.341   8.922
12292WAT     H137118   5.814   3.284   8.841
12292WAT     H237119   5.847   3.283   9.001
12293WAT      O37120   9.216   5.990   0.593
12293WAT     H137121   9.178   5.900   0.615
12293WAT     H237122   9.300   5.978   0.539
12294WAT      O37123   3.926   9.167   6.133
12294WAT     H137124   3.893   9.223   6.210
12294WAT     H237125   3.851   9.151   6.069
12295WAT      O37126   9.365   9.557   0.470
12295WAT     H137127   9.431   9.565   0.544
12295WAT     H237128   9.287   9.503   0.500
12296WAT      O37129   0.593   4.567   6.723
12296WAT     H137130   0.647   4.626   6.664
12296WAT     H237131   0.571   4.482   6.675
12297WAT      O37132   7.969   7.233   3.022
12297WAT     H137133   7.980   7.143   2.980
12297WAT     H237134   7.925   7.223   3.111
12298WAT      O37135   8.249   6.409   3.646
12298WAT     H137136   8.186   6.410   3.724
12298WAT     H237137   8.343   6.423   3.679
12299WAT      O37138   2.905   3.874   6.196
12299WAT     H137139   2.909   3.793   6.255
12299WAT     H237140   2.814   3.916   6.203
12300WAT      O37141   3.357   3.325   9.119
12300WAT     H137142   3.279   3.303   9.178
12300WAT     H237143   3.372   3.251   9.054
12301WAT      O37144   5.903   1.714   9.352
12301WAT     H137145   5.812   1.705   9.393
12301WAT     H237146   5.915   1.643   9.282
12302WAT      O37147   9.728   5.308   5.705
12302WAT     H137148   9.808   5.354   5.746
12302WAT     H237149   9.760   5.235   5.645
12303WAT      O37150   3.155   0.988   7.505
12303WAT     H137151   3.188   1.082   7.513
12303WAT     H237152   3.098   0.980   7.424
12304WAT      O37153   1.449   5.586   3.018
12304WAT     H137154   1.469   5.488   3.015
12304WAT     H237155   1.482   5.630   2.934
12305WAT      O37156   3.135   1.718   1.459
12305WAT     H137157   3.220   1.740   1.506
12305WAT     H237158   3.126   1.777   1.378
12306WAT      O37159   5.058   8.667   3.686
12306WAT     H137160   5.143   8.708   3.653
12306WAT     H237161   4.981   8.709   3.640
12307WAT      O37162   7.610   5.374   2.424
12307WAT     H137163   7.554   5.447   2.383
12307WAT     H237164   7.706   5.399   2.419
12308WAT      O37165   3.764   7.398   5.536
12308WAT     H137166   3.835   7.457   5.574
12308WAT     H237167   3.695   7.379   5.606
12309WAT      O37168   2.656   8.471   8.830
12309WAT     H137169   2.588   8.506   8.766
12309WAT     H237170   2.700   8.548   8.878
12310WAT      O37171   2.632   0.949   3.366
12310WAT     H137172   2.574   0.992   3.435
12310WAT     H237173   2.695   0.885   3.412
12311WAT      O37174   4.617   9.574   2.124
12311WAT     H137175   4.570   9.498   2.081
12311WAT     H237176   4.577   9.590   2.215
12312WAT      O37177   6.417   6.858   3.609
12312WAT     H137178   6.441   6.780   3.667
12312WAT     H237179   6.498   6.916   3.597
12313WAT      O37180   4.151   0.942   9.134
12313WAT     H137181   4.071   0.909   9.083
12313WAT     H237182   4.121   0.994   9.213
12314WAT      O37183   6.146   7.216   6.913
12314WAT     H137184   6.183   7.285   6.975
12314WAT     H237185   6.047   7.229   6.903
12315WAT      O37186   5.836   5.777   7.181
12315WAT     H137187   5.848   5.874   7.200
12315WAT     H237188   5.743   5.750   7.207
12316WAT      O37189   8.592   7.622   7.430
12316WAT     H137190   8.576   7.605   7.528
12316WAT     H237191   8.540   7.703   7.402
12317WAT      O37192   3.525   7.565   0.269
12317WAT     H137193   3.553   7.547   0.175
12317WAT     H237194   3.528   7.664   0.286
12318WAT      O37195   9.252   5.627   5.744
12318WAT     H137196   9.164   5.657   5.782
12318WAT     H237197   9.236   5.556   5.675
12319WAT      O37198   2.430   5.139   8.658
12319WAT     H137199   2.428   5.129   8.758
12319WAT     H237200   2.349   5.188   8.628
12320WAT      O37201   2.935   4.244   1.338
12320WAT     H137202   2.903   4.152   1.360
12320WAT     H237203   3.018   4.237   1.282
12321WAT      O37204   8.445   1.782   0.196
12321WAT     H137205   8.527   1.769   0.140
12321WAT     H237206   8.364   1.783   0.137
12322WAT      O37207   7.885   4.419   9.105
12322WAT     H137208   7.838   4.483   9.044
12322WAT     H237209   7.984   4.434   9.097
12323WAT      O37210   5.129   8.894   1.781
12323WAT     H137211   5.096   8.881   1.875
12323WAT     H237212   5.053   8.880   1.717
12324WAT      O37213   0.393   7.554   6.720
12324WAT     H137214   0.426   7.473   6.673
12324WAT     H237215   0.442   7.565   6.807
12325WAT      O37216   0.913   0.985   4.084
12325WAT     H137217   0.940   0.962   4.178
12325WAT     H237218   0.978   0.943   4.020
12326WAT      O37219   1.121   4.964   9.606
12326WAT     H137220   1.094   4.916   9.523
12326WAT     H237221   1.099   5.061   9.596
12327WAT      O37222   2.889   6.413   0.311
12327WAT     H137223   2.892   6.488   0.379
12327WAT     H237224   2.907   6.451   0.220
12328WAT      O37225   4.479   4.134   7.941
12328WAT     H137226   4.397   4.090   7.906
12328WAT     H237227   4.495   4.220   7.892
12329WAT      O37228   9.349   6.980   3.817
12329WAT     H137229   9.413   6.903   3.816
12329WAT     H237230   9.308   6.990   3.726
12330WAT      O37231   5.424   6.023   4.116
12330WAT     H137232   5.420   6.064   4.025
12330WAT     H237233   5.369   5.939   4.118
12331WAT      O37234   5.196   8.726   0.289
12331WAT     H137235   5.202   8.718   0.190
12331WAT     H237236   5.220   8.820   0.316
12332WAT      O37237   5.296   3.636   7.593
12332WAT     H137238   5.308   3.717   7.535
12332WAT     H237239   5.199   3.617   7.603
12333WAT      O37240   2.987   7.344   6.753
12333WAT     H137241   3.052   7.314   6.822
12333WAT     H237242   2.929   7.267   6.726
12334WAT      O37243   6.681   7.247   7.232
12334WAT     H137244   6.686   7.311   7.155
12334WAT     H237245   6.774   7.228   7.265
12335WAT      O37246   3.333   7.652   3.444
12335WAT     H137247   3.288   7.577   3.397
12335WAT     H237248   3.386   7.706   3.379
12336WAT      O37249   2.281   2.793   5.231
12336WAT     H137250   2.293   2.765   5.326
12336WAT     H237251   2.284   2.893   5.225
12337WAT      O37252   4.586   0.234   7.369
12337WAT     H137253   4.624   0.143   7.352
12337WAT     H237254   4.490   0.236   7.339
12338WAT      O37255   6.566   7.459   8.946
12338WAT     H137256   6.563   7.546   8.898
12338WAT     H237257   6.487   7.404   8.922
12339WAT      O37258   0.580   0.472   1.846
12339WAT     H137259   0.525   0.397   1.809
12339WAT     H237260   0.638   0.436   1.920
12340WAT      O37261   1.006   8.842   4.075
12340WAT     H137262   1.047   8.755   4.046
12340WAT     H237263   0.950   8.878   4.001
12341WAT      O37264   0.788   7.029   1.990
12341WAT     H137265   0.715   6.961   1.998
12341WAT     H237266   0.752   7.119   2.011
12342WAT      O37267   3.049   3.936   2.772
12342WAT     H137268   3.059   4.033   2.750
12342WAT     H237269   3.026   3.885   2.688
12343WAT      O37270   4.183   5.421   6.663
12343WAT     H137271   4.089   5.417   6.697
12343WAT     H237272   4.184   5.467   6.574
12344WAT      O37273   0.686   9.113   5.843
12344WAT     H137274   0.713   9.070   5.929
12344WAT     H237275   0.667   9.209   5.858
12345WAT      O37276   4.527   8.877   7.889
12345WAT     H137277   4.443   8.928   7.875
12345WAT     H237278   4.521   8.788   7.844
12346WAT      O37279   5.341   1.996   5.107
12346WAT     H137280   5.246   2.002   5.076
12346WAT     H237281   5.402   1.996   5.028
12347WAT      O37282   7.615   1.651   7.599
12347WAT     H137283   7.539   1.586   7.605
12347WAT     H237284   7.656   1.646   7.508
12348WAT      O37285   3.806   2.270   1.698
12348WAT     H137286   3.879   2.331   1.665
12348WAT     H237287   3.732   2.268   1.631
12349WAT      O37288   2.569   9.265   0.669
12349WAT     H137289   2.660   9.279   0.630
12349WAT     H237290   2.567   9.303   0.762
12350WAT      O37291   9.747   3.138   4.535
12350WAT     H137292   9.817   3.086   4.486
12350WAT     H237293   9.791   3.190   4.609
12351WAT      O37294   0.230   5.000   7.208
12351WAT     H137295   0.267   5.078   7.158
12351WAT     H237296   0.256   4.915   7.162
12352WAT      O37297   6.348   8.616   0.274
12352WAT     H137298   6.253   8.606   0.244
12352WAT     H237299   6.401   8.664   0.204
12353WAT      O37300   6.631   4.912   3.568
12353WAT     H137301   6.721   4.923   3.525
12353WAT     H237302   6.641   4.921   3.668
12354WAT      O37303   0.721   2.353   3.515
12354WAT     H137304   0.634   2.401   3.521
12354WAT     H237305   0.795   2.419   3.502
12355WAT      O37306   6.974   6.165   4.351
12355WAT     H137307   6.922   6.171   4.436
12355WAT     H237308   7.071   6.180   4.371
12356WAT      O37309   8.087   4.888   2.627
12356WAT     H137310   8.095   4.942   2.711
12356WAT     H237311   8.119   4.941   2.549
12357WAT      O37312   4.401   3.959   0.019
12357WAT     H137313   4.370   4.024  -0.050
12357WAT     H237314   4.422   3.872  -0.026
12358WAT      O37315   7.660   3.074   8.270
12358WAT     H137316   7.625   3.032   8.186
12358WAT     H237317   7.689   3.002   8.333
12359WAT      O37318   6.821   0.874   1.917
12359WAT     H137319   6.915   0.839   1.909
12359WAT     H237320   6.757   0.797   1.916
12360WAT      O37321   5.719   1.002   6.988
12360WAT     H137322   5.799   1.021   6.930
12360WAT     H237323   5.674   1.088   7.011
12361WAT      O37324   9.149   2.866   6.907
12361WAT     H137325   9.220   2.796   6.897
12361WAT     H237326   9.086   2.860   6.830
12362WAT      O37327   2.525   0.111   9.070
12362WAT     H137328   2.455   0.182   9.078
12362WAT     H237329   2.516   0.065   8.982
12363WAT      O37330   6.432   2.978   6.912
12363WAT     H137331   6.411   3.048   6.843
12363WAT     H237332   6.482   3.020   6.988
12364WAT      O37333   3.989   0.902   3.805
12364WAT     H137334   3.991   0.925   3.707
12364WAT     H237335   3.922   0.961   3.851
12365WAT      O37336   8.683   2.332   8.931
12365WAT     H137337   8.738   2.313   8.849
12365WAT     H237338   8.608   2.266   8.937
12366WAT      O37339   9.632   0.971   5.484
12366WAT     H137340   9.642   0.921   5.570
12366WAT     H237341   9.660   0.912   5.408
12367WAT      O37342   3.824   8.713   4.715
12367WAT     H137343   3.871   8.689   4.800
12367WAT     H237344   3.748   8.650   4.700
12368WAT      O37345   4.796   9.070   6.383
12368WAT     H137346   4.878   9.100   6.433
12368WAT     H237347   4.812   9.081   6.285
12369WAT      O37348   9.467   7.734   3.717
12369WAT     H137349   9.542   7.787   3.677
12369WAT     H237350   9.486   7.718   3.814
12370WAT      O37351   1.810   8.478   3.201
12370WAT     H137352   1.717   8.512   3.211
12370WAT     H237353   1.836   8.426   3.282
12371WAT      O37354   3.725   5.336   0.954
12371WAT     H137355   3.710   5.406   1.024
12371WAT     H237356   3.718   5.377   0.863
12372WAT      O37357   2.049   1.359   7.385
12372WAT     H137358   2.039   1.375   7.483
12372WAT     H237359   2.095   1.437   7.343
12373WAT      O37360   1.407   4.940   6.255
12373WAT     H137361   1.320   4.937   6.206
12373WAT     H237362   1.390   4.961   6.351
12374WAT      O37363   3.622   1.957   7.166
12374WAT     H137364   3.598   1.900   7.245
12374WAT     H237365   3.645   1.899   7.088
12375WAT      O37366   5.470   0.512   7.469
12375WAT     H137367   5.405   0.436   7.468
12375WAT     H237368   5.430   0.591   7.424
12376WAT      O37369   1.713   4.630   1.467
12376WAT     H137370   1.693   4.720   1.506
12376WAT     H237371   1.665   4.620   1.380
12377WAT      O37372   3.052   0.207   1.031
12377WAT     H137373   3.075   0.276   1.100
12377WAT     H237374   3.135   0.158   1.004
12378WAT      O37375   5.377   0.481   0.842
12378WAT     H137376   5.307   0.496   0.911
12378WAT     H237377   5.395   0.566   0.793
12379WAT      O37378   2.082   0.378   0.221
12379WAT     H137379   2.016   0.356   0.149
12379WAT     H237380   2.175   0.373   0.183
12380WAT      O37381   9.045   3.753   0.343
12380WAT     H137382   9.094   3.699   0.411
12380WAT     H237383   9.083   3.734   0.252
12381WAT      O37384   2.995   0.832   5.252
12381WAT     H137385   2.972   0.737   5.274
12381WAT     H237386   2.912   0.881   5.226
12382WAT      O37387   7.141   0.830   9.240
12382WAT     H137388   7.085   0.912   9.236
12382WAT     H237389   7.157   0.796   9.147
12383WAT      O37390   5.017   5.324   3.297
12383WAT     H137391   4.963   5.375   3.364
12383WAT     H237392   4.966   5.316   3.212
12384WAT      O37393   1.163   3.587   0.244
12384WAT     H137394   1.257   3.603   0.215
12384WAT     H237395   1.147   3.489   0.253
12385WAT      O37396   5.457   1.283   4.160
12385WAT     H137397   5.477   1.245   4.250
12385WAT     H237398   5.385   1.352   4.168
12386WAT      O37399   1.045   2.675   9.747
12386WAT     H137400   1.136   2.637   9.730
12386WAT     H237401   1.005   2.630   9.827
12387WAT      O37402   6.641   6.642   9.811
12387WAT     H137403   6.657   6.649   9.909
12387WAT     H237404   6.635   6.734   9.771
12388WAT      O37405   2.389   3.312   9.768
12388WAT     H137406   2.335   3.274   9.692
12388WAT     H237407   2.364   3.265   9.852
12389WAT      O37408   4.363   1.078   7.188
12389WAT     H137409   4.395   0.984   7.179
12389WAT     H237410   4.342   1.097   7.284
12390WAT      O37411   4.420   2.038   1.904
12390WAT     H137412   4.471   2.074   1.983
12390WAT     H237413   4.482   1.989   1.844
12391WAT      O37414   4.756   8.033   8.763
12391WAT     H137415   4.791   7.942   8.743
12391WAT     H237416   4.679   8.026   8.826
12392WAT      O37417   0.618   8.576   8.552
12392WAT     H137418   0.645   8.512   8.624
12392WAT     H237419   0.544   8.634   8.585
12393WAT      O37420   3.572   6.808   1.648
12393WAT     H137421   3.669   6.789   1.637
12393WAT     H237422   3.531   6.831   1.560
12394WAT      O37423   6.417   3.609   6.858
12394WAT     H137424   6.488   3.647   6.917
12394WAT     H237425   6.337   3.584   6.914
12395WAT      O37426   3.139   3.947   9.005
12395WAT     H137427   3.159   3.860   9.051
12395WAT     H237428   3.224   3.985   8.968
12396WAT      O37429   3.843   6.560   4.911
12396WAT     H137430   3.813   6.477   4.864
12396WAT     H237431   3.763   6.616   4.933
12397WAT      O37432   8.141   1.483   4.309
12397WAT     H137433   8.162   1.430   4.227
12397WAT     H237434   8.046   1.470   4.335
12398WAT      O37435   2.200   2.394   9.411
12398WAT     H137436   2.260   2.322   9.446
12398WAT     H237437   2.135   2.422   9.482
12399WAT      O37438   7.496   1.204   4.025
12399WAT     H137439   7.561   1.130   4.043
12399WAT     H237440   7.403   1.167   4.027
12400WAT      O37441   5.027   5.374   9.319
12400WAT     H137442   4.931   5.391   9.340
12400WAT     H237443   5.053   5.424   9.236
12401WAT      O37444   9.868   5.889   8.082
12401WAT     H137445   9.921   5.963   8.123
12401WAT     H237446   9.796   5.927   8.024
12402WAT      O37447   9.293   5.074   4.367
12402WAT     H137448   9.220   5.069   4.436
12402WAT     H237449   9.324   5.168   4.359
12403WAT      O37450   7.879   9.572   8.092
12403WAT     H137451   7.932   9.654   8.072
12403WAT     H237452   7.804   9.563   8.026
12404WAT      O37453   6.925   4.846   0.167
12404WAT     H137454   6.836   4.848   0.211
12404WAT     H237455   6.990   4.900   0.220
12405WAT      O37456   5.852   6.313   7.902
12405WAT     H137457   5.895   6.278   7.819
12405WAT     H237458   5.791   6.244   7.941
12406WAT      O37459   4.354   9.404   7.066
12406WAT     H137460   4.403   9.491   7.071
12406WAT     H237461   4.417   9.328   7.083
12407WAT      O37462   1.526   2.294   6.657
12407WAT     H137463   1.543   2.214   6.600
12407WAT     H237464   1.481   2.266   6.742
12408WAT      O37465   5.826   2.022   8.919
12408WAT     H137466   5.760   1.985   8.853
12408WAT     H237467   5.789   2.016   9.011
12409WAT      O37468   6.711   0.474   7.173
12409WAT     H137469   6.641   0.466   7.244
12409WAT     H237470   6.755   0.385   7.158
12410WAT      O37471   9.134   6.180   1.883
12410WAT     H137472   9.146   6.143   1.791
12410WAT     H237473   9.060   6.131   1.930
12411WAT      O37474   0.306   6.541   7.446
12411WAT     H137475   0.327   6.594   7.528
12411WAT     H237476   0.305   6.444   7.467
12412WAT      O37477   1.810   1.312   2.297
12412WAT     H137478   1.739   1.379   2.317
12412WAT     H237479   1.811   1.241   2.368
12413WAT      O37480   6.971   7.587   7.038
12413WAT     H137481   7.018   7.627   7.117
12413WAT     H237482   6.880   7.627   7.030
12414WAT      O37483   5.282   3.967   3.197
12414WAT     H137484   5.242   4.030   3.130
12414WAT     H237485   5.361   4.012   3.241
12415WAT      O37486   0.491   4.094   2.132
12415WAT     H137487   0.449   4.024   2.191
12415WAT     H237488   0.441   4.180   2.143
12416WAT      O37489   7.913   4.315   6.414
12416WAT     H137490   7.852   4.328   6.336
12416WAT     H237491   7.956   4.225   6.409
12417WAT      O37492   6.737   4.894   8.610
12417WAT     H137493   6.660   4.929   8.664
12417WAT     H237494   6.764   4.805   8.645
12418WAT      O37495   5.081   2.444   6.682
12418WAT     H137496   5.071   2.426   6.779
12418WAT     H237497   5.164   2.498   6.666
12419WAT      O37498   5.606   4.146   2.676
12419WAT     H137499   5.594   4.165   2.579
12419WAT     H237500   5.577   4.225   2.730
12420WAT      O37501   7.470   0.167   9.861
12420WAT     H137502   7.383   0.144   9.817
12420WAT     H237503   7.535   0.198   9.791
12421WAT      O37504   2.845   4.070   3.120
12421WAT     H137505   2.770   4.004   3.128
12421WAT     H237506   2.864   4.109   3.210
12422WAT      O37507   8.923   7.656   0.335
12422WAT     H137508   8.876   7.728   0.387
12422WAT     H237509   9.001   7.622   0.387
12423WAT      O37510   2.658   0.172   7.721
12423WAT     H137511   2.589   0.111   7.760
12423WAT     H237512   2.612   0.246   7.671
12424WAT      O37513   9.136   0.944   3.458
12424WAT     H137514   9.212   0.998   3.424
12424WAT     H237515   9.115   0.972   3.552
12425WAT      O37516   6.292   0.015   5.560
12425WAT     H137517   6.310   0.108   5.526
12425WAT     H237518   6.377  -0.029   5.586
12426WAT      O37519   5.145   2.513   2.270
12426WAT     H137520   5.082   2.484   2.342
12426WAT     H237521   5.129   2.460   2.187
12427WAT      O37522   3.463   2.232   5.558
12427WAT     H137523   3.529   2.260   5.489
12427WAT     H237524   3.504   2.240   5.649
12428WAT      O37525   7.345   1.248   0.830
12428WAT     H137526   7.260   1.242   0.881
12428WAT     H237527   7.359   1.164   0.778
12429WAT      O37528   1.700   2.781   3.923
12429WAT     H137529   1.676   2.684   3.916
12429WAT     H237530   1.746   2.810   3.839
12430WAT      O37531   9.686   3.021   2.196
12430WAT     H137532   9.687   3.047   2.293
12430WAT     H237533   9.635   2.936   2.184
12431WAT      O37534   8.972   1.084   2.192
12431WAT     H137535   8.974   1.135   2.277
12431WAT     H237536   9.026   1.000   2.202
12432WAT      O37537   0.753   8.909   3.497
12432WAT     H137538   0.852   8.919   3.494
12432WAT     H237539   0.715   8.922   3.405
12433WAT      O37540   6.002   7.701   5.482
12433WAT     H137541   5.977   7.678   5.576
12433WAT     H237542   5.962   7.635   5.420
12434WAT      O37543   4.104   7.251   3.009
12434WAT     H137544   4.185   7.306   2.989
12434WAT     H237545   4.026   7.288   2.960
12435WAT      O37546   6.191   9.185   0.020
12435WAT     H137547   6.268   9.181  -0.043
12435WAT     H237548   6.205   9.259   0.086
12436WAT      O37549   3.386   0.637   4.495
12436WAT     H137550   3.440   0.582   4.560
12436WAT     H237551   3.289   0.614   4.504
12437WAT      O37552   1.645   7.150   3.248
12437WAT     H137553   1.652   7.215   3.173
12437WAT     H237554   1.632   7.200   3.334
12438WAT      O37555   3.789   9.248   0.570
12438WAT     H137556   3.743   9.299   0.497
12438WAT     H237557   3.721   9.194   0.619
12439WAT      O37558   3.296   7.133   9.033
12439WAT     H137559   3.226   7.079   9.079
12439WAT     H237560   3.274   7.142   8.936
12440WAT      O37561   2.465   1.576   7.685
12440WAT     H137562   2.439   1.670   7.707
12440WAT     H237563   2.526   1.576   7.606
12441WAT      O37564   9.567   3.362   4.471
12441WAT     H137565   9.489   3.301   4.458
12441WAT     H237566   9.647   3.308   4.497
12442WAT      O37567   0.490   2.623   1.959
12442WAT     H137568   0.393   2.607   1.945
12442WAT     H237569   0.509   2.636   2.057
12443WAT      O37570   5.144   4.553   6.274
12443WAT     H137571   5.074   4.552   6.203
12443WAT     H237572   5.112   4.608   6.351
12444WAT      O37573   7.469   9.460   6.382
12444WAT     H137574   7.431   9.515   6.457
12444WAT     H237575   7.394   9.430   6.322
12445WAT      O37576   8.433   4.866   2.662
12445WAT     H137577   8.405   4.962   2.662
12445WAT     H237578   8.403   4.822   2.746
12446WAT      O37579   8.724   7.802   0.976
12446WAT     H137580   8.802   7.841   1.026
12446WAT     H237581   8.681   7.874   0.920
12447WAT      O37582   1.354   6.883   5.625
12447WAT     H137583   1.391   6.820   5.556
12447WAT     H237584   1.425   6.904   5.692
12448WAT      O37585   8.530   5.578   1.660
12448WAT     H137586   8.562   5.489   1.629
12448WAT     H237587   8.496   5.630   1.582
12449WAT      O37588   2.674   7.752   2.019
12449WAT     H137589   2.721   7.728   1.934
12449WAT     H237590   2.727   7.719   2.097
12450WAT      O37591   7.745   1.162   6.757
12450WAT     H137592   7.738   1.253   6.798
12450WAT     H237593   7.826   1.115   6.793
12451WAT      O37594   8.030   1.628   7.553
12451WAT     H137595   8.039   1.596   7.648
12451WAT     H237596   7.933   1.632   7.528
12452WAT      O37597   4.922   4.560   1.996
12452WAT     H137598   4.922   4.492   2.069
12452WAT     H237599   4.980   4.528   1.921
12453WAT      O37600   6.333   0.704   3.665
12453WAT     H137601   6.318   0.789   3.716
12453WAT     H237602   6.336   0.627   3.729
12454WAT      O37603   0.577   3.927   9.663
12454WAT     H137604   0.528   3.918   9.750
12454WAT     H237605   0.518   3.971   9.595
12455WAT      O37606   3.892   4.546   0.660
12455WAT     H137607   3.866   4.631   0.614
12455WAT     H237608   3.835   4.533   0.741
12456WAT      O37609   0.192   6.484   3.922
12456WAT     H137610   0.246   6.444   3.848
12456WAT     H237611   0.192   6.584   3.913
12457WAT      O37612   4.142   2.731   7.709
12457WAT     H137613   4.170   2.700   7.799
12457WAT     H237614   4.199   2.810   7.682
12458WAT      O37615   5.396   1.550   0.693
12458WAT     H137616   5.371   1.589   0.782
12458WAT     H237617   5.317   1.502   0.655
12459WAT      O37618   7.657   1.560   8.702
12459WAT     H137619   7.576   1.521   8.746
12459WAT     H237620   7.635   1.651   8.667
12460WAT      O37621   1.107   2.921   8.852
12460WAT     H137622   1.139   3.016   8.847
12460WAT     H237623   1.184   2.859   8.838
12461WAT      O37624   1.800   1.877   7.750
12461WAT     H137625   1.712   1.832   7.763
12461WAT     H237626   1.786   1.975   7.735
12462WAT      O37627   6.219   7.662   0.241
12462WAT     H137628   6.146   7.728   0.223
12462WAT     H237629   6.190   7.599   0.313
12463WAT      O37630   4.949   8.223   5.993
12463WAT     H137631   4.869   8.171   6.021
12463WAT     H237632   4.930   8.321   6.000
12464WAT      O37633   0.444   3.218   4.191
12464WAT     H137634   0.379   3.277   4.238
12464WAT     H237635   0.537   3.244   4.216
12465WAT      O37636   8.435   5.946   5.714
12465WAT     H137637   8.364   6.010   5.684
12465WAT     H237638   8.439   5.868   5.651
12466WAT      O37639   7.909   4.480   7.793
12466WAT     H137640   7.966   4.461   7.713
12466WAT     H237641   7.966   4.478   7.875
12467WAT      O37642   5.751   9.414   7.636
12467WAT     H137643   5.736   9.388   7.540
12467WAT     H237644   5.671   9.463   7.670
12468WAT      O37645   7.622   4.964   8.898
12468WAT     H137646   7.700   4.955   8.959
12468WAT     H237647   7.648   4.934   8.806
12469WAT      O37648   3.906   6.319   4.420
12469WAT     H137649   3.891   6.323   4.519
12469WAT     H237650   3.956   6.235   4.398
12470WAT      O37651   7.615   2.441   6.122
12470WAT     H137652   7.677   2.515   6.146
12470WAT     H237653   7.530   2.450   6.174
12471WAT      O37654   1.240   1.413   1.461
12471WAT     H137655   1.232   1.485   1.529
12471WAT     H237656   1.158   1.356   1.464
12472WAT      O37657   6.979   3.436   3.920
12472WAT     H137658   7.041   3.362   3.947
12472WAT     H237659   7.033   3.514   3.887
12473WAT      O37660   4.009   6.582   3.514
12473WAT     H137661   4.061   6.514   3.463
12473WAT     H237662   3.986   6.658   3.454
12474WAT      O37663   9.269   6.111   5.792
12474WAT     H137664   9.196   6.069   5.845
12474WAT     H237665   9.334   6.042   5.763
12475WAT      O37666   9.002   6.739   4.253
12475WAT     H137667   9.005   6.685   4.337
12475WAT     H237668   9.075   6.807   4.255
12476WAT      O37669   5.650   6.610   8.005
12476WAT     H137670   5.579   6.565   8.059
12476WAT     H237671   5.698   6.677   8.061
12477WAT      O37672   5.973   7.986   8.305
12477WAT     H137673   5.975   7.886   8.313
12477WAT     H237674   6.051   8.025   8.353
12478WAT      O37675   7.863   6.112   8.535
12478WAT     H137676   7.931   6.053   8.492
12478WAT     H237677   7.805   6.057   8.596
12479WAT      O37678   5.027   4.015   8.265
12479WAT     H137679   5.124   3.993   8.253
12479WAT     H237680   4.986   4.035   8.177
12480WAT      O37681   7.529   1.831   5.119
12480WAT     H137682   7.558   1.740   5.088
12480WAT     H237683   7.578   1.901   5.068
12481WAT      O37684   8.583   9.000   8.020
12481WAT     H137685   8.514   9.046   8.075
12481WAT     H237686   8.567   8.901   8.020
12482WAT      O37687   3.307   9.105   5.512
12482WAT     H137688   3.239   9.056   5.566
12482WAT     H237689   3.275   9.198   5.494
12483WAT      O37690   0.735   7.879   0.528
12483WAT     H137691   0.741   7.794   0.581
12483WAT     H237692   0.755   7.860   0.432
12484WAT      O37693   9.145   9.161   9.288
12484WAT     H137694   9.182   9.124   9.374
12484WAT     H237695   9.104   9.250   9.305
12485WAT      O37696   1.622   5.926   1.823
12485WAT     H137697   1.541   5.948   1.768
12485WAT     H237698   1.700   5.909   1.762
12486WAT      O37699   0.732   0.475   6.760
12486WAT     H137700   0.790   0.418   6.702
12486WAT     H237701   0.739   0.571   6.730
12487WAT      O37702   2.589   7.058   0.540
12487WAT     H137703   2.674   7.096   0.576
12487WAT     H237704   2.572   7.096   0.449
12488WAT      O37705   5.212   4.462   5.892
12488WAT     H137706   5.305   4.486   5.918
12488WAT     H237707   5.148   4.498   5.960
12489WAT      O37708   7.903   4.074   0.532
12489WAT     H137709   7.948   4.081   0.621
12489WAT     H237710   7.831   4.004   0.537
12490WAT      O37711   4.737   6.767   4.411
12490WAT     H137712   4.785   6.685   4.442
12490WAT     H237713   4.792   6.847   4.433
12491WAT      O37714   9.797   2.567   4.394
12491WAT     H137715   9.795   2.494   4.462
12491WAT     H237716   9.892   2.592   4.375
12492WAT      O37717   7.348   3.735   8.771
12492WAT     H137718   7.365   3.776   8.681
12492WAT     H237719   7.420   3.669   8.792
12493WAT      O37720   1.791   5.028   6.993
12493WAT     H137721   1.702   5.056   6.956
12493WAT     H237722   1.856   5.103   6.981
12494WAT      O37723   0.713   2.942   2.840
12494WAT     H137724   0.712   3.035   2.804
12494WAT     H237725   0.682   2.943   2.935
12495WAT      O37726   8.186   0.328   8.002
12495WAT     H137727   8.270   0.369   7.967
12495WAT     H237728   8.168   0.359   8.095
12496WAT      O37729   7.182   1.806   2.736
12496WAT     H137730   7.197   1.887   2.793
12496WAT     H237731   7.135   1.736   2.790
12497WAT      O37732   0.542   9.037   0.476
12497WAT     H137733   0.538   9.118   0.534
12497WAT     H237734   0.592   9.059   0.392
12498WAT      O37735   2.110   9.322   1.465
12498WAT     H137736   2.123   9.421   1.459
12498WAT     H237737   2.013   9.300   1.461
12499WAT      O37738   4.951   1.693   6.682
12499WAT     H137739   5.043   1.703   6.720
12499WAT     H237740   4.883   1.708   6.754
12500WAT      O37741   6.100   5.072   8.454
12500WAT     H137742   6.095   5.075   8.554
12500WAT     H237743   6.185   5.028   8.426
12501WAT      O37744   7.063   0.971   6.419
12501WAT     H137745   6.985   0.946   6.361
12501WAT     H237746   7.148   0.950   6.372
12502WAT      O37747   8.205   1.674   8.315
12502WAT     H137748   8.203   1.765   8.358
12502WAT     H237749   8.112   1.637   8.313
12503WAT      O37750   8.579   5.142   7.720
12503WAT     H137751   8.608   5.226   7.675
12503WAT     H237752   8.655   5.103   7.772
12504WAT      O37753   4.285   1.483   0.344
12504WAT     H137754   4.337   1.544   0.286
12504WAT     H237755   4.268   1.397   0.296
12505WAT      O37756   1.145   1.287   4.299
12505WAT     H137757   1.119   1.354   4.230
12505WAT     H237758   1.135   1.329   4.390
12506WAT      O37759   5.114   9.446   0.316
12506WAT     H137760   5.182   9.505   0.272
12506WAT     H237761   5.158   9.390   0.386
12507WAT      O37762   6.387   9.571   9.372
12507WAT     H137763   6.371   9.669   9.372
12507WAT     H237764   6.400   9.539   9.466
12508WAT      O37765   0.495   8.793   0.379
12508WAT     H137766   0.550   8.713   0.402
12508WAT     H237767   0.514   8.867   0.444
12509WAT      O37768   4.628   6.028   9.641
12509WAT     H137769   4.667   6.088   9.712
12509WAT     H237770   4.529   6.027   9.649
12510WAT      O37771   3.580   7.425   5.190
12510WAT     H137772   3.637   7.494   5.144
12510WAT     H237773   3.623   7.335   5.179
12511WAT      O37774   8.291   9.552   4.541
12511WAT     H137775   8.383   9.517   4.523
12511WAT     H237776   8.272   9.629   4.479
12512WAT      O37777   5.393   5.383   0.433
12512WAT     H137778   5.390   5.396   0.532
12512WAT     H237779   5.488   5.380   0.403
12513WAT      O37780   5.301   3.106   1.734
12513WAT     H137781   5.365   3.029   1.729
12513WAT     H237782   5.208   3.072   1.722
12514WAT      O37783   2.617   7.656   2.720
12514WAT     H137784   2.624   7.558   2.739
12514WAT     H237785   2.538   7.673   2.661
12515WAT      O37786   9.007   1.389   5.175
12515WAT     H137787   9.089   1.445   5.179
12515WAT     H237788   9.014   1.313   5.239
12516WAT      O37789   5.366   2.155   9.530
12516WAT     H137790   5.355   2.193   9.622
12516WAT     H237791   5.288   2.180   9.474
12517WAT      O37792   7.364   7.672   5.085
12517WAT     H137793   7.437   7.631   5.030
12517WAT     H237794   7.308   7.600   5.125
12518WAT      O37795   5.615   9.706   5.301
12518WAT     H137796   5.675   9.685   5.379
12518WAT     H237797   5.564   9.625   5.275
12519WAT      O37798   6.416   3.048   3.752
12519WAT     H137799   6.368   3.118   3.805
12519WAT     H237800   6.506   3.032   3.792
12520WAT      O37801   4.680   9.631   0.997
12520WAT     H137802   4.639   9.684   0.924
12520WAT     H237803   4.656   9.534   0.986
12521WAT      O37804   6.228   7.793   3.029
12521WAT     H137805   6.136   7.761   3.050
12521WAT     H237806   6.223   7.884   2.988
12522WAT      O37807   5.511   6.183   3.650
12522WAT     H137808   5.596   6.213   3.606
12522WAT     H237809   5.436   6.243   3.624
12523WAT      O37810   1.717   4.147   5.424
12523WAT     H137811   1.634   4.201   5.435
12523WAT     H237812   1.755   4.160   5.333
12524WAT      O37813   2.243   2.827   8.881
12524WAT     H137814   2.158   2.804   8.930
12524WAT     H237815   2.248   2.775   8.796
12525WAT      O37816   0.864   1.207   7.336
12525WAT     H137817   0.844   1.109   7.329
12525WAT     H237818   0.911   1.238   7.254
12526WAT      O37819   6.291   3.703   9.565
12526WAT     H137820   6.212   3.676   9.620
12526WAT     H237821   6.265   3.779   9.504
12527WAT      O37822   2.415   0.759   7.816
12527WAT     H137823   2.415   0.830   7.887
12527WAT     H237824   2.320   0.735   7.794
12528WAT      O37825   6.963   2.307   0.687
12528WAT     H137826   7.043   2.256   0.653
12528WAT     H237827   6.900   2.323   0.611
12529WAT      O37828   8.178   5.013   2.401
12529WAT     H137829   8.129   5.044   2.319
12529WAT     H237830   8.240   4.939   2.376
12530WAT      O37831   0.288   8.280   3.609
12530WAT     H137832   0.243   8.191   3.604
12530WAT     H237833   0.219   8.351   3.622
12531WAT      O37834   6.902   5.049   6.115
12531WAT     H137835   6.980   5.111   6.121
12531WAT     H237836   6.842   5.064   6.194
12532WAT      O37837   4.614   0.374   7.601
12532WAT     H137838   4.708   0.351   7.627
12532WAT     H237839   4.594   0.335   7.511
12533WAT      O37840   9.227   7.452   8.749
12533WAT     H137841   9.199   7.356   8.741
12533WAT     H237842   9.265   7.483   8.662
12534WAT      O37843   1.150   3.968   9.887
12534WAT     H137844   1.223   3.928   9.942
12534WAT     H237845   1.184   3.982   9.793
12535WAT      O37846   5.741   3.872   3.705
12535WAT     H137847   5.668   3.904   3.765
12535WAT     H237848   5.725   3.904   3.612
12536WAT      O37849   9.632   3.053   5.004
12536WAT     H137850   9.725   3.086   4.989
12536WAT     H237851   9.591   3.027   4.916
12537WAT      O37852   0.802   5.930   0.181
12537WAT     H137853   0.833   6.014   0.226
12537WAT     H237854   0.738   5.952   0.108
12538WAT      O37855   9.121   4.997   0.650
12538WAT     H137856   9.047   5.037   0.704
12538WAT     H237857   9.089   4.976   0.558
12539WAT      O37858   6.832   1.826   1.345
12539WAT     H137859   6.747   1.875   1.361
12539WAT     H237860   6.852   1.826   1.247
12540WAT      O37861   5.012   4.817   6.998
12540WAT     H137862   5.102   4.860   6.992
12540WAT     H237863   4.953   4.871   7.058
12541WAT      O37864   6.528   9.292   7.817
12541WAT     H137865   6.552   9.266   7.911
12541WAT     H237866   6.468   9.222   7.777
12542WAT      O37867   9.590   8.397   1.065
12542WAT     H137868   9.627   8.304   1.061
12542WAT     H237869   9.615   8.439   1.152
12543WAT      O37870   5.996   6.024   3.783
12543WAT     H137871   5.962   6.116   3.803
12543WAT     H237872   6.091   6.029   3.753
12544WAT      O37873   8.476   5.538   5.594
12544WAT     H137874   8.448   5.631   5.571
12544WAT     H237875   8.562   5.517   5.546
12545WAT      O37876   9.482   7.839   8.568
12545WAT     H137877   9.470   7.883   8.479
12545WAT     H237878   9.574   7.859   8.603
12546WAT      O37879   5.187   1.789   9.283
12546WAT     H137880   5.236   1.862   9.237
12546WAT     H237881   5.089   1.797   9.266
12547WAT      O37882   3.541   0.892   5.705
12547WAT     H137883   3.634   0.856   5.698
12547WAT     H237884   3.538   0.983   5.664
12548WAT      O37885   7.670   6.526   1.939
12548WAT     H137886   7.725   6.529   2.023
12548WAT     H237887   7.728   6.546   1.860
12549WAT      O37888   6.880   4.492   1.432
12549WAT     H137889   6.881   4.532   1.524
12549WAT     H237890   6.852   4.397   1.437
12550WAT      O37891   5.561   3.841   4.398
12550WAT     H137892   5.483   3.817   4.457
12550WAT     H237893   5.601   3.757   4.360
12551WAT      O37894   1.733   6.559   0.786
12551WAT     H137895   1.826   6.567   0.749
12551WAT     H237896   1.672   6.621   0.735
12552WAT      O37897   5.225   3.347   5.101
12552WAT     H137898   5.204   3.260   5.145
12552WAT     H237899   5.171   3.355   5.017
12553WAT      O37900   0.190   6.744   3.640
12553WAT     H137901   0.170   6.835   3.605
12553WAT     H237902   0.183   6.745   3.740
12554WAT      O37903   1.445   0.083   7.240
12554WAT     H137904   1.366   0.133   7.275
12554WAT     H237905   1.418   0.033   7.158
12555WAT      O37906   7.789   2.292   2.018
12555WAT     H137907   7.734   2.349   1.957
12555WAT     H237908   7.826   2.348   2.092
12556WAT      O37909   7.037   6.651   2.896
12556WAT     H137910   7.107   6.588   2.930
12556WAT     H237911   6.973   6.673   2.970
12557WAT      O37912   9.765   1.838   4.081
12557WAT     H137913   9.849   1.892   4.076
12557WAT     H237914   9.740   1.807   3.989
12558WAT      O37915   0.338   9.700   5.354
12558WAT     H137916   0.382   9.677   5.268
12558WAT     H237917   0.239   9.692   5.344
12559WAT      O37918   2.467   1.230   4.121
12559WAT     H137919   2.472   1.245   4.220
12559WAT     H237920   2.494   1.314   4.074
12560WAT      O37921   9.371   9.093   4.559
12560WAT     H137922   9.399   9.024   4.493
12560WAT     H237923   9.443   9.163   4.567
12561WAT      O37924   7.977   3.530   1.894
12561WAT     H137925   7.989   3.537   1.993
12561WAT     H237926   8.053   3.578   1.848
12562WAT      O37927   1.145   5.070   9.171
12562WAT     H137928   1.071   5.132   9.144
12562WAT     H237929   1.195   5.040   9.090
12563WAT      O37930   1.569   6.341   1.702
12563WAT     H137931   1.595   6.415   1.640
12563WAT     H237932   1.482   6.301   1.672
12564WAT      O37933   9.246   9.590   5.131
12564WAT     H137934   9.292   9.647   5.199
12564WAT     H237935   9.228   9.499   5.170
12565WAT      O37936   3.791   9.648   3.742
12565WAT     H137937   3.716   9.710   3.716
12565WAT     H237938   3.874   9.674   3.694
12566WAT      O37939   1.027   1.337   4.908
12566WAT     H137940   0.976   1.315   4.825
12566WAT     H237941   0.982   1.411   4.957
12567WAT      O37942   3.502   3.884   9.030
12567WAT     H137943   3.571   3.838   8.975
12567WAT     H237944   3.460   3.957   8.977
12568WAT      O37945   7.912   4.237   8.205
12568WAT     H137946   7.824   4.233   8.159
12568WAT     H237947   7.927   4.329   8.241
12569WAT      O37948   5.192   7.614   8.032
12569WAT     H137949   5.266   7.663   8.078
12569WAT     H237950   5.202   7.624   7.933
12570WAT      O37951   3.112   2.721   8.963
12570WAT     H137952   3.160   2.645   8.919
12570WAT     H237953   3.120   2.712   9.062
12571WAT      O37954   7.096   5.588   5.434
12571WAT     H137955   7.163   5.663   5.434
12571WAT     H237956   7.127   5.517   5.497
12572WAT      O37957   0.478   5.394   9.193
12572WAT     H137958   0.398   5.372   9.136
12572WAT     H237959   0.468   5.352   9.283
12573WAT      O37960   4.661   0.958   3.376
12573WAT     H137961   4.655   0.968   3.475
12573WAT     H237962   4.692   0.865   3.354
12574WAT      O37963   3.604  -0.002   3.716
12574WAT     H137964   3.558  -0.021   3.802
12574WAT     H237965   3.661   0.080   3.726
12575WAT      O37966   9.188   6.957   4.278
12575WAT     H137967   9.250   7.020   4.230
12575WAT     H237968   9.096   6.996   4.280
12576WAT      O37969   2.837   1.299   9.715
12576WAT     H137970   2.785   1.378   9.684
12576WAT     H237971   2.776   1.233   9.758
12577WAT      O37972   8.757   7.050   6.868
12577WAT     H137973   8.707   7.117   6.814
12577WAT     H237974   8.855   7.058   6.849
12578WAT      O37975   1.407   1.407   8.011
12578WAT     H137976   1.382   1.385   8.105
12578WAT     H237977   1.420   1.323   7.959
12579WAT      O37978   8.182   1.952   8.568
12579WAT     H137979   8.253   2.021   8.583
12579WAT     H237980   8.099   1.996   8.534
12580WAT      O37981   4.129   4.373   6.022
12580WAT     H137982   4.201   4.346   6.085
12580WAT     H237983   4.158   4.453   5.970
12581WAT      O37984   6.139   2.748   8.511
12581WAT     H137985   6.102   2.687   8.441
12581WAT     H237986   6.190   2.822   8.468
12582WAT      O37987   7.577   0.963   5.815
12582WAT     H137988   7.573   1.034   5.746
12582WAT     H237989   7.604   1.003   5.903
12583WAT      O37990   6.143   0.378   6.880
12583WAT     H137991   6.125   0.283   6.906
12583WAT     H237992   6.237   0.401   6.905
12584WAT      O37993   8.454   2.828   6.908
12584WAT     H137994   8.395   2.759   6.867
12584WAT     H237995   8.535   2.784   6.947
12585WAT      O37996   7.258   5.065   7.858
12585WAT     H137997   7.304   5.117   7.786
12585WAT     H237998   7.192   5.124   7.904
12586WAT      O37999   0.040   6.477   1.643
12586WAT     H138000  -0.030   6.440   1.704
12586WAT     H238001   0.130   6.448   1.675
12587WAT      O38002   5.738   5.624   6.924
12587WAT     H138003   5.787   5.633   6.838
12587WAT     H238004   5.782   5.680   6.994
12588WAT      O38005   9.789   9.757   4.573
12588WAT     H138006   9.774   9.787   4.479
12588WAT     H238007   9.711   9.785   4.630
12589WAT      O38008   1.355   8.243   3.538
12589WAT     H138009   1.382   8.248   3.634
12589WAT     H238010   1.306   8.157   3.522
12590WAT      O38011   5.589   4.882   6.174
12590WAT     H138012   5.688   4.869   6.176
12590WAT     H238013   5.567   4.973   6.209
12591WAT      O38014   5.514   4.681   7.339
12591WAT     H138015   5.539   4.729   7.424
12591WAT     H238016   5.415   4.662   7.340
12592WAT      O38017   5.983   3.143   4.246
12592WAT     H138018   5.966   3.240   4.226
12592WAT     H238019   5.953   3.123   4.339
12593WAT      O38020   2.500   1.091   5.000
12593WAT     H138021   2.415   1.085   5.053
12593WAT     H238022   2.578   1.069   5.059
12594WAT      O38023   4.299   3.343   3.968
12594WAT     H138024   4.307   3.308   4.062
12594WAT     H238025   4.304   3.443   3.969
12595WAT      O38026   8.368   0.604   9.686
12595WAT     H138027   8.343   0.525   9.630
12595WAT     H238028   8.325   0.686   9.648
12596WAT      O38029   3.119   9.100   9.801
12596WAT     H138030   3.139   9.007   9.771
12596WAT     H238031   3.108   9.101   9.900
12597WAT      O38032   8.364   8.956   3.833
12597WAT     H138033   8.434   8.890   3.805
12597WAT     H238034   8.275   8.927   3.798
12598WAT      O38035   4.343   7.223   6.084
12598WAT     H138036   4.254   7.268   6.083
12598WAT     H238037   4.372   7.207   6.178
12599WAT      O38038   6.924   5.017   1.487
12599WAT     H138039   6.925   4.983   1.582
12599WAT     H238040   6.843   4.981   1.440
12600WAT      O38041   9.627   0.774   9.724
12600WAT     H138042   9.631   0.874   9.720
12600WAT     H238043   9.533   0.746   9.745
12601WAT      O38044   6.203   7.656   9.510
12601WAT     H138045   6.240   7.749   9.522
12601WAT     H238046   6.278   7.590   9.517
12602WAT      O38047   3.330   4.979   9.365
12602WAT     H138048   3.320   4.961   9.268
12602WAT     H238049   3.312   4.895   9.417
12603WAT      O38050   6.085   1.664   4.758
12603WAT     H138051   6.080   1.649   4.660
12603WAT     H238052   6.156   1.732   4.778
12604WAT      O38053   3.297   3.067   1.152
12604WAT     H138054   3.333   3.001   1.219
12604WAT     H238055   3.229   3.125   1.197
12605WAT      O38056   6.126   8.088   3.031
12605WAT     H138057   6.059   8.064   3.101
12605WAT     H238058   6.211   8.118   3.074
12606WAT      O38059   0.333   3.118   1.605
12606WAT     H138060   0.305   3.058   1.530
12606WAT     H238061   0.293   3.085   1.690
12607WAT      O38062   3.359   4.241   9.163
12607WAT     H138063   3.280   4.206   9.215
12607WAT     H238064   3.443   4.209   9.206
12608WAT      O38065   6.865   9.531   1.038
12608WAT     H138066   6.793   9.563   1.099
12608WAT     H238067   6.824   9.486   0.959
12609WAT      O38068   8.915   1.437   4.597
12609WAT     H138069   8.881   1.509   4.536
12609WAT     H238070   8.923   1.473   4.690
12610WAT      O38071   4.630   6.215   2.963
12610WAT     H138072   4.644   6.192   3.059
12610WAT     H238073   4.586   6.138   2.916
12611WAT      O38074   1.028   8.863   6.911
12611WAT     H138075   1.098   8.922   6.872
12611WAT     H238076   1.002   8.793   6.844
12612WAT      O38077   5.355   0.829   8.986
12612WAT     H138078   5.366   0.825   9.085
12612WAT     H238079   5.261   0.805   8.962
12613WAT      O38080   1.717   6.953   7.789
12613WAT     H138081   1.697   7.051   7.792
12613WAT     H238082   1.656   6.905   7.852
12614WAT      O38083   8.544   5.667   0.200
12614WAT     H138084   8.631   5.624   0.177
12614WAT     H238085   8.552   5.711   0.290
12615WAT      O38086   4.507   9.637   7.079
12615WAT     H138087   4.473   9.731   7.076
12615WAT     H238088   4.520   9.609   7.175
12616WAT      O38089   9.532   8.697   5.241
12616WAT     H138090   9.556   8.632   5.314
12616WAT     H238091   9.576   8.669   5.156
12617WAT      O38092   4.834   8.040   4.968
12617WAT     H138093   4.806   7.993   4.884
12617WAT     H238094   4.772   8.115   4.987
12618WAT      O38095   9.137   6.793   8.730
12618WAT     H138096   9.220   6.743   8.755
12618WAT     H238097   9.065   6.728   8.706
12619WAT      O38098   3.514   1.329   4.855
12619WAT     H138099   3.601   1.332   4.903
12619WAT     H238100   3.514   1.397   4.782
12620WAT      O38101   1.897   4.800   8.648
12620WAT     H138102   1.854   4.723   8.602
12620WAT     H238103   1.885   4.882   8.592
12621WAT      O38104   4.537   1.631   6.825
12621WAT     H138105   4.461   1.694   6.811
12621WAT     H238106   4.520   1.575   6.906
12622WAT      O38107   1.807   5.741   2.096
12622WAT     H138108   1.776   5.836   2.104
12622WAT     H238109   1.859   5.730   2.011
12623WAT      O38110   7.899   6.203   4.491
12623WAT     H138111   7.867   6.244   4.576
12623WAT     H238112   7.968   6.262   4.449
12624WAT      O38113   4.063   8.702   7.444
12624WAT     H138114   3.987   8.639   7.428
12624WAT     H238115   4.032   8.796   7.425
12625WAT      O38116   7.802   0.338   5.526
12625WAT     H138117   7.812   0.406   5.599
12625WAT     H238118   7.734   0.270   5.553
12626WAT      O38119   7.245   1.370   0.616
12626WAT     H138120   7.295   1.330   0.692
12626WAT     H238121   7.180   1.303   0.580
12627WAT      O38122   9.036   5.190   2.098
12627WAT     H138123   8.987   5.275   2.114
12627WAT     H238124   8.974   5.113   2.112
12628WAT      O38125   1.842   0.652   6.891
12628WAT     H138126   1.749   0.648   6.854
12628WAT     H238127   1.878   0.559   6.901
12629WAT      O38128   6.896   4.267   3.475
12629WAT     H138129   6.944   4.354   3.476
12629WAT     H238130   6.939   4.204   3.541
12630WAT      O38131   7.553   7.771   0.057
12630WAT     H138132   7.558   7.755  -0.041
12630WAT     H238133   7.541   7.684   0.105
12631WAT      O38134   4.689   9.709   7.849
12631WAT     H138135   4.652   9.643   7.783
12631WAT     H238136   4.613   9.759   7.891
12632WAT      O38137   0.434   0.256   1.777
12632WAT     H138138   0.334   0.266   1.778
12632WAT     H238139   0.469   0.258   1.870
12633WAT      O38140   2.288   0.962   3.845
12633WAT     H138141   2.247   1.037   3.897
12633WAT     H238142   2.386   0.979   3.834
12634WAT      O38143   5.953   1.346   7.136
12634WAT     H138144   5.925   1.383   7.225
12634WAT     H238145   5.942   1.247   7.137
12635WAT      O38146   6.078   2.628   0.679
12635WAT     H138147   6.049   2.560   0.611
12635WAT     H238148   6.105   2.712   0.632
12636WAT      O38149   4.221   0.228   1.560
12636WAT     H138150   4.296   0.256   1.500
12636WAT     H238151   4.248   0.146   1.610
12637WAT      O38152   7.877   0.402   4.420
12637WAT     H138153   7.839   0.491   4.445
12637WAT     H238154   7.925   0.363   4.498
12638WAT      O38155   9.246   4.211   4.840
12638WAT     H138156   9.299   4.235   4.758
12638WAT     H238157   9.269   4.118   4.868
12639WAT      O38158   4.663   4.026   7.410
12639WAT     H138159   4.646   4.124   7.401
12639WAT     H238160   4.602   3.987   7.480
12640WAT      O38161   2.601   2.431   5.188
12640WAT     H138162   2.636   2.342   5.218
12640WAT     H238163   2.671   2.501   5.204
12641WAT      O38164   1.645   6.425   6.408
12641WAT     H138165   1.649   6.489   6.332
12641WAT     H238166   1.737   6.406   6.441
12642WAT      O38167   1.327   1.999   6.924
12642WAT     H138168   1.389   1.931   6.886
12642WAT     H238169   1.268   1.956   6.993
12643WAT      O38170   7.715   7.136   5.689
12643WAT     H138171   7.718   7.083   5.604
12643WAT     H238172   7.631   7.117   5.738
12644WAT      O38173   9.765   6.046   9.305
12644WAT     H138174   9.774   6.015   9.399
12644WAT     H238175   9.692   6.113   9.298
12645WAT      O38176   3.411   2.191   9.053
12645WAT     H138177   3.417   2.288   9.076
12645WAT     H238178   3.490   2.164   8.999
12646WAT      O38179   2.865   6.773   4.092
12646WAT     H138180   2.961   6.775   4.120
12646WAT     H238181   2.819   6.694   4.134
12647WAT      O38182   9.561   0.885   4.478
12647WAT     H138183   9.492   0.934   4.425
12647WAT     H238184   9.604   0.815   4.421
12648WAT      O38185   4.023   3.264   7.030
12648WAT     H138186   3.966   3.253   7.111
12648WAT     H238187   4.101   3.322   7.053
12649WAT      O38188   0.659   2.027   0.136
12649WAT     H138189   0.752   2.036   0.173
12649WAT     H238190   0.658   2.059   0.042
12650WAT      O38191   0.030   4.043   0.379
12650WAT     H138192   0.119   4.052   0.423
12650WAT     H238193   0.040   3.989   0.295
12651WAT      O38194   4.780   5.942   4.582
12651WAT     H138195   4.738   5.908   4.666
12651WAT     H238196   4.876   5.913   4.579
12652WAT      O38197   1.169   4.669   6.509
12652WAT     H138198   1.250   4.676   6.450
12652WAT     H238199   1.197   4.672   6.605
12653WAT      O38200   2.489   3.785   4.221
12653WAT     H138201   2.439   3.699   4.223
12653WAT     H238202   2.563   3.783   4.289
12654WAT      O38203   1.594   9.491   0.927
12654WAT     H138204   1.674   9.432   0.937
12654WAT     H238205   1.609   9.575   0.980
12655WAT      O38206   1.231   6.819   6.328
12655WAT     H138207   1.149   6.781   6.371
12655WAT     H238208   1.296   6.846   6.398
12656WAT      O38209   7.286   8.416   5.895
12656WAT     H138210   7.294   8.321   5.866
12656WAT     H238211   7.200   8.429   5.944
12657WAT      O38212   2.025   9.333   1.186
12657WAT     H138213   2.095   9.339   1.258
12657WAT     H238214   2.018   9.422   1.140
12658WAT      O38215   6.843   2.921   7.503
12658WAT     H138216   6.745   2.941   7.500
12658WAT     H238217   6.886   2.976   7.575
12659WAT      O38218   6.342   1.871   7.101
12659WAT     H138219   6.321   1.967   7.117
12659WAT     H238220   6.257   1.819   7.089
12660WAT      O38221   9.802   6.976   6.171
12660WAT     H138222   9.796   6.880   6.144
12660WAT     H238223   9.860   6.984   6.251
12661WAT      O38224   0.020   7.039   2.919
12661WAT     H138225  -0.031   7.086   2.991
12661WAT     H238226  -0.040   6.971   2.876
12662WAT      O38227   2.744   8.267   3.848
12662WAT     H138228   2.787   8.308   3.768
12662WAT     H238229   2.668   8.209   3.819
12663WAT      O38230   0.067   5.160   2.656
12663WAT     H138231   0.056   5.235   2.721
12663WAT     H238232   0.077   5.074   2.706
12664WAT      O38233   3.944   7.914   4.333
12664WAT     H138234   4.006   7.945   4.261
12664WAT     H238235   3.974   7.951   4.421
12665WAT      O38236   2.290   9.382   7.307
12665WAT     H138237   2.238   9.403   7.224
12665WAT     H238238   2.271   9.451   7.377
12666WAT      O38239   1.851   9.489   3.439
12666WAT     H138240   1.791   9.524   3.512
12666WAT     H238241   1.890   9.565   3.388
12667WAT      O38242   1.302   4.970   0.637
12667WAT     H138243   1.299   5.068   0.660
12667WAT     H238244   1.391   4.933   0.662
12668WAT      O38245   1.203   7.739   7.003
12668WAT     H138246   1.150   7.821   7.025
12668WAT     H238247   1.299   7.763   6.993
12669WAT      O38248   2.920   0.605   9.352
12669WAT     H138249   2.853   0.648   9.291
12669WAT     H238250   2.904   0.636   9.446
12670WAT      O38251   7.076   9.010   1.873
12670WAT     H138252   6.993   9.060   1.896
12670WAT     H238253   7.128   9.061   1.804
12671WAT      O38254   1.772   8.647   2.024
12671WAT     H138255   1.797   8.739   2.054
12671WAT     H238256   1.708   8.607   2.090
12672WAT      O38257   6.344   3.576   0.543
12672WAT     H138258   6.257   3.561   0.590
12672WAT     H238259   6.420   3.560   0.606
12673WAT      O38260   6.878   7.598   9.429
12673WAT     H138261   6.807   7.664   9.406
12673WAT     H238262   6.961   7.647   9.456
12674WAT      O38263   0.825   6.373   0.087
12674WAT     H138264   0.816   6.434   0.009
12674WAT     H238265   0.751   6.305   0.085
12675WAT      O38266   9.273   9.718   2.653
12675WAT     H138267   9.232   9.732   2.563
12675WAT     H238268   9.339   9.643   2.648
12676WAT      O38269   5.128   7.757   2.459
12676WAT     H138270   5.181   7.736   2.377
12676WAT     H238271   5.117   7.856   2.466
12677WAT      O38272   3.677   7.484   9.072
12677WAT     H138273   3.675   7.528   9.161
12677WAT     H238274   3.638   7.392   9.079
12678WAT      O38275   9.391   6.482   3.725
12678WAT     H138276   9.464   6.442   3.781
12678WAT     H238277   9.392   6.439   3.635
12679WAT      O38278   3.037   4.336   2.501
12679WAT     H138279   2.965   4.269   2.520
12679WAT     H238280   3.011   4.425   2.539
12680WAT      O38281   9.790   2.369   0.186
12680WAT     H138282   9.713   2.318   0.148
12680WAT     H238283   9.757   2.450   0.234
12681WAT      O38284   6.980   6.393   1.645
12681WAT     H138285   6.904   6.334   1.617
12681WAT     H238286   6.993   6.465   1.576
12682WAT      O38287   1.277   4.966   8.959
12682WAT     H138288   1.370   4.939   8.983
12682WAT     H238289   1.270   4.973   8.859
12683WAT      O38290   4.541   5.365   1.323
12683WAT     H138291   4.563   5.401   1.233
12683WAT     H238292   4.505   5.272   1.314
12684WAT      O38293   2.393   7.055   2.698
12684WAT     H138294   2.415   7.010   2.785
12684WAT     H238295   2.326   7.127   2.714
12685WAT      O38296   1.718   2.529   4.570
12685WAT     H138297   1.757   2.596   4.507
12685WAT     H238298   1.720   2.566   4.663
12686WAT      O38299   4.192   7.309   7.964
12686WAT     H138300   4.097   7.294   7.992
12686WAT     H238301   4.193   7.359   7.877
12687WAT      O38302   4.463   7.799   5.681
12687WAT     H138303   4.368   7.821   5.659
12687WAT     H238304   4.513   7.776   5.597
12688WAT      O38305   1.932   7.047   1.990
12688WAT     H138306   2.024   7.011   1.972
12688WAT     H238307   1.875   7.035   1.909
12689WAT      O38308   7.946   1.508   2.832
12689WAT     H138309   7.872   1.573   2.850
12689WAT     H238310   7.939   1.431   2.895
12690WAT      O38311   7.730   7.713   3.948
12690WAT     H138312   7.754   7.660   4.030
12690WAT     H238313   7.813   7.734   3.897
12691WAT      O38314   1.531   8.576   9.030
12691WAT     H138315   1.550   8.628   9.114
12691WAT     H238316   1.494   8.638   8.960
12692WAT      O38317   4.078   5.190   2.165
12692WAT     H138318   4.025   5.106   2.153
12692WAT     H238319   4.171   5.175   2.132
12693WAT      O38320   0.960   3.195   0.970
12693WAT     H138321   0.976   3.251   1.051
12693WAT     H238322   0.916   3.110   0.996
12694WAT      O38323   3.897   9.302   7.897
12694WAT     H138324   3.828   9.374   7.904
12694WAT     H238325   3.863   9.219   7.941
12695WAT      O38326   9.828   2.022   3.303
12695WAT     H138327   9.742   2.050   3.260
12695WAT     H238328   9.889   1.984   3.233
12696WAT      O38329   5.814   8.278   6.977
12696WAT     H138330   5.751   8.231   6.914
12696WAT     H238331   5.852   8.212   7.042
12697WAT      O38332   1.206   5.886   3.128
12697WAT     H138333   1.135   5.897   3.198
12697WAT     H238334   1.173   5.824   3.057
12698WAT      O38335   9.599   2.430   0.611
12698WAT     H138336   9.551   2.465   0.531
12698WAT     H238337   9.696   2.421   0.591
12699WAT      O38338   2.875   2.173   2.754
12699WAT     H138339   2.775   2.176   2.749
12699WAT     H238340   2.903   2.108   2.825
12700WAT      O38341   3.569   2.486   9.327
12700WAT     H138342   3.537   2.434   9.248
12700WAT     H238343   3.621   2.425   9.387
12701WAT      O38344   5.080   7.872   7.243
12701WAT     H138345   5.053   7.821   7.325
12701WAT     H238346   5.075   7.970   7.261
12702WAT      O38347   9.580   3.209   8.639
12702WAT     H138348   9.568   3.147   8.717
12702WAT     H238349   9.626   3.160   8.565
12703WAT      O38350   4.555   4.465   8.526
12703WAT     H138351   4.642   4.513   8.524
12703WAT     H238352   4.570   4.368   8.545
12704WAT      O38353   7.620   1.580   5.044
12704WAT     H138354   7.704   1.537   5.079
12704WAT     H238355   7.587   1.528   4.965
12705WAT      O38356   9.570   2.774   0.010
12705WAT     H138357   9.499   2.756   0.078
12705WAT     H238358   9.628   2.848   0.041
12706WAT      O38359   3.553   7.652   4.937
12706WAT     H138360   3.486   7.580   4.957
12706WAT     H238361   3.506   7.730   4.895
12707WAT      O38362   5.341   5.215   5.811
12707WAT     H138363   5.268   5.220   5.742
12707WAT     H238364   5.387   5.303   5.817
12708WAT      O38365   1.805   8.744   4.292
12708WAT     H138366   1.774   8.784   4.205
12708WAT     H238367   1.834   8.649   4.276
12709WAT      O38368   5.494   2.747   6.921
12709WAT     H138369   5.514   2.697   7.005
12709WAT     H238370   5.396   2.744   6.902
12710WAT      O38371   4.545   9.125   9.869
12710WAT     H138372   4.489   9.207   9.879
12710WAT     H238373   4.641   9.152   9.859
12711WAT      O38374   7.291   9.828   3.547
12711WAT     H138375   7.317   9.898   3.613
12711WAT     H238376   7.301   9.738   3.589
12712WAT      O38377   7.859   2.368   8.340
12712WAT     H138378   7.901   2.431   8.275
12712WAT     H238379   7.798   2.418   8.401
12713WAT      O38380   5.402   9.265   1.886
12713WAT     H138381   5.447   9.196   1.943
12713WAT     H238382   5.327   9.223   1.836
12714WAT      O38383   3.044   2.404   5.601
12714WAT     H138384   3.136   2.431   5.573
12714WAT     H238385   3.048   2.316   5.648
12715WAT      O38386   1.958   7.352   5.673
12715WAT     H138387   1.917   7.320   5.758
12715WAT     H238388   2.054   7.323   5.669
12716WAT      O38389   2.927   7.486   2.579
12716WAT     H138390   2.857   7.474   2.509
12716WAT     H238391   2.937   7.583   2.601
12717WAT      O38392   3.521   9.205   1.367
12717WAT     H138393   3.620   9.211   1.359
12717WAT     H238394   3.483   9.296   1.387
12718WAT      O38395   7.935   9.557   9.306
12718WAT     H138396   7.939   9.480   9.242
12718WAT     H238397   7.934   9.643   9.254
12719WAT      O38398   0.682   0.613   3.090
12719WAT     H138399   0.769   0.565   3.076
12719WAT     H238400   0.687   0.703   3.047
12720WAT      O38401   0.969   9.161   7.305
12720WAT     H138402   0.898   9.153   7.235
12720WAT     H238403   0.927   9.182   7.393
12721WAT      O38404   0.409   3.838   8.451
12721WAT     H138405   0.354   3.860   8.531
12721WAT     H238406   0.502   3.871   8.464
12722WAT      O38407   2.239   3.713   9.169
12722WAT     H138408   2.266   3.730   9.263
12722WAT     H238409   2.320   3.709   9.110
12723WAT      O38410   5.390   7.914   0.460
12723WAT     H138411   5.445   7.986   0.501
12723WAT     H238412   5.302   7.907   0.507
12724WAT      O38413   8.549   8.907   0.674
12724WAT     H138414   8.459   8.896   0.716
12724WAT     H238415   8.581   9.001   0.687
12725WAT      O38416   9.147   3.750   3.717
12725WAT     H138417   9.200   3.817   3.769
12725WAT     H238418   9.178   3.658   3.741
12726WAT      O38419   0.234   5.323   9.106
12726WAT     H138420   0.210   5.243   9.052
12726WAT     H238421   0.173   5.330   9.185
12727WAT      O38422   3.392   3.491   1.106
12727WAT     H138423   3.460   3.451   1.167
12727WAT     H238424   3.332   3.551   1.158
12728WAT      O38425   7.874   0.680   7.511
12728WAT     H138426   7.872   0.764   7.565
12728WAT     H238427   7.957   0.628   7.534
12729WAT      O38428   3.863   7.249   8.289
12729WAT     H138429   3.905   7.202   8.366
12729WAT     H238430   3.790   7.309   8.322
12730WAT      O38431   6.456   1.468   4.064
12730WAT     H138432   6.412   1.551   4.100
12730WAT     H238433   6.409   1.439   3.981
12731WAT      O38434   8.556   4.458   3.862
12731WAT     H138435   8.502   4.383   3.900
12731WAT     H238436   8.516   4.545   3.890
12732WAT      O38437   5.802   6.406   0.984
12732WAT     H138438   5.877   6.440   0.928
12732WAT     H238439   5.793   6.307   0.970
12733WAT      O38440   2.360   4.449   3.356
12733WAT     H138441   2.337   4.477   3.449
12733WAT     H238442   2.388   4.353   3.356
12734WAT      O38443   6.704   4.630   4.367
12734WAT     H138444   6.628   4.568   4.387
12734WAT     H238445   6.789   4.591   4.404
12735WAT      O38446   2.827   6.387   2.298
12735WAT     H138447   2.883   6.308   2.319
12735WAT     H238448   2.811   6.441   2.381
12736WAT      O38449   9.515   6.947   5.308
12736WAT     H138450   9.469   6.917   5.225
12736WAT     H238451   9.448   6.984   5.372
12737WAT      O38452   7.011   6.781   1.223
12737WAT     H138453   6.992   6.746   1.315
12737WAT     H238454   6.974   6.874   1.214
12738WAT      O38455   9.436   2.332   4.551
12738WAT     H138456   9.359   2.364   4.496
12738WAT     H238457   9.484   2.410   4.590
12739WAT      O38458   2.164   9.528   7.080
12739WAT     H138459   2.177   9.617   7.123
12739WAT     H238460   2.240   9.510   7.018
12740WAT      O38461   6.148   4.139   0.524
12740WAT     H138462   6.103   4.149   0.435
12740WAT     H238463   6.235   4.188   0.523
12741WAT      O38464   3.491   9.597   2.771
12741WAT     H138465   3.467   9.511   2.817
12741WAT     H238466   3.509   9.580   2.675
12742WAT      O38467   5.049   0.675   3.674
12742WAT     H138468   5.143   0.686   3.707
12742WAT     H238469   5.048   0.677   3.574
12743WAT      O38470   6.792   2.347   8.400
12743WAT     H138471   6.742   2.353   8.313
12743WAT     H238472   6.729   2.321   8.473
12744WAT      O38473   5.047   1.520   7.801
12744WAT     H138474   5.091   1.549   7.716
12744WAT     H238475   5.100   1.445   7.841
12745WAT      O38476   6.284   7.428   6.351
12745WAT     H138477   6.189   7.449   6.373
12745WAT     H238478   6.338   7.428   6.435
12746WAT      O38479   1.114   8.000   4.869
12746WAT     H138480   1.173   7.952   4.804
12746WAT     H238481   1.103   8.095   4.840
12747WAT      O38482   4.677   3.889   5.367
12747WAT     H138483   4.710   3.797   5.349
12747WAT     H238484   4.748   3.941   5.413
12748WAT      O38485   9.259   1.533   5.210
12748WAT     H138486   9.250   1.614   5.151
12748WAT     H238487   9.297   1.560   5.298
12749WAT      O38488   6.472   9.664   5.246
12749WAT     H138489   6.436   9.577   5.278
12749WAT     H238490   6.398   9.731   5.242
12750WAT      O38491   8.105   5.067   3.554
12750WAT     H138492   8.031   5.092   3.616
12750WAT     H238493   8.181   5.131   3.565
12751WAT      O38494   7.554   0.242   2.829
12751WAT     H138495   7.496   0.209   2.755
12751WAT     H238496   7.650   0.236   2.801
12752WAT      O38497   1.465   1.858   1.442
12752WAT     H138498   1.528   1.920   1.393
12752WAT     H238499   1.518   1.784   1.483
12753WAT      O38500   8.057   2.963   8.810
12753WAT     H138501   7.958   2.975   8.806
12753WAT     H238502   8.095   3.025   8.878
12754WAT      O38503   7.445   1.138   3.529
12754WAT     H138504   7.519   1.165   3.590
12754WAT     H238505   7.370   1.100   3.582
12755WAT      O38506   7.373   9.034   5.938
12755WAT     H138507   7.285   9.052   5.982
12755WAT     H238508   7.390   9.103   5.868
12756WAT      O38509   4.355   9.322   0.066
12756WAT     H138510   4.281   9.285   0.122
12756WAT     H238511   4.401   9.396   0.116
12757WAT      O38512   6.354   2.142   7.196
12757WAT     H138513   6.424   2.135   7.267
12757WAT     H238514   6.268   2.104   7.229
12758WAT      O38515   3.010   0.308   5.595
12758WAT     H138516   3.084   0.312   5.662
12758WAT     H238517   2.948   0.233   5.619
12759WAT      O38518   4.643   3.230   5.386
12759WAT     H138519   4.652   3.289   5.306
12759WAT     H238520   4.732   3.221   5.431
12760WAT      O38521   1.883   7.166   6.295
12760WAT     H138522   1.916   7.178   6.389
12760WAT     H238523   1.882   7.254   6.248
12761WAT      O38524   4.976   9.657   2.948
12761WAT     H138525   4.946   9.710   2.869
12761WAT     H238526   5.076   9.662   2.956
12762WAT      O38527   8.685   1.415   7.386
12762WAT     H138528   8.612   1.358   7.348
12762WAT     H238529   8.770   1.397   7.336
12763WAT      O38530   2.471   9.246   9.349
12763WAT     H138531   2.413   9.326   9.363
12763WAT     H238532   2.520   9.225   9.433
12764WAT      O38533   5.838   3.344   7.898
12764WAT     H138534   5.830   3.441   7.921
12764WAT     H238535   5.748   3.301   7.901
12765WAT      O38536   3.376   6.567   4.310
12765WAT     H138537   3.467   6.606   4.324
12765WAT     H238538   3.365   6.541   4.214
12766WAT      O38539   7.101   5.421   8.319
12766WAT     H138540   7.004   5.398   8.325
12766WAT     H238541   7.155   5.337   8.319
12767WAT      O38542   0.069   6.435   4.173
12767WAT     H138543   0.114   6.482   4.097
12767WAT     H238544   0.023   6.353   4.139
12768WAT      O38545   9.363   2.978   8.586
12768WAT     H138546   9.309   2.899   8.615
12768WAT     H238547   9.415   3.014   8.663
12769WAT      O38548   7.436   7.487   3.904
12769WAT     H138549   7.421   7.544   3.984
12769WAT     H238550   7.530   7.455   3.902
12770WAT      O38551   4.673   5.583   5.099
12770WAT     H138552   4.771   5.564   5.106
12770WAT     H238553   4.659   5.679   5.074
12771WAT      O38554   1.844   4.579   0.157
12771WAT     H138555   1.911   4.585   0.084
12771WAT     H238556   1.760   4.536   0.123
12772WAT      O38557   8.367   3.885   7.756
12772WAT     H138558   8.397   3.853   7.845
12772WAT     H238559   8.442   3.879   7.691
12773WAT      O38560   6.409   4.336   0.863
12773WAT     H138561   6.335   4.401   0.843
12773WAT     H238562   6.415   4.322   0.962
12774WAT      O38563   0.885   2.574   1.252
12774WAT     H138564   0.877   2.475   1.237
12774WAT     H238565   0.830   2.622   1.185
12775WAT      O38566   0.367   6.419   0.726
12775WAT     H138567   0.289   6.432   0.787
12775WAT     H238568   0.433   6.493   0.740
12776WAT      O38569   5.071   3.178   7.299
12776WAT     H138570   5.059   3.147   7.205
12776WAT     H238571   5.151   3.239   7.304
12777WAT      O38572   1.126   1.114   0.945
12777WAT     H138573   1.162   1.194   0.898
12777WAT     H238574   1.124   1.131   1.044
12778WAT      O38575   9.109   9.369   1.545
12778WAT     H138576   9.149   9.434   1.480
12778WAT     H238577   9.094   9.282   1.499
12779WAT      O38578   9.125   0.545   0.849
12779WAT     H138579   9.034   0.586   0.859
12779WAT     H238580   9.132   0.502   0.759
12780WAT      O38581   4.976   2.933   1.151
12780WAT     H138582   4.983   2.905   1.247
12780WAT     H238583   4.920   2.867   1.101
12781WAT      O38584   7.132   8.114   1.042
12781WAT     H138585   7.179   8.029   1.067
12781WAT     H238586   7.097   8.106   0.948
12782WAT      O38587   7.841   8.963   2.506
12782WAT     H138588   7.903   8.959   2.585
12782WAT     H238589   7.870   9.036   2.445
12783WAT      O38590   1.168   8.258   2.026
12783WAT     H138591   1.236   8.331   2.033
12783WAT     H238592   1.156   8.214   2.114
12784WAT      O38593   3.284   3.800   0.534
12784WAT     H138594   3.214   3.790   0.606
12784WAT     H238595   3.253   3.868   0.468
12785WAT      O38596   7.235   2.832   0.149
12785WAT     H138597   7.159   2.897   0.138
12785WAT     H238598   7.246   2.812   0.246
12786WAT      O38599   4.152   6.203   6.553
12786WAT     H138600   4.219   6.145   6.506
12786WAT     H238601   4.192   6.293   6.569
12787WAT      O38602   1.590   0.616   5.395
12787WAT     H138603   1.626   0.663   5.315
12787WAT     H238604   1.548   0.682   5.458
12788WAT      O38605   7.187   6.776   6.456
12788WAT     H138606   7.196   6.791   6.555
12788WAT     H238607   7.119   6.704   6.440
12789WAT      O38608   5.673   5.412   0.743
12789WAT     H138609   5.654   5.509   0.729
12789WAT     H238610   5.749   5.385   0.683
12790WAT      O38611   5.757   4.182   3.071
12790WAT     H138612   5.803   4.225   2.992
12790WAT     H238613   5.669   4.145   3.042
12791WAT      O38614   6.659   4.283   5.382
12791WAT     H138615   6.614   4.197   5.407
12791WAT     H238616   6.667   4.288   5.282
12792WAT      O38617   4.416   2.100   1.493
12792WAT     H138618   4.363   2.057   1.420
12792WAT     H238619   4.449   2.030   1.556
12793WAT      O38620   3.027   3.544   2.956
12793WAT     H138621   3.074   3.601   2.888
12793WAT     H238622   3.037   3.448   2.932
12794WAT      O38623   0.417   4.331   3.779
12794WAT     H138624   0.484   4.260   3.758
12794WAT     H238625   0.441   4.415   3.732
12795WAT      O38626   9.099   5.803   3.528
12795WAT     H138627   9.131   5.769   3.440
12795WAT     H238628   9.168   5.784   3.598
12796WAT      O38629   0.445   3.658   7.239
12796WAT     H138630   0.452   3.752   7.205
12796WAT     H238631   0.396   3.657   7.325
12797WAT      O38632   0.032   7.665   9.870
12797WAT     H138633  -0.019   7.668   9.956
12797WAT     H238634   0.127   7.640   9.889
12798WAT      O38635   1.095   6.406   0.003
12798WAT     H138636   1.087   6.492  -0.047
12798WAT     H238637   1.004   6.378   0.035
12799WAT      O38638   7.270   3.972   0.870
12799WAT     H138639   7.316   4.052   0.830
12799WAT     H238640   7.181   3.960   0.827
12800WAT      O38641   3.150   8.602   6.330
12800WAT     H138642   3.177   8.522   6.275
12800WAT     H238643   3.089   8.660   6.276
12801WAT      O38644   7.591   0.807   6.707
12801WAT     H138645   7.601   0.907   6.702
12801WAT     H238646   7.638   0.774   6.789
12802WAT      O38647   9.101   7.947   5.578
12802WAT     H138648   9.028   7.893   5.537
12802WAT     H238649   9.070   8.041   5.590
12803WAT      O38650   3.189   5.936   3.232
12803WAT     H138651   3.259   5.921   3.302
12803WAT     H238652   3.115   5.870   3.245
12804WAT      O38653   5.625   6.453   4.276
12804WAT     H138654   5.624   6.510   4.358
12804WAT     H238655   5.540   6.400   4.272
12805WAT      O38656   3.908   9.427   7.095
12805WAT     H138657   3.885   9.482   7.014
12805WAT     H238658   3.862   9.466   7.175
12806WAT      O38659   7.177   8.938   4.679
12806WAT     H138660   7.081   8.964   4.681
12806WAT     H238661   7.186   8.841   4.702
12807WAT      O38662   4.340   5.250   9.609
12807WAT     H138663   4.429   5.226   9.570
12807WAT     H238664   4.353   5.315   9.684
12808WAT      O38665   5.221   7.313   1.131
12808WAT     H138666   5.154   7.277   1.196
12808WAT     H238667   5.240   7.244   1.061
12809WAT      O38668   6.471   1.224   9.478
12809WAT     H138669   6.510   1.140   9.516
12809WAT     H238670   6.522   1.251   9.397
12810WAT      O38671   7.845   7.277   4.127
12810WAT     H138672   7.814   7.213   4.196
12810WAT     H238673   7.840   7.370   4.163
12811WAT      O38674   2.956   0.802   8.201
12811WAT     H138675   2.871   0.850   8.177
12811WAT     H238676   3.034   0.863   8.185
12812WAT      O38677   7.115   3.918   1.110
12812WAT     H138678   7.085   4.005   1.147
12812WAT     H238679   7.168   3.934   1.026
12813WAT      O38680   5.104   0.231   7.053
12813WAT     H138681   5.203   0.245   7.044
12813WAT     H238682   5.083   0.203   7.147
12814WAT      O38683   6.819   6.335   9.072
12814WAT     H138684   6.895   6.365   9.015
12814WAT     H238685   6.774   6.415   9.113
12815WAT      O38686   4.128   9.623   3.153
12815WAT     H138687   4.051   9.561   3.169
12815WAT     H238688   4.145   9.678   3.234
12816WAT      O38689   7.016   9.207   0.078
12816WAT     H138690   6.957   9.140   0.034
12816WAT     H238691   7.021   9.289   0.021
12817WAT      O38692   1.346   0.211   8.365
12817WAT     H138693   1.334   0.114   8.385
12817WAT     H238694   1.348   0.225   8.266
12818WAT      O38695   2.856   2.067   8.847
12818WAT     H138696   2.816   2.027   8.929
12818WAT     H238697   2.819   2.159   8.833
12819WAT      O38698   6.205   2.540   4.127
12819WAT     H138699   6.256   2.527   4.212
12819WAT     H238700   6.231   2.628   4.087
12820WAT      O38701   6.646   2.409   9.367
12820WAT     H138702   6.630   2.459   9.282
12820WAT     H238703   6.674   2.473   9.439
12821WAT      O38704   6.524   2.006   2.686
12821WAT     H138705   6.498   2.012   2.783
12821WAT     H238706   6.623   1.991   2.680
12822WAT      O38707   0.765   2.233   4.523
12822WAT     H138708   0.820   2.312   4.497
12822WAT     H238709   0.825   2.164   4.564
12823WAT      O38710   6.530   3.529   2.365
12823WAT     H138711   6.562   3.435   2.372
12823WAT     H238712   6.508   3.550   2.270
12824WAT      O38713   7.324   3.293   1.793
12824WAT     H138714   7.382   3.351   1.850
12824WAT     H238715   7.363   3.201   1.789
12825WAT      O38716   6.920   8.430   6.280
12825WAT     H138717   6.910   8.334   6.304
12825WAT     H238718   6.976   8.438   6.197
12826WAT      O38719   3.448   0.636   8.215
12826WAT     H138720   3.451   0.565   8.145
12826WAT     H238721   3.496   0.717   8.182
12827WAT      O38722   4.604   8.068   7.379
12827WAT     H138723   4.694   8.084   7.420
12827WAT     H238724   4.550   8.009   7.439
12828WAT      O38725   1.248   3.949   1.287
12828WAT     H138726   1.332   3.893   1.293
12828WAT     H238727   1.192   3.916   1.211
12829WAT      O38728   8.858   0.358   7.616
12829WAT     H138729   8.910   0.431   7.572
12829WAT     H238730   8.774   0.396   7.656
12830WAT      O38731   1.172   3.202   5.300
12830WAT     H138732   1.249   3.262   5.320
12830WAT     H238733   1.203   3.121   5.250
12831WAT      O38734   3.654   9.216   4.638
12831WAT     H138735   3.676   9.123   4.668
12831WAT     H238736   3.560   9.220   4.606
12832WAT      O38737   7.885   7.808   3.418
12832WAT     H138738   7.880   7.870   3.340
12832WAT     H238739   7.978   7.773   3.427
12833WAT      O38740   0.168   1.491   0.465
12833WAT     H138741   0.074   1.481   0.431
12833WAT     H238742   0.211   1.401   0.472
12834WAT      O38743   5.092   1.347   0.814
12834WAT     H138744   5.015   1.284   0.802
12834WAT     H238745   5.094   1.380   0.908
12835WAT      O38746   6.725   8.342   2.461
12835WAT     H138747   6.729   8.439   2.485
12835WAT     H238748   6.705   8.332   2.364
12836WAT      O38749   0.643   8.248   3.881
12836WAT     H138750   0.653   8.229   3.784
12836WAT     H238751   0.662   8.166   3.934
12837WAT      O38752   5.512   0.584   8.702
12837WAT     H138753   5.540   0.667   8.653
12837WAT     H238754   5.567   0.576   8.786
12838WAT      O38755   6.083   3.689   2.920
12838WAT     H138756   5.997   3.740   2.923
12838WAT     H238757   6.157   3.751   2.892
12839WAT      O38758   5.829   1.731   4.815
12839WAT     H138759   5.923   1.697   4.808
12839WAT     H238760   5.775   1.668   4.872
12840WAT      O38761   6.009   6.726   7.905
12840WAT     H138762   6.080   6.772   7.957
12840WAT     H238763   5.940   6.792   7.876
12841WAT      O38764   0.658   4.317   9.277
12841WAT     H138765   0.653   4.415   9.258
12841WAT     H238766   0.742   4.280   9.238
12842WAT      O38767   9.167   5.741   3.266
12842WAT     H138768   9.124   5.660   3.226
12842WAT     H238769   9.254   5.759   3.220
12843WAT      O38770   8.493   7.385   7.315
12843WAT     H138771   8.535   7.470   7.346
12843WAT     H238772   8.490   7.320   7.390
12844WAT      O38773   6.039   6.000   4.820
12844WAT     H138774   6.138   6.011   4.819
12844WAT     H238775   6.000   6.054   4.894
12845WAT      O38776   0.692   7.841   8.325
12845WAT     H138777   0.674   7.864   8.421
12845WAT     H238778   0.695   7.741   8.315
12846WAT      O38779   9.384   3.156   7.693
12846WAT     H138780   9.470   3.179   7.740
12846WAT     H238781   9.355   3.064   7.721
12847WAT      O38782   7.867   7.402   3.660
12847WAT     H138783   7.920   7.380   3.578
12847WAT     H238784   7.927   7.442   3.729
12848WAT      O38785   2.905   8.989   7.975
12848WAT     H138786   2.892   9.040   7.890
12848WAT     H238787   2.817   8.975   8.021
12849WAT      O38788   5.802   0.424   9.164
12849WAT     H138789   5.893   0.449   9.197
12849WAT     H238790   5.781   0.330   9.192
12850WAT      O38791   8.141   2.737   6.659
12850WAT     H138792   8.223   2.688   6.690
12850WAT     H238793   8.079   2.674   6.614
12851WAT      O38794   6.164   1.951   7.624
12851WAT     H138795   6.115   2.007   7.691
12851WAT     H238796   6.143   1.855   7.640
12852WAT      O38797   7.356   2.317   9.134
12852WAT     H138798   7.320   2.410   9.124
12852WAT     H238799   7.296   2.263   9.193
12853WAT      O38800   7.495   0.111   4.136
12853WAT     H138801   7.535   0.201   4.123
12853WAT     H238802   7.420   0.117   4.202
12854WAT      O38803   2.306   8.603   9.391
12854WAT     H138804   2.243   8.659   9.338
12854WAT     H238805   2.336   8.525   9.336
12855WAT      O38806   8.841   4.693   0.170
12855WAT     H138807   8.934   4.718   0.194
12855WAT     H238808   8.776   4.740   0.230
12856WAT      O38809   3.863   5.594   5.166
12856WAT     H138810   3.821   5.514   5.209
12856WAT     H238811   3.792   5.659   5.138
12857WAT      O38812   3.801   1.599   4.782
12857WAT     H138813   3.770   1.509   4.754
12857WAT     H238814   3.768   1.619   4.875
12858WAT      O38815   1.463   7.871   6.284
12858WAT     H138816   1.496   7.954   6.238
12858WAT     H238817   1.429   7.895   6.375
12859WAT      O38818   4.598   0.252   8.025
12859WAT     H138819   4.578   0.154   8.031
12859WAT     H238820   4.692   0.265   7.993
12860WAT      O38821   5.827   0.654   6.409
12860WAT     H138822   5.926   0.643   6.416
12860WAT     H238823   5.787   0.652   6.500
12861WAT      O38824   3.067   2.730   5.286
12861WAT     H138825   3.104   2.655   5.232
12861WAT     H238826   3.134   2.805   5.291
12862WAT      O38827   2.505   2.338   2.850
12862WAT     H138828   2.505   2.239   2.832
12862WAT     H238829   2.433   2.381   2.796
12863WAT      O38830   2.243   6.099   3.729
12863WAT     H138831   2.253   6.002   3.708
12863WAT     H238832   2.214   6.110   3.824
12864WAT      O38833   9.433   3.612   6.604
12864WAT     H138834   9.486   3.656   6.532
12864WAT     H238835   9.336   3.613   6.580
12865WAT      O38836   9.548   9.532   3.311
12865WAT     H138837   9.614   9.498   3.378
12865WAT     H238838   9.593   9.543   3.223
12866WAT      O38839   0.456   8.878   1.987
12866WAT     H138840   0.516   8.950   1.950
12866WAT     H238841   0.374   8.871   1.930
12867WAT      O38842   3.657   1.972   5.879
12867WAT     H138843   3.589   2.043   5.860
12867WAT     H238844   3.746   2.016   5.899
12868WAT      O38845   2.921   0.340   0.811
12868WAT     H138846   2.972   0.325   0.896
12868WAT     H238847   2.984   0.349   0.735
12869WAT      O38848   7.392   0.402   9.628
12869WAT     H138849   7.348   0.348   9.557
12869WAT     H238850   7.490   0.380   9.632
12870WAT      O38851   6.360   9.311   4.215
12870WAT     H138852   6.280   9.336   4.271
12870WAT     H238853   6.342   9.224   4.170
12871WAT      O38854   6.539   6.202   1.255
12871WAT     H138855   6.531   6.212   1.155
12871WAT     H238856   6.635   6.209   1.281
12872WAT      O38857   3.365   8.627   1.808
12872WAT     H138858   3.455   8.663   1.833
12872WAT     H238859   3.371   8.528   1.794
12873WAT      O38860   9.359   7.975   5.541
12873WAT     H138861   9.268   7.940   5.563
12873WAT     H238862   9.400   8.013   5.624
12874WAT      O38863   6.649   3.195   8.434
12874WAT     H138864   6.653   3.100   8.404
12874WAT     H238865   6.714   3.250   8.380
12875WAT      O38866   1.437   2.147   2.502
12875WAT     H138867   1.495   2.227   2.489
12875WAT     H238868   1.483   2.081   2.560
12876WAT      O38869   3.229   3.294   2.693
12876WAT     H138870   3.254   3.202   2.663
12876WAT     H238871   3.191   3.289   2.786
12877WAT      O38872   7.062   9.486   5.749
12877WAT     H138873   6.966   9.503   5.726
12877WAT     H238874   7.067   9.426   5.829
12878WAT      O38875   5.455   5.663   9.557
12878WAT     H138876   5.491   5.709   9.638
12878WAT     H238877   5.435   5.568   9.579
12879WAT      O38878   2.556   6.843   8.239
12879WAT     H138879   2.539   6.864   8.142
12879WAT     H238880   2.640   6.789   8.247
12880WAT      O38881   4.244   6.179   2.206
12880WAT     H138882   4.279   6.094   2.166
12880WAT     H238883   4.251   6.174   2.306
12881WAT      O38884   1.203   6.351   6.356
12881WAT     H138885   1.207   6.405   6.440
12881WAT     H238886   1.117   6.301   6.352
12882WAT      O38887   7.015   3.639   7.571
12882WAT     H138888   7.090   3.698   7.601
12882WAT     H238889   7.012   3.557   7.628
12883WAT      O38890   7.111   6.366   9.055
12883WAT     H138891   7.089   6.359   9.152
12883WAT     H238892   7.161   6.284   9.026
12884WAT      O38893   4.681   1.911   8.923
12884WAT     H138894   4.659   1.814   8.933
12884WAT     H238895   4.675   1.936   8.826
12885WAT      O38896   7.372   8.698   4.046
12885WAT     H138897   7.375   8.680   4.145
12885WAT     H238898   7.354   8.795   4.031
12886WAT      O38899   4.834   8.060   2.947
12886WAT     H138900   4.930   8.085   2.954
12886WAT     H238901   4.793   8.059   3.039
12887WAT      O38902   2.016   0.684   3.322
12887WAT     H138903   2.100   0.734   3.342
12887WAT     H238904   1.974   0.653   3.408
12888WAT      O38905   4.898   3.619   8.757
12888WAT     H138906   4.921   3.569   8.674
12888WAT     H238907   4.967   3.602   8.827
12889WAT      O38908   2.181   3.867   4.006
12889WAT     H138909   2.146   3.808   4.079
12889WAT     H238910   2.269   3.905   4.034
12890WAT      O38911   7.149   0.085   3.855
12890WAT     H138912   7.079   0.047   3.916
12890WAT     H238913   7.109   0.101   3.764
12891WAT      O38914   3.820   8.401   2.633
12891WAT     H138915   3.735   8.454   2.638
12891WAT     H238916   3.800   8.308   2.604
12892WAT      O38917   3.729   6.090   5.871
12892WAT     H138918   3.817   6.113   5.829
12892WAT     H238919   3.699   6.001   5.839
12893WAT      O38920   9.246   1.469   2.898
12893WAT     H138921   9.160   1.459   2.848
12893WAT     H238922   9.245   1.409   2.978
12894WAT      O38923   2.310   4.693   2.165
12894WAT     H138924   2.229   4.724   2.114
12894WAT     H238925   2.393   4.723   2.118
12895WAT      O38926   9.529   1.594   4.415
12895WAT     H138927   9.626   1.573   4.402
12895WAT     H238928   9.489   1.621   4.328
12896WAT      O38929   4.670   5.073   4.207
12896WAT     H138930   4.686   5.019   4.290
12896WAT     H238931   4.671   5.013   4.127
12897WAT      O38932   4.264   2.170   3.496
12897WAT     H138933   4.306   2.116   3.423
12897WAT     H238934   4.271   2.267   3.473
12898WAT      O38935   3.808   3.142   5.759
12898WAT     H138936   3.755   3.065   5.795
12898WAT     H238937   3.791   3.152   5.661
12899WAT      O38938   0.713   6.914   3.264
12899WAT     H138939   0.681   6.820   3.253
12899WAT     H238940   0.768   6.921   3.347
12900WAT      O38941   6.622   0.227   6.750
12900WAT     H138942   6.640   0.227   6.849
12900WAT     H238943   6.707   0.243   6.700
12901WAT      O38944   8.836   5.264   0.632
12901WAT     H138945   8.755   5.311   0.668
12901WAT     H238946   8.874   5.205   0.703
12902WAT      O38947   0.452   8.566   4.938
12902WAT     H138948   0.498   8.653   4.958
12902WAT     H238949   0.454   8.549   4.839
12903WAT      O38950   2.174   4.160   2.086
12903WAT     H138951   2.089   4.126   2.124
12903WAT     H238952   2.194   4.250   2.123
12904WAT      O38953   5.302   5.171   7.084
12904WAT     H138954   5.345   5.139   7.000
12904WAT     H238955   5.312   5.270   7.092
12905WAT      O38956   1.514   3.988   0.418
12905WAT     H138957   1.415   4.001   0.419
12905WAT     H238958   1.551   4.025   0.333
12906WAT      O38959   8.187   3.378   2.938
12906WAT     H138960   8.131   3.295   2.930
12906WAT     H238961   8.146   3.451   2.883
12907WAT      O38962   4.502   9.257   2.630
12907WAT     H138963   4.531   9.180   2.686
12907WAT     H238964   4.406   9.279   2.650
12908WAT      O38965   0.688   9.824   0.270
12908WAT     H138966   0.768   9.857   0.220
12908WAT     H238967   0.704   9.833   0.368
12909WAT      O38968   0.470   2.738   1.437
12909WAT     H138969   0.418   2.748   1.351
12909WAT     H238970   0.560   2.782   1.426
12910WAT      O38971   7.910   4.529   3.890
12910WAT     H138972   7.877   4.514   3.797
12910WAT     H238973   7.941   4.624   3.900
12911WAT      O38974   4.056   8.833   1.901
12911WAT     H138975   4.124   8.790   1.842
12911WAT     H238976   4.046   8.781   1.985
12912WAT      O38977   7.261   3.495   8.890
12912WAT     H138978   7.231   3.587   8.866
12912WAT     H238979   7.351   3.499   8.932
12913WAT      O38980   1.060   0.593   7.736
12913WAT     H138981   1.054   0.500   7.772
12913WAT     H238982   1.113   0.592   7.651
12914WAT      O38983   1.816   5.705   4.109
12914WAT     H138984   1.724   5.725   4.075
12914WAT     H238985   1.845   5.615   4.077
12915WAT      O38986   3.965   4.933   8.183
12915WAT     H138987   3.884   4.991   8.187
12915WAT     H238988   3.980   4.889   8.272
12916WAT      O38989   3.901   5.632   0.361
12916WAT     H138990   3.920   5.534   0.354
12916WAT     H238991   3.964   5.681   0.301
12917WAT      O38992   7.761   2.577   3.951
12917WAT     H138993   7.833   2.646   3.955
12917WAT     H238994   7.734   2.551   4.043
12918WAT      O38995   4.284   5.167   6.613
12918WAT     H138996   4.338   5.162   6.530
12918WAT     H238997   4.233   5.253   6.615
12919WAT      O38998   1.009   1.908   0.940
12919WAT     H138999   1.011   1.824   0.887
12919WAT     H239000   0.953   1.976   0.892
12920WAT      O39001   2.811   8.352   1.352
12920WAT     H139002   2.792   8.450   1.356
12920WAT     H239003   2.745   8.303   1.409
12921WAT      O39004   9.122   0.237   9.312
12921WAT     H139005   9.055   0.310   9.326
12921WAT     H239006   9.088   0.174   9.241
12922WAT      O39007   9.831   4.497   9.772
12922WAT     H139008   9.743   4.504   9.820
12922WAT     H239009   9.826   4.550   9.687
12923WAT      O39010   4.061   2.393   0.112
12923WAT     H139011   4.000   2.321   0.080
12923WAT     H239012   4.112   2.361   0.192
12924WAT      O39013   9.301   8.626   6.589
12924WAT     H139014   9.251   8.545   6.557
12924WAT     H239015   9.399   8.611   6.578
12925WAT      O39016   0.501   5.264   3.890
12925WAT     H139017   0.523   5.236   3.984
12925WAT     H239018   0.507   5.364   3.883
12926WAT      O39019   8.904   6.244   5.283
12926WAT     H139020   8.823   6.271   5.335
12926WAT     H239021   8.954   6.174   5.335
12927WAT      O39022   6.664   6.458   2.031
12927WAT     H139023   6.621   6.548   2.030
12927WAT     H239024   6.605   6.393   1.984
12928WAT      O39025   7.770   8.874   7.436
12928WAT     H139026   7.790   8.776   7.441
12928WAT     H239027   7.724   8.895   7.350
12929WAT      O39028   5.449   2.156   1.626
12929WAT     H139029   5.407   2.119   1.708
12929WAT     H239030   5.549   2.153   1.635
12930WAT      O39031   6.218   3.821   0.924
12930WAT     H139032   6.125   3.826   0.887
12930WAT     H239033   6.284   3.829   0.850
12931WAT      O39034   0.612   6.884   6.639
12931WAT     H139035   0.527   6.844   6.673
12931WAT     H239036   0.638   6.840   6.553
12932WAT      O39037   8.523   0.722   6.495
12932WAT     H139038   8.614   0.713   6.535
12932WAT     H239039   8.454   0.718   6.568
12933WAT      O39040   4.749   6.153   1.493
12933WAT     H139041   4.847   6.172   1.490
12933WAT     H239042   4.732   6.073   1.551
12934WAT      O39043   3.199   8.225   6.604
12934WAT     H139044   3.224   8.149   6.544
12934WAT     H239045   3.111   8.263   6.575
12935WAT      O39046   7.307   4.566   3.578
12935WAT     H139047   7.405   4.582   3.591
12935WAT     H239048   7.267   4.534   3.663
12936WAT      O39049   9.872   2.707   5.767
12936WAT     H139050   9.884   2.687   5.670
12936WAT     H239051   9.913   2.795   5.788
12937WAT      O39052   7.459   0.258   4.573
12937WAT     H139053   7.445   0.163   4.600
12937WAT     H239054   7.416   0.319   4.639
12938WAT      O39055   3.833   8.965   1.552
12938WAT     H139056   3.808   9.002   1.641
12938WAT     H239057   3.862   9.039   1.492
12939WAT      O39058   8.138   8.794   6.639
12939WAT     H139059   8.178   8.766   6.552
12939WAT     H239060   8.193   8.758   6.714
12940WAT      O39061   1.023   7.350   8.547
12940WAT     H139062   1.003   7.260   8.586
12940WAT     H239063   0.963   7.418   8.588
12941WAT      O39064   2.021   8.594   5.100
12941WAT     H139065   2.037   8.692   5.112
12941WAT     H239066   2.025   8.548   5.189
12942WAT      O39067   6.801   5.818   3.422
12942WAT     H139068   6.766   5.894   3.475
12942WAT     H239069   6.887   5.845   3.377
12943WAT      O39070   9.786   7.197   6.752
12943WAT     H139071   9.814   7.119   6.808
12943WAT     H239072   9.865   7.235   6.705
12944WAT      O39073   7.116   7.647   3.521
12944WAT     H139074   7.029   7.682   3.487
12944WAT     H239075   7.181   7.641   3.446
12945WAT      O39076   3.472   0.274   7.588
12945WAT     H139077   3.432   0.360   7.621
12945WAT     H239078   3.426   0.197   7.631
12946WAT      O39079   1.372   1.351   9.052
12946WAT     H139080   1.337   1.353   8.959
12946WAT     H239081   1.326   1.278   9.104
12947WAT      O39082   3.388   0.133   6.370
12947WAT     H139083   3.403   0.080   6.454
12947WAT     H239084   3.363   0.070   6.296
12948WAT      O39085   0.536   2.856   6.458
12948WAT     H139086   0.461   2.792   6.475
12948WAT     H239087   0.530   2.890   6.364
12949WAT      O39088   0.566   3.051   0.284
12949WAT     H139089   0.518   3.061   0.371
12949WAT     H239090   0.663   3.033   0.302
12950WAT      O39091   7.630   7.921   5.911
12950WAT     H139092   7.575   7.935   5.994
12950WAT     H239093   7.649   8.010   5.869
12951WAT      O39094   3.364   2.105   4.110
12951WAT     H139095   3.430   2.101   4.185
12951WAT     H239096   3.382   2.030   4.046
12952WAT      O39097   8.829   8.375   4.470
12952WAT     H139098   8.903   8.433   4.435
12952WAT     H239099   8.787   8.325   4.394
12953WAT      O39100   2.261   3.894   2.702
12953WAT     H139101   2.328   3.944   2.758
12953WAT     H239102   2.244   3.804   2.744
12954WAT      O39103   8.609   7.728   3.202
12954WAT     H139104   8.676   7.799   3.182
12954WAT     H239105   8.656   7.645   3.233
12955WAT      O39106   4.071   2.603   4.022
12955WAT     H139107   4.054   2.701   4.028
12955WAT     H239108   4.111   2.571   4.109
12956WAT      O39109   3.419   3.411   2.932
12956WAT     H139110   3.408   3.496   2.985
12956WAT     H239111   3.379   3.423   2.841
12957WAT      O39112   1.772   9.586   4.162
12957WAT     H139113   1.736   9.660   4.106
12957WAT     H239114   1.865   9.564   4.132
12958WAT      O39115   4.048   2.697   7.113
12958WAT     H139116   3.971   2.760   7.110
12958WAT     H239117   4.075   2.673   7.020
12959WAT      O39118   8.165   6.855   0.895
12959WAT     H139119   8.238   6.787   0.888
12959WAT     H239120   8.093   6.833   0.828
12960WAT      O39121   1.293   9.148   3.627
12960WAT     H139122   1.369   9.141   3.563
12960WAT     H239123   1.285   9.063   3.679
12961WAT      O39124   7.516   2.090   6.125
12961WAT     H139125   7.461   2.116   6.045
12961WAT     H239126   7.610   2.072   6.097
12962WAT      O39127   0.788   1.602   3.061
12962WAT     H139128   0.753   1.515   3.027
12962WAT     H239129   0.812   1.593   3.157
12963WAT      O39130   7.990   8.103   0.865
12963WAT     H139131   8.039   8.015   0.865
12963WAT     H239132   8.052   8.175   0.835
12964WAT      O39133   5.651   7.917   8.198
12964WAT     H139134   5.693   7.977   8.266
12964WAT     H239135   5.643   7.965   8.111
12965WAT      O39136   9.842   6.353   2.787
12965WAT     H139137   9.914   6.361   2.717
12965WAT     H239138   9.849   6.429   2.851
12966WAT      O39139   5.737   3.642   0.410
12966WAT     H139140   5.800   3.718   0.389
12966WAT     H239141   5.780   3.556   0.385
12967WAT      O39142   3.361   8.585   0.588
12967WAT     H139143   3.304   8.506   0.608
12967WAT     H239144   3.304   8.666   0.577
12968WAT      O39145   5.711   7.032   6.455
12968WAT     H139146   5.614   7.034   6.479
12968WAT     H239147   5.727   6.963   6.384
12969WAT      O39148   1.381   6.663   6.172
12969WAT     H139149   1.479   6.664   6.193
12969WAT     H239150   1.335   6.736   6.223
12970WAT      O39151   7.073   3.302   1.902
12970WAT     H139152   7.068   3.372   1.973
12970WAT     H239153   7.166   3.299   1.866
12971WAT      O39154   2.971   8.205   2.512
12971WAT     H139155   2.890   8.149   2.493
12971WAT     H239156   2.945   8.281   2.571
12972WAT      O39157   2.737   8.052   6.508
12972WAT     H139158   2.652   8.105   6.505
12972WAT     H239159   2.785   8.071   6.594
12973WAT      O39160   0.207   0.117   1.580
12973WAT     H139161   0.188   0.132   1.483
12973WAT     H239162   0.175   0.196   1.633
12974WAT      O39163   5.611   8.063   5.481
12974WAT     H139164   5.560   8.109   5.555
12974WAT     H239165   5.700   8.034   5.515
12975WAT      O39166   5.017   7.984   8.425
12975WAT     H139167   5.026   8.046   8.347
12975WAT     H239168   4.931   7.933   8.417
12976WAT      O39169   0.145   7.596   3.675
12976WAT     H139170   0.075   7.654   3.634
12976WAT     H239171   0.207   7.564   3.603
12977WAT      O39172   0.028   4.517   1.620
12977WAT     H139173   0.022   4.536   1.522
12977WAT     H239174   0.019   4.419   1.636
12978WAT      O39175   3.838   6.162   9.098
12978WAT     H139176   3.864   6.239   9.040
12978WAT     H239177   3.913   6.139   9.159
12979WAT      O39178   6.274   1.130   5.838
12979WAT     H139179   6.300   1.114   5.933
12979WAT     H239180   6.174   1.121   5.829
12980WAT      O39181   4.672   4.935   1.389
12980WAT     H139182   4.765   4.954   1.359
12980WAT     H239183   4.669   4.848   1.438
12981WAT      O39184   4.926   4.177   9.809
12981WAT     H139185   4.859   4.135   9.870
12981WAT     H239186   4.894   4.169   9.714
12982WAT      O39187   6.558   9.402   8.258
12982WAT     H139188   6.460   9.423   8.266
12982WAT     H239189   6.573   9.343   8.179
12983WAT      O39190   4.493   1.792   0.763
12983WAT     H139191   4.485   1.887   0.732
12983WAT     H239192   4.483   1.731   0.685
12984WAT      O39193   5.278   8.085   2.396
12984WAT     H139194   5.282   8.116   2.301
12984WAT     H239195   5.182   8.073   2.423
12985WAT      O39196   7.391   8.561   5.510
12985WAT     H139197   7.376   8.659   5.511
12985WAT     H239198   7.442   8.534   5.592
12986WAT      O39199   3.505   5.508   1.904
12986WAT     H139200   3.553   5.428   1.941
12986WAT     H239201   3.481   5.491   1.808
12987WAT      O39202   5.092   1.378   4.545
12987WAT     H139203   5.058   1.295   4.502
12987WAT     H239204   5.090   1.368   4.644
12988WAT      O39205   1.852   2.476   7.666
12988WAT     H139206   1.764   2.516   7.689
12988WAT     H239207   1.881   2.415   7.739
12989WAT      O39208   8.230   5.492   9.769
12989WAT     H139209   8.234   5.434   9.851
12989WAT     H239210   8.228   5.434   9.688
12990WAT      O39211   8.467   5.708   4.808
12990WAT     H139212   8.527   5.655   4.868
12990WAT     H239213   8.445   5.655   4.726
12991WAT      O39214   3.314   3.253   0.602
12991WAT     H139215   3.219   3.226   0.613
12991WAT     H239216   3.335   3.327   0.667
12992WAT      O39217   6.922   4.612   2.097
12992WAT     H139218   6.855   4.683   2.115
12992WAT     H239219   6.909   4.537   2.162
12993WAT      O39220   1.818   7.278   8.566
12993WAT     H139221   1.839   7.214   8.639
12993WAT     H239222   1.769   7.357   8.604
12994WAT      O39223   4.013   5.608   9.819
12994WAT     H139224   3.973   5.522   9.850
12994WAT     H239225   3.955   5.648   9.748
12995WAT      O39226   1.463   9.789   3.065
12995WAT     H139227   1.459   9.798   3.165
12995WAT     H239228   1.506   9.870   3.026
12996WAT      O39229   2.997   2.305   8.457
12996WAT     H139230   2.988   2.292   8.358
12996WAT     H239231   2.906   2.312   8.497
12997WAT      O39232   7.231   1.890   2.113
12997WAT     H139233   7.325   1.924   2.109
12997WAT     H239234   7.207   1.869   2.208
12998WAT      O39235   6.396   3.719   7.727
12998WAT     H139236   6.338   3.734   7.647
12998WAT     H239237   6.345   3.741   7.810
12999WAT      O39238   1.372   8.492   1.537
12999WAT     H139239   1.431   8.431   1.590
12999WAT     H239240   1.416   8.581   1.528
13000WAT      O39241   4.293   3.933   7.704
13000WAT     H139242   4.248   4.021   7.718
13000WAT     H239243   4.392   3.947   7.693
13001WAT      O39244   3.573   1.838   2.751
13001WAT     H139245   3.583   1.930   2.713
13001WAT     H239246   3.528   1.844   2.840
13002WAT      O39247   9.777   7.477   3.111
13002WAT     H139248   9.871   7.453   3.085
13002WAT     H239249   9.719   7.395   3.105
13003WAT      O39250   8.695   4.116   0.331
13003WAT     H139251   8.685   4.077   0.422
13003WAT     H239252   8.785   4.092   0.294
13004WAT      O39253   5.681   6.113   4.068
13004WAT     H139254   5.709   6.207   4.083
13004WAT     H239255   5.584   6.103   4.090
13005WAT      O39256   1.732   2.614   2.771
13005WAT     H139257   1.718   2.713   2.774
13005WAT     H239258   1.818   2.594   2.725
13006WAT      O39259   6.786   6.182   2.333
13006WAT     H139260   6.718   6.188   2.406
13006WAT     H239261   6.765   6.249   2.262
13007WAT      O39262   7.815   2.864   3.932
13007WAT     H139263   7.889   2.917   3.973
13007WAT     H239264   7.736   2.924   3.916
13008WAT      O39265   3.202   2.546   0.527
13008WAT     H139266   3.109   2.514   0.505
13008WAT     H239267   3.210   2.560   0.626
13009WAT      O39268   3.526   2.701   6.589
13009WAT     H139269   3.544   2.705   6.490
13009WAT     H239270   3.543   2.791   6.629
13010WAT      O39271   2.588   3.508   1.967
13010WAT     H139272   2.522   3.583   1.978
13010WAT     H239273   2.661   3.537   1.906
13011WAT      O39274   3.716   8.985   2.308
13011WAT     H139275   3.749   8.896   2.277
13011WAT     H239276   3.641   8.971   2.374
13012WAT      O39277   1.383   3.263   9.511
13012WAT     H139278   1.325   3.309   9.579
13012WAT     H239279   1.476   3.301   9.516
13013WAT      O39280   0.611   3.349   6.299
13013WAT     H139281   0.629   3.301   6.385
13013WAT     H239282   0.533   3.307   6.253
13014WAT      O39283   0.346   9.532   9.877
13014WAT     H139284   0.261   9.534   9.823
13014WAT     H239285   0.423   9.509   9.817
13015WAT      O39286   7.255   8.975   6.622
13015WAT     H139287   7.342   9.022   6.604
13015WAT     H239288   7.249   8.894   6.564
13016WAT      O39289   0.951   1.804   3.814
13016WAT     H139290   0.875   1.757   3.768
13016WAT     H239291   0.962   1.767   3.906
13017WAT      O39292   3.434   6.540   1.598
13017WAT     H139293   3.345   6.541   1.643
13017WAT     H239294   3.478   6.629   1.611
13018WAT      O39295   9.707   2.170   4.634
13018WAT     H139296   9.624   2.133   4.592
13018WAT     H239297   9.750   2.099   4.689
13019WAT      O39298   9.715   2.223   4.218
13019WAT     H139299   9.791   2.203   4.279
13019WAT     H239300   9.699   2.322   4.214
13020WAT      O39301   8.352   2.931   0.218
13020WAT     H139302   8.427   2.898   0.162
13020WAT     H239303   8.364   3.029   0.236
13021WAT      O39304   3.302   3.518   6.794
13021WAT     H139305   3.250   3.442   6.754
13021WAT     H239306   3.284   3.601   6.742
13022WAT      O39307   2.438   8.462   2.162
13022WAT     H139308   2.509   8.468   2.091
13022WAT     H239309   2.385   8.379   2.149
13023WAT      O39310   3.334   9.455   1.674
13023WAT     H139311   3.274   9.531   1.698
13023WAT     H239312   3.330   9.385   1.745
13024WAT      O39313   3.795   1.747   2.875
13024WAT     H139314   3.704   1.771   2.839
13024WAT     H239315   3.815   1.803   2.955
13025WAT      O39316   7.904   4.439   3.558
13025WAT     H139317   7.904   4.374   3.482
13025WAT     H239318   7.819   4.429   3.610
13026WAT      O39319   3.886   6.450   6.559
13026WAT     H139320   3.949   6.444   6.481
13026WAT     H239321   3.935   6.484   6.639
13027WAT      O39322   7.749   8.201   0.503
13027WAT     H139323   7.777   8.190   0.407
13027WAT     H239324   7.800   8.276   0.544
13028WAT      O39325   6.028   7.851   4.571
13028WAT     H139326   6.006   7.789   4.497
13028WAT     H239327   6.014   7.805   4.659
13029WAT      O39328   3.425   4.796   1.899
13029WAT     H139329   3.447   4.807   1.996
13029WAT     H239330   3.508   4.776   1.848
13030WAT      O39331   2.368   3.888   0.491
13030WAT     H139332   2.350   3.875   0.393
13030WAT     H239333   2.329   3.975   0.521
13031WAT      O39334   8.658   2.460   7.930
13031WAT     H139335   8.583   2.446   7.995
13031WAT     H239336   8.629   2.525   7.859
13032WAT      O39337   8.470   2.154   4.995
13032WAT     H139338   8.568   2.152   4.976
13032WAT     H239339   8.421   2.099   4.927
13033WAT      O39340   2.409   1.964   2.000
13033WAT     H139341   2.397   1.876   2.046
13033WAT     H239342   2.436   2.033   2.066
13034WAT      O39343   7.730   3.749   9.751
13034WAT     H139344   7.696   3.698   9.672
13034WAT     H239345   7.765   3.837   9.721
13035WAT      O39346   6.151   4.330   0.076
13035WAT     H139347   6.160   4.314  -0.022
13035WAT     H239348   6.066   4.288   0.109
13036WAT      O39349   8.876   2.536   5.487
13036WAT     H139350   8.849   2.619   5.438
13036WAT     H239351   8.822   2.458   5.454
13037WAT      O39352   1.037   4.112   2.710
13037WAT     H139353   1.048   4.052   2.790
13037WAT     H239354   0.980   4.190   2.734
13038WAT      O39355   2.373   3.645   7.896
13038WAT     H139356   2.376   3.567   7.959
13038WAT     H239357   2.367   3.612   7.802
13039WAT      O39358   6.322   6.838   6.902
13039WAT     H139359   6.376   6.896   6.840
13039WAT     H239360   6.295   6.891   6.982
13040WAT      O39361   4.661   4.917   1.781
13040WAT     H139362   4.716   4.834   1.789
13040WAT     H239363   4.720   4.996   1.768
13041WAT      O39364   8.852   4.106   8.901
13041WAT     H139365   8.856   4.051   8.818
13041WAT     H239366   8.857   4.203   8.877
13042WAT      O39367   4.739   5.948   2.878
13042WAT     H139368   4.719   5.991   2.790
13042WAT     H239369   4.815   5.996   2.923
13043WAT      O39370   0.274   4.724   2.752
13043WAT     H139371   0.209   4.649   2.770
13043WAT     H239372   0.224   4.810   2.744
13044WAT      O39373   2.034   1.391   5.469
13044WAT     H139374   2.114   1.450   5.455
13044WAT     H239375   2.005   1.353   5.382
13045WAT      O39376   8.514   0.013   2.754
13045WAT     H139377   8.590   0.072   2.727
13045WAT     H239378   8.510   0.008   2.854
13046WAT      O39379   6.134   6.711   6.704
13046WAT     H139380   6.184   6.761   6.774
13046WAT     H239381   6.094   6.776   6.639
13047WAT      O39382   7.702   2.709   5.429
13047WAT     H139383   7.608   2.740   5.420
13047WAT     H239384   7.731   2.717   5.525
13048WAT      O39385   2.056   6.177   0.405
13048WAT     H139386   2.057   6.122   0.322
13048WAT     H239387   2.131   6.243   0.403
13049WAT      O39388   8.213   5.449   4.686
13049WAT     H139389   8.202   5.381   4.613
13049WAT     H239390   8.129   5.501   4.696
13050WAT      O39391   7.170   8.294   7.947
13050WAT     H139392   7.265   8.278   7.974
13050WAT     H239393   7.114   8.214   7.970
13051WAT      O39394   6.517   3.445   1.598
13051WAT     H139395   6.585   3.410   1.535
13051WAT     H239396   6.513   3.387   1.679
13052WAT      O39397   7.125   3.218   9.225
13052WAT     H139398   7.220   3.204   9.251
13052WAT     H239399   7.093   3.306   9.261
13053WAT      O39400   7.359   6.243   0.622
13053WAT     H139401   7.291   6.230   0.695
13053WAT     H239402   7.403   6.156   0.602
13054WAT      O39403   5.070   6.213   1.860
13054WAT     H139404   4.991   6.156   1.884
13054WAT     H239405   5.107   6.255   1.944
13055WAT      O39406   3.430   5.674   6.896
13055WAT     H139407   3.446   5.698   6.992
13055WAT     H239408   3.392   5.753   6.848
13056WAT      O39409   4.072   2.985   8.297
13056WAT     H139410   4.044   2.998   8.202
13056WAT     H239411   4.004   3.026   8.358
13057WAT      O39412   4.125   0.281   0.197
13057WAT     H139413   4.092   0.370   0.163
13057WAT     H239414   4.122   0.281   0.297
13058WAT      O39415   5.534   4.249   2.410
13058WAT     H139416   5.459   4.188   2.386
13058WAT     H239417   5.504   4.344   2.403
13059WAT      O39418   5.737   6.265   6.550
13059WAT     H139419   5.640   6.270   6.573
13059WAT     H239420   5.777   6.181   6.589
13060WAT      O39421   3.856   5.724   7.779
13060WAT     H139422   3.765   5.716   7.740
13060WAT     H239423   3.875   5.820   7.801
13061WAT      O39424   0.044   1.861   0.097
13061WAT     H139425   0.103   1.783   0.077
13061WAT     H239426   0.053   1.929   0.024
13062WAT      O39427   8.693   6.966   2.590
13062WAT     H139428   8.786   6.940   2.565
13062WAT     H239429   8.696   7.035   2.662
13063WAT      O39430   4.207   0.304   5.084
13063WAT     H139431   4.157   0.340   5.162
13063WAT     H239432   4.305   0.316   5.099
13064WAT      O39433   5.908   0.698   4.229
13064WAT     H139434   5.993   0.645   4.228
13064WAT     H239435   5.847   0.664   4.300
13065WAT      O39436   7.614   8.217   9.867
13065WAT     H139437   7.582   8.159   9.941
13065WAT     H239438   7.561   8.199   9.784
13066WAT      O39439   6.352   5.132   8.002
13066WAT     H139440   6.305   5.090   7.924
13066WAT     H239441   6.401   5.214   7.972
13067WAT      O39442   5.662   6.502   2.000
13067WAT     H139443   5.581   6.471   1.950
13067WAT     H239444   5.645   6.494   2.098
13068WAT      O39445   1.977   6.094   8.494
13068WAT     H139446   1.975   6.191   8.520
13068WAT     H239447   2.059   6.052   8.531
13069WAT      O39448   2.806   1.636   4.911
13069WAT     H139449   2.861   1.585   4.845
13069WAT     H239450   2.814   1.594   5.001
13070WAT      O39451   7.697   4.088   8.879
13070WAT     H139452   7.774   4.029   8.855
13070WAT     H239453   7.664   4.065   8.970
13071WAT      O39454   6.370   4.767   5.355
13071WAT     H139455   6.422   4.691   5.393
13071WAT     H239456   6.377   4.765   5.255
13072WAT      O39457   9.059   2.492   7.501
13072WAT     H139458   9.126   2.471   7.573
13072WAT     H239459   9.105   2.540   7.426
13073WAT      O39460   5.769   9.523   1.083
13073WAT     H139461   5.742   9.429   1.103
13073WAT     H239462   5.807   9.565   1.165
13074WAT      O39463   8.072   8.433   7.764
13074WAT     H139464   8.103   8.528   7.758
13074WAT     H239465   8.127   8.376   7.704
13075WAT      O39466   1.142   1.080   5.886
13075WAT     H139467   1.187   0.997   5.918
13075WAT     H239468   1.181   1.159   5.933
13076WAT      O39469   2.690   1.571   8.761
13076WAT     H139470   2.771   1.597   8.813
13076WAT     H239471   2.675   1.636   8.687
13077WAT      O39472   1.963   7.725   2.108
13077WAT     H139473   2.063   7.722   2.115
13077WAT     H239474   1.937   7.741   2.013
13078WAT      O39475   4.383   1.524   5.610
13078WAT     H139476   4.466   1.477   5.640
13078WAT     H239477   4.310   1.505   5.676
13079WAT      O39478   5.053   9.192   1.343
13079WAT     H139479   5.092   9.245   1.268
13079WAT     H239480   5.088   9.226   1.430
13080WAT      O39481   7.420   9.183   7.932
13080WAT     H139482   7.409   9.261   7.871
13080WAT     H239483   7.495   9.125   7.899
13081WAT      O39484   3.052   3.973   1.863
13081WAT     H139485   3.132   3.947   1.810
13081WAT     H239486   3.015   4.059   1.829
13082WAT      O39487   5.787   0.317   5.236
13082WAT     H139488   5.712   0.255   5.212
13082WAT     H239489   5.870   0.263   5.250
13083WAT      O39490   5.403   6.831   2.938
13083WAT     H139491   5.473   6.889   2.981
13083WAT     H239492   5.368   6.878   2.857
13084WAT      O39493   3.347   7.633   5.716
13084WAT     H139494   3.433   7.600   5.756
13084WAT     H239495   3.309   7.563   5.655
13085WAT      O39496   1.786   0.546   0.759
13085WAT     H139497   1.738   0.590   0.835
13085WAT     H239498   1.729   0.475   0.718
13086WAT      O39499   8.993   9.050   2.978
13086WAT     H139500   8.944   9.103   3.048
13086WAT     H239501   8.947   8.962   2.965
13087WAT      O39502   2.355   5.207   1.681
13087WAT     H139503   2.449   5.190   1.652
13087WAT     H239504   2.294   5.193   1.603
13088WAT      O39505   4.972   3.788   0.442
13088WAT     H139506   4.906   3.713   0.453
13088WAT     H239507   5.063   3.756   0.465
13089WAT      O39508   5.725   2.158   8.542
13089WAT     H139509   5.764   2.229   8.483
13089WAT     H239510   5.637   2.129   8.506
13090WAT      O39511   6.665   8.401   9.081
13090WAT     H139512   6.661   8.348   9.166
13090WAT     H239513   6.632   8.345   9.005
13091WAT      O39514   3.434   2.588   2.947
13091WAT     H139515   3.431   2.536   2.862
13091WAT     H239516   3.469   2.531   3.021
13092WAT      O39517   1.575   0.641   7.950
13092WAT     H139518   1.654   0.613   8.003
13092WAT     H239519   1.511   0.691   8.008
13093WAT      O39520   0.132   7.455   3.383
13093WAT     H139521   0.191   7.521   3.336
13093WAT     H239522   0.114   7.378   3.322
13094WAT      O39523   5.875   5.882   2.607
13094WAT     H139524   5.933   5.930   2.673
13094WAT     H239525   5.783   5.924   2.607
13095WAT      O39526   0.367   6.305   7.135
13095WAT     H139527   0.313   6.385   7.106
13095WAT     H239528   0.446   6.296   7.075
13096WAT      O39529   2.824   2.392   0.797
13096WAT     H139530   2.923   2.378   0.785
13096WAT     H239531   2.809   2.453   0.875
13097WAT      O39532   9.424   7.448   3.622
13097WAT     H139533   9.331   7.475   3.595
13097WAT     H239534   9.472   7.528   3.660
13098WAT      O39535   1.946   2.885   2.801
13098WAT     H139536   1.867   2.895   2.862
13098WAT     H239537   2.030   2.903   2.851
13099WAT      O39538   0.081   2.041   4.190
13099WAT     H139539   0.140   1.961   4.180
13099WAT     H239540   0.058   2.055   4.286
13100WAT      O39541   9.830   3.644   9.586
13100WAT     H139542   9.816   3.546   9.572
13100WAT     H239543   9.786   3.696   9.513
13101WAT      O39544   3.235   2.763   9.557
13101WAT     H139545   3.253   2.833   9.488
13101WAT     H239546   3.144   2.777   9.596
13102WAT      O39547   9.426   6.512   7.030
13102WAT     H139548   9.335   6.518   6.988
13102WAT     H239549   9.417   6.473   7.122
13103WAT      O39550   2.535   8.340   9.478
13103WAT     H139551   2.538   8.396   9.395
13103WAT     H239552   2.562   8.246   9.455
13104WAT      O39553   6.090   7.152   7.652
13104WAT     H139554   6.061   7.155   7.556
13104WAT     H239555   6.152   7.228   7.670
13105WAT      O39556   4.621   5.617   7.578
13105WAT     H139557   4.686   5.591   7.507
13105WAT     H239558   4.639   5.711   7.607
13106WAT      O39559   7.987   3.476   3.604
13106WAT     H139560   8.052   3.551   3.608
13106WAT     H239561   7.914   3.492   3.671
13107WAT      O39562   8.982   0.581   7.459
13107WAT     H139563   9.070   0.606   7.498
13107WAT     H239564   8.947   0.655   7.402
13108WAT      O39565   1.946   8.641   3.024
13108WAT     H139566   1.915   8.565   3.081
13108WAT     H239567   1.870   8.676   2.970
13109WAT      O39568   4.111   6.523   1.838
13109WAT     H139569   4.158   6.434   1.832
13109WAT     H239570   4.173   6.595   1.806
13110WAT      O39571   6.242   8.381   2.386
13110WAT     H139572   6.298   8.408   2.465
13110WAT     H239573   6.263   8.286   2.362
13111WAT      O39574   2.494   5.377   5.487
13111WAT     H139575   2.583   5.407   5.521
13111WAT     H239576   2.443   5.455   5.452
13112WAT      O39577   1.249   2.172   1.391
13112WAT     H139578   1.168   2.115   1.375
13112WAT     H239579   1.328   2.132   1.343
13113WAT      O39580   6.998   1.088   9.188
13113WAT     H139581   7.044   1.116   9.273
13113WAT     H239582   6.900   1.080   9.204
13114WAT      O39583   0.777   5.064   1.064
13114WAT     H139584   0.861   5.114   1.085
13114WAT     H239585   0.779   4.975   1.109
13115WAT      O39586   1.973   1.697   1.787
13115WAT     H139587   2.017   1.767   1.844
13115WAT     H239588   2.042   1.639   1.745
13116WAT      O39589   8.346   0.342   3.745
13116WAT     H139590   8.416   0.336   3.674
13116WAT     H239591   8.258   0.313   3.708
13117WAT      O39592   8.445   1.423   2.392
13117WAT     H139593   8.396   1.417   2.305
13117WAT     H239594   8.450   1.332   2.433
13118WAT      O39595   6.593   8.332   3.907
13118WAT     H139596   6.688   8.348   3.935
13118WAT     H239597   6.576   8.234   3.900
13119WAT      O39598   7.654   6.468   0.921
13119WAT     H139599   7.710   6.403   0.871
13119WAT     H239600   7.652   6.443   1.018
13120WAT      O39601   2.233   2.384   0.260
13120WAT     H139602   2.293   2.384   0.180
13120WAT     H239603   2.288   2.369   0.343
13121WAT      O39604   3.608   5.478   9.787
13121WAT     H139605   3.528   5.529   9.818
13121WAT     H239606   3.648   5.525   9.708
13122WAT      O39607   1.326   6.747   6.698
13122WAT     H139608   1.399   6.803   6.658
13122WAT     H239609   1.366   6.667   6.742
13123WAT      O39610   8.438   2.317   4.617
13123WAT     H139611   8.426   2.335   4.519
13123WAT     H239612   8.425   2.219   4.635
13124WAT      O39613   1.311   2.958   4.405
13124WAT     H139614   1.277   2.955   4.499
13124WAT     H239615   1.404   2.996   4.404
13125WAT      O39616   3.817   2.049   7.552
13125WAT     H139617   3.859   1.972   7.601
13125WAT     H239618   3.880   2.126   7.553
13126WAT      O39619   8.883   3.007   4.900
13126WAT     H139620   8.819   2.971   4.968
13126WAT     H239621   8.973   2.965   4.914
13127WAT      O39622   4.782   1.526   1.734
13127WAT     H139623   4.691   1.513   1.695
13127WAT     H239624   4.800   1.624   1.744
13128WAT      O39625   0.280   1.735   5.518
13128WAT     H139626   0.344   1.810   5.502
13128WAT     H239627   0.292   1.700   5.611
13129WAT      O39628   5.283   6.609   1.986
13129WAT     H139629   5.198   6.616   2.039
13129WAT     H239630   5.300   6.696   1.941
13130WAT      O39631   9.017   5.784   7.956
13130WAT     H139632   9.100   5.742   7.993
13130WAT     H239633   8.938   5.756   8.011
13131WAT      O39634   7.801   6.694   4.654
13131WAT     H139635   7.840   6.784   4.673
13131WAT     H239636   7.874   6.626   4.647
13132WAT      O39637   6.929   4.036   9.622
13132WAT     H139638   6.905   3.990   9.708
13132WAT     H239639   6.886   4.127   9.620
13133WAT      O39640   5.615   3.475   8.327
13133WAT     H139641   5.516   3.479   8.344
13133WAT     H239642   5.643   3.554   8.273
13134WAT      O39643   6.653   3.030   4.445
13134WAT     H139644   6.567   2.986   4.417
13134WAT     H239645   6.697   3.070   4.365
13135WAT      O39646   8.125   6.752   9.095
13135WAT     H139647   8.200   6.717   9.040
13135WAT     H239648   8.162   6.795   9.178
13136WAT      O39649   0.115   5.199   8.633
13136WAT     H139650   0.215   5.191   8.636
13136WAT     H239651   0.090   5.296   8.635
13137WAT      O39652   1.946   1.869   9.403
13137WAT     H139653   1.906   1.778   9.417
13137WAT     H239654   1.933   1.924   9.485
13138WAT      O39655   0.068   1.056   3.241
13138WAT     H139656   0.083   1.011   3.153
13138WAT     H239657   0.154   1.093   3.275
13139WAT      O39658   5.467   2.498   1.471
13139WAT     H139659   5.522   2.473   1.550
13139WAT     H239660   5.385   2.548   1.501
13140WAT      O39661   1.294   4.489   7.039
13140WAT     H139662   1.361   4.424   7.074
13140WAT     H239663   1.222   4.440   6.991
13141WAT      O39664   2.124   1.028   5.664
13141WAT     H139665   2.202   0.965   5.665
13141WAT     H239666   2.039   0.976   5.655
13142WAT      O39667   5.968   7.344   4.853
13142WAT     H139668   6.013   7.318   4.768
13142WAT     H239669   6.036   7.379   4.918
13143WAT      O39670   3.115   0.463   4.276
13143WAT     H139671   3.175   0.480   4.198
13143WAT     H239672   3.142   0.520   4.353
13144WAT      O39673   1.935   3.422   9.715
13144WAT     H139674   1.910   3.332   9.679
13144WAT     H239675   2.002   3.411   9.789
13145WAT      O39676   9.068   9.436   0.050
13145WAT     H139677   9.085   9.350   0.098
13145WAT     H239678   8.972   9.441   0.023
13146WAT      O39679   3.135   2.590   0.200
13146WAT     H139680   3.185   2.505   0.183
13146WAT     H239681   3.098   2.588   0.293
13147WAT      O39682   0.028   3.846   7.732
13147WAT     H139683   0.014   3.803   7.642
13147WAT     H239684   0.104   3.801   7.778
13148WAT      O39685   1.646   5.418   4.352
13148WAT     H139686   1.570   5.354   4.340
13148WAT     H239687   1.611   5.509   4.371
13149WAT      O39688   6.373   8.165   3.165
13149WAT     H139689   6.422   8.227   3.104
13149WAT     H239690   6.432   8.087   3.187
13150WAT      O39691   3.633   5.715   0.259
13150WAT     H139692   3.726   5.708   0.297
13150WAT     H239693   3.639   5.746   0.164
13151WAT      O39694   9.403   6.809   0.615
13151WAT     H139695   9.393   6.907   0.625
13151WAT     H239696   9.373   6.763   0.698
13152WAT      O39697   2.411   3.583   9.833
13152WAT     H139698   2.339   3.628   9.780
13152WAT     H239699   2.411   3.485   9.814
13153WAT      O39700   6.102   0.522   5.250
13153WAT     H139701   6.020   0.578   5.238
13153WAT     H239702   6.103   0.449   5.181
13154WAT      O39703   3.571   6.245   7.311
13154WAT     H139704   3.529   6.304   7.243
13154WAT     H239705   3.618   6.300   7.379
13155WAT      O39706   6.618   8.234   6.747
13155WAT     H139707   6.645   8.233   6.843
13155WAT     H239708   6.675   8.170   6.696
13156WAT      O39709   8.947   5.962   7.177
13156WAT     H139710   8.903   5.918   7.256
13156WAT     H239711   8.877   5.987   7.110
13157WAT      O39712   8.507   0.235   5.590
13157WAT     H139713   8.444   0.157   5.587
13157WAT     H239714   8.461   0.317   5.555
13158WAT      O39715   0.524   1.559   6.921
13158WAT     H139716   0.514   1.560   7.020
13158WAT     H239717   0.581   1.636   6.892
13159WAT      O39718   5.512   0.281   8.979
13159WAT     H139719   5.452   0.341   9.033
13159WAT     H239720   5.543   0.330   8.898
13160WAT      O39721   5.460   6.975   1.538
13160WAT     H139722   5.375   7.001   1.584
13160WAT     H239723   5.454   7.000   1.441
13161WAT      O39724   9.310   7.465   2.854
13161WAT     H139725   9.379   7.397   2.832
13161WAT     H239726   9.266   7.498   2.771
13162WAT      O39727   0.336   6.410   6.146
13162WAT     H139728   0.334   6.379   6.051
13162WAT     H239729   0.429   6.399   6.182
13163WAT      O39730   7.312   4.139   0.280
13163WAT     H139731   7.242   4.124   0.210
13163WAT     H239732   7.319   4.237   0.299
13164WAT      O39733   5.069   0.971   1.640
13164WAT     H139734   5.150   0.978   1.580
13164WAT     H239735   4.991   0.941   1.586
13165WAT      O39736   1.200   3.317   6.405
13165WAT     H139737   1.294   3.310   6.372
13165WAT     H239738   1.137   3.307   6.329
13166WAT      O39739   2.238   6.396   4.288
13166WAT     H139740   2.255   6.491   4.263
13166WAT     H239741   2.140   6.377   4.282
13167WAT      O39742   4.074   3.695   4.691
13167WAT     H139743   4.045   3.682   4.785
13167WAT     H239744   4.155   3.754   4.688
13168WAT      O39745   3.251   5.922   0.333
13168WAT     H139746   3.152   5.913   0.343
13168WAT     H239747   3.296   5.880   0.412
13169WAT      O39748   8.008   0.312   2.572
13169WAT     H139749   8.025   0.379   2.645
13169WAT     H239750   7.913   0.281   2.578
13170WAT      O39751   3.324   5.448   6.588
13170WAT     H139752   3.356   5.361   6.548
13170WAT     H239753   3.396   5.486   6.646
13171WAT      O39754   7.676   1.398   8.285
13171WAT     H139755   7.682   1.361   8.192
13171WAT     H239756   7.621   1.336   8.341
13172WAT      O39757   6.851   2.754   9.233
13172WAT     H139758   6.836   2.660   9.263
13172WAT     H239759   6.828   2.817   9.307
13173WAT      O39760   0.290   0.043   7.402
13173WAT     H139761   0.285   0.124   7.343
13173WAT     H239762   0.242  -0.033   7.359
13174WAT      O39763   6.928   7.548   2.329
13174WAT     H139764   6.976   7.462   2.309
13174WAT     H239765   6.904   7.551   2.426
13175WAT      O39766   8.828   9.821   9.759
13175WAT     H139767   8.866   9.911   9.737
13175WAT     H239768   8.884   9.750   9.716
13176WAT      O39769   4.671   3.437   2.673
13176WAT     H139770   4.590   3.384   2.697
13176WAT     H239771   4.736   3.436   2.749
13177WAT      O39772   8.719   3.776   9.573
13177WAT     H139773   8.730   3.680   9.599
13177WAT     H239774   8.694   3.781   9.477
13178WAT      O39775   6.721   8.019   7.757
13178WAT     H139776   6.802   7.981   7.712
13178WAT     H239777   6.746   8.054   7.847
13179WAT      O39778   2.792   3.101   6.992
13179WAT     H139779   2.764   3.048   7.073
13179WAT     H239780   2.736   3.073   6.914
13180WAT      O39781   5.057   7.912   6.357
13180WAT     H139782   4.958   7.926   6.366
13180WAT     H239783   5.096   7.895   6.447
13181WAT      O39784   8.575   0.939   7.029
13181WAT     H139785   8.543   0.846   7.012
13181WAT     H239786   8.547   0.998   6.954
13182WAT      O39787   2.549   5.042   7.251
13182WAT     H139788   2.450   5.039   7.264
13182WAT     H239789   2.571   5.116   7.187
13183WAT      O39790   9.496   5.436   7.770
13183WAT     H139791   9.425   5.498   7.736
13183WAT     H239792   9.545   5.396   7.692
13184WAT      O39793   1.490   7.121   4.110
13184WAT     H139794   1.536   7.036   4.085
13184WAT     H239795   1.542   7.199   4.074
13185WAT      O39796   8.065   2.809   4.247
13185WAT     H139797   8.055   2.862   4.163
13185WAT     H239798   8.048   2.867   4.326
13186WAT      O39799   6.501   2.798   9.520
13186WAT     H139800   6.459   2.777   9.431
13186WAT     H239801   6.535   2.892   9.520
13187WAT      O39802   3.131   4.971   6.365
13187WAT     H139803   3.193   4.956   6.288
13187WAT     H239804   3.075   4.890   6.380
13188WAT      O39805   1.523   3.955   9.254
13188WAT     H139806   1.560   4.031   9.308
13188WAT     H239807   1.596   3.889   9.236
13189WAT      O39808   4.447   2.271   7.054
13189WAT     H139809   4.530   2.265   7.108
13189WAT     H239810   4.403   2.359   7.069
13190WAT      O39811   0.865   9.760   6.081
13190WAT     H139812   0.795   9.778   6.012
13190WAT     H239813   0.929   9.836   6.084
13191WAT      O39814   5.044   8.630   8.358
13191WAT     H139815   5.079   8.539   8.339
13191WAT     H239816   4.946   8.634   8.335
13192WAT      O39817   9.414   2.025   8.485
13192WAT     H139818   9.462   2.112   8.475
13192WAT     H239819   9.478   1.950   8.473
13193WAT      O39820   9.023   3.011   9.307
13193WAT     H139821   9.108   3.056   9.280
13193WAT     H239822   9.038   2.958   9.390
13194WAT      O39823   7.647   2.802   6.804
13194WAT     H139824   7.613   2.796   6.710
13194WAT     H239825   7.581   2.851   6.861
13195WAT      O39826   1.394   8.008   9.075
13195WAT     H139827   1.409   8.083   9.011
13195WAT     H239828   1.432   7.923   9.037
13196WAT      O39829   3.408   0.941   7.575
13196WAT     H139830   3.316   0.950   7.535
13196WAT     H239831   3.421   1.011   7.644
13197WAT      O39832   0.452   9.237   5.600
13197WAT     H139833   0.449   9.326   5.645
13197WAT     H239834   0.406   9.168   5.656
13198WAT      O39835   5.408   3.282   5.604
13198WAT     H139836   5.384   3.238   5.691
13198WAT     H239837   5.373   3.375   5.603
13199WAT      O39838   7.421   2.846   7.755
13199WAT     H139839   7.346   2.795   7.713
13199WAT     H239840   7.400   2.943   7.753
13200WAT      O39841   6.016   6.940   8.776
13200WAT     H139842   5.918   6.932   8.758
13200WAT     H239843   6.032   7.013   8.842
13201WAT      O39844   0.001   2.096   1.116
13201WAT     H139845   0.004   2.178   1.172
13201WAT     H239846   0.038   2.116   1.025
13202WAT      O39847   8.858   5.327   0.108
13202WAT     H139848   8.914   5.319   0.191
13202WAT     H239849   8.793   5.251   0.104
13203WAT      O39850   4.695   9.774   5.935
13203WAT     H139851   4.697   9.754   6.033
13203WAT     H239852   4.648   9.861   5.920
13204WAT      O39853   5.745   0.956   3.996
13204WAT     H139854   5.652   0.981   4.020
13204WAT     H239855   5.808   0.988   4.067
13205WAT      O39856   4.550   4.730   4.101
13205WAT     H139857   4.597   4.685   4.178
13205WAT     H239858   4.470   4.778   4.135
13206WAT      O39859   2.124   5.651   0.347
13206WAT     H139860   2.114   5.555   0.321
13206WAT     H239861   2.098   5.663   0.443
13207WAT      O39862   6.566   7.182   2.939
13207WAT     H139863   6.493   7.197   3.006
13207WAT     H239864   6.525   7.164   2.850
13208WAT      O39865   3.721   5.039   6.903
13208WAT     H139866   3.766   5.010   6.819
13208WAT     H239867   3.679   5.129   6.888
13209WAT      O39868   9.629   1.523   8.653
13209WAT     H139869   9.628   1.459   8.730
13209WAT     H239870   9.600   1.613   8.685
13210WAT      O39871   4.857   1.479   3.169
13210WAT     H139872   4.800   1.397   3.170
13210WAT     H239873   4.937   1.465   3.227
13211WAT      O39874   2.571   9.011   0.569
13211WAT     H139875   2.568   9.105   0.603
13211WAT     H239876   2.665   8.978   0.569
13212WAT      O39877   4.947   4.206   6.338
13212WAT     H139878   4.873   4.138   6.336
13212WAT     H239879   5.004   4.196   6.257
13213WAT      O39880   2.077   8.245   3.574
13213WAT     H139881   2.127   8.202   3.650
13213WAT     H239882   2.010   8.309   3.610
13214WAT      O39883   4.946   7.928   7.897
13214WAT     H139884   4.908   7.853   7.950
13214WAT     H239885   4.923   8.015   7.941
13215WAT      O39886   1.151   0.851   7.492
13215WAT     H139887   1.216   0.784   7.528
13215WAT     H239888   1.200   0.919   7.438
13216WAT      O39889   7.553   7.003   3.041
13216WAT     H139890   7.478   7.004   3.108
13216WAT     H239891   7.575   7.096   3.015
13217WAT      O39892   9.677   9.390   5.357
13217WAT     H139893   9.716   9.336   5.431
13217WAT     H239894   9.728   9.372   5.273
13218WAT      O39895   3.954   4.944   9.043
13218WAT     H139896   3.975   4.846   9.048
13218WAT     H239897   4.008   4.992   9.112
13219WAT      O39898   7.409   5.985   7.393
13219WAT     H139899   7.386   5.911   7.330
13219WAT     H239900   7.347   5.982   7.472
13220WAT      O39901   9.260   0.450   2.880
13220WAT     H139902   9.248   0.354   2.906
13220WAT     H239903   9.269   0.506   2.962
13221WAT      O39904   0.556   9.135   9.887
13221WAT     H139905   0.488   9.164   9.954
13221WAT     H239906   0.545   9.189   9.803
13222WAT      O39907   0.873   6.723   7.607
13222WAT     H139908   0.831   6.665   7.678
13222WAT     H239909   0.968   6.695   7.594
13223WAT      O39910   5.832   4.651   7.277
13223WAT     H139911   5.819   4.556   7.250
13223WAT     H239912   5.742   4.694   7.290
13224WAT      O39913   9.395   3.130   4.464
13224WAT     H139914   9.451   3.117   4.382
13224WAT     H239915   9.373   3.040   4.503
13225WAT      O39916   8.407   4.300   7.735
13225WAT     H139917   8.347   4.379   7.750
13225WAT     H239918   8.352   4.222   7.705
13226WAT      O39919   3.425   5.618   2.881
13226WAT     H139920   3.457   5.613   2.786
13226WAT     H239921   3.480   5.558   2.939
13227WAT      O39922   3.918   8.302   7.931
13227WAT     H139923   3.966   8.384   7.900
13227WAT     H239924   3.983   8.227   7.940
13228WAT      O39925   3.487   6.800   1.384
13228WAT     H139926   3.528   6.854   1.310
13228WAT     H239927   3.390   6.785   1.363
13229WAT      O39928   1.830   7.296   1.997
13229WAT     H139929   1.866   7.343   2.077
13229WAT     H239930   1.848   7.198   2.005
13230WAT      O39931   8.464   5.552   4.597
13230WAT     H139932   8.438   5.606   4.517
13230WAT     H239933   8.385   5.498   4.627
13231WAT      O39934   3.230   5.922   2.400
13231WAT     H139935   3.239   5.955   2.306
13231WAT     H239936   3.286   5.979   2.460
13232WAT      O39937   6.891   8.658   0.054
13232WAT     H139938   6.897   8.650   0.154
13232WAT     H239939   6.983   8.665   0.016
13233WAT      O39940   2.324   5.728   9.006
13233WAT     H139941   2.408   5.748   9.057
13233WAT     H239942   2.255   5.691   9.069
13234WAT      O39943   3.190   0.966   8.725
13234WAT     H139944   3.192   0.882   8.780
13234WAT     H239945   3.221   0.946   8.633
13235WAT      O39946   9.420   7.622   6.667
13235WAT     H139947   9.518   7.632   6.682
13235WAT     H239948   9.402   7.618   6.569
13236WAT      O39949   6.545   4.814   4.467
13236WAT     H139950   6.614   4.745   4.445
13236WAT     H239951   6.504   4.848   4.383
13237WAT      O39952   2.099   1.580   9.012
13237WAT     H139953   2.001   1.567   9.029
13237WAT     H239954   2.129   1.517   8.941
13238WAT      O39955   4.555   2.392   2.983
13238WAT     H139956   4.470   2.437   2.956
13238WAT     H239957   4.618   2.460   3.021
13239WAT      O39958   7.589   3.411   1.423
13239WAT     H139959   7.507   3.465   1.403
13239WAT     H239960   7.660   3.470   1.459
13240WAT      O39961   6.998   6.409   1.267
13240WAT     H139962   7.093   6.384   1.284
13240WAT     H239963   6.988   6.442   1.173
13241WAT      O39964   6.880   0.766   9.547
13241WAT     H139965   6.975   0.734   9.557
13241WAT     H239966   6.852   0.755   9.452
13242WAT      O39967   7.860   8.094   8.824
13242WAT     H139968   7.871   8.098   8.725
13242WAT     H239969   7.920   8.162   8.867
13243WAT      O39970   2.803   7.267   1.518
13243WAT     H139971   2.851   7.352   1.498
13243WAT     H239972   2.737   7.247   1.446
13244WAT      O39973   0.589   0.237   5.634
13244WAT     H139974   0.671   0.294   5.648
13244WAT     H239975   0.611   0.142   5.655
13245WAT      O39976   5.024   2.335   0.716
13245WAT     H139977   4.985   2.427   0.710
13245WAT     H239978   4.982   2.277   0.646
13246WAT      O39979   1.555   4.547   9.121
13246WAT     H139980   1.519   4.587   9.205
13246WAT     H239981   1.505   4.463   9.100
13247WAT      O39982   5.240   2.211   3.180
13247WAT     H139983   5.211   2.236   3.088
13247WAT     H239984   5.339   2.221   3.189
13248WAT      O39985   5.769   1.947   7.994
13248WAT     H139986   5.754   1.855   8.028
13248WAT     H239987   5.868   1.962   7.982
13249WAT      O39988   9.465   7.345   0.814
13249WAT     H139989   9.394   7.276   0.802
13249WAT     H239990   9.474   7.398   0.730
13250WAT      O39991   2.635   2.776   5.404
13250WAT     H139992   2.677   2.797   5.492
13250WAT     H239993   2.684   2.699   5.362
13251WAT      O39994   2.452   4.051   2.810
13251WAT     H139995   2.472   4.128   2.870
13251WAT     H239996   2.537   4.006   2.783
13252WAT      O39997   0.468   6.796   0.661
13252WAT     H139998   0.498   6.756   0.747
13252WAT     H239999   0.493   6.736   0.585
13253WAT      O40000   9.836   1.882   5.676
13253WAT     H140001   9.832   1.824   5.595
13253WAT     H240002   9.895   1.839   5.745
13254WAT      O40003   1.888   8.093   5.389
13254WAT     H140004   1.828   8.171   5.373
13254WAT     H240005   1.937   8.071   5.304
13255WAT      O40006   5.801   1.038   3.704
13255WAT     H140007   5.856   1.121   3.711
13255WAT     H240008   5.768   1.011   3.795
13256WAT      O40009   8.516   1.018   6.467
13256WAT     H140010   8.563   0.930   6.465
13256WAT     H240011   8.507   1.054   6.374
13257WAT      O40012   3.238   6.600   5.141
13257WAT     H140013   3.241   6.561   5.049
13257WAT     H240014   3.199   6.692   5.137
13258WAT      O40015   1.601   0.484   9.059
13258WAT     H140016   1.551   0.485   8.973
13258WAT     H240017   1.538   0.468   9.135
13259WAT      O40018   4.369   2.281   5.005
13259WAT     H140019   4.382   2.184   4.985
13259WAT     H240020   4.298   2.319   4.946
13260WAT      O40021   4.756   1.759   1.475
13260WAT     H140022   4.770   1.857   1.486
13260WAT     H240023   4.791   1.711   1.556
13261WAT      O40024   2.490   2.886   7.787
13261WAT     H140025   2.498   2.809   7.723
13261WAT     H240026   2.435   2.859   7.866
13262WAT      O40027   3.573   6.845   6.646
13262WAT     H140028   3.661   6.878   6.681
13262WAT     H240029   3.531   6.915   6.588
13263WAT      O40030   6.527   7.714   3.059
13263WAT     H140031   6.447   7.662   3.088
13263WAT     H240032   6.515   7.746   2.965
13264WAT      O40033   0.552   0.353   7.158
13264WAT     H140034   0.523   0.257   7.169
13264WAT     H240035   0.644   0.364   7.193
13265WAT      O40036   3.192   7.572   1.619
13265WAT     H140037   3.287   7.599   1.605
13265WAT     H240038   3.156   7.620   1.699
13266WAT      O40039   7.585   2.401   5.588
13266WAT     H140040   7.519   2.455   5.536
13266WAT     H240041   7.544   2.372   5.675
13267WAT      O40042   9.750   4.636   9.536
13267WAT     H140043   9.654   4.612   9.550
13267WAT     H240044   9.781   4.597   9.449
13268WAT      O40045   7.130   2.152   8.112
13268WAT     H140046   7.142   2.131   8.015
13268WAT     H240047   7.212   2.196   8.148
13269WAT      O40048   7.523   5.345   2.761
13269WAT     H140049   7.541   5.266   2.820
13269WAT     H240050   7.590   5.417   2.780
13270WAT      O40051   5.289   4.901   6.976
13270WAT     H140052   5.261   4.926   7.068
13270WAT     H240053   5.366   4.958   6.948
13271WAT      O40054   4.206   0.895   6.955
13271WAT     H140055   4.176   0.819   6.896
13271WAT     H240056   4.153   0.977   6.933
13272WAT      O40057   3.942   9.535   1.893
13272WAT     H140058   4.009   9.591   1.845
13272WAT     H240059   3.954   9.548   1.992
13273WAT      O40060   7.061   2.927   8.799
13273WAT     H140061   6.990   2.873   8.753
13273WAT     H240062   7.018   3.006   8.843
13274WAT      O40063   5.239   1.322   7.433
13274WAT     H140064   5.269   1.228   7.416
13274WAT     H240065   5.140   1.323   7.449
13275WAT      O40066   5.885   3.869   2.897
13275WAT     H140067   5.800   3.877   2.846
13275WAT     H240068   5.952   3.934   2.861
13276WAT      O40069   1.110   5.439   8.059
13276WAT     H140070   1.103   5.460   8.157
13276WAT     H240071   1.165   5.508   8.014
13277WAT      O40072   3.445   5.458   5.941
13277WAT     H140073   3.404   5.410   5.864
13277WAT     H240074   3.536   5.420   5.959
13278WAT      O40075   3.144   5.658   8.317
13278WAT     H140076   3.175   5.602   8.240
13278WAT     H240077   3.064   5.615   8.359
13279WAT      O40078   0.682   1.218   5.586
13279WAT     H140079   0.726   1.186   5.502
13279WAT     H240080   0.587   1.245   5.565
13280WAT      O40081   2.121   9.106   9.056
13280WAT     H140082   2.208   9.098   9.106
13280WAT     H240083   2.048   9.067   9.111
13281WAT      O40084   4.862   2.711   7.230
13281WAT     H140085   4.853   2.635   7.166
13281WAT     H240086   4.857   2.677   7.324
13282WAT      O40087   4.248   2.169   8.807
13282WAT     H140088   4.292   2.241   8.862
13282WAT     H240089   4.160   2.203   8.772
13283WAT      O40090   7.412   8.721   4.305
13283WAT     H140091   7.486   8.657   4.329
13283WAT     H240092   7.415   8.800   4.367
13284WAT      O40093   5.544   3.449   1.914
13284WAT     H140094   5.506   3.520   1.855
13284WAT     H240095   5.613   3.397   1.863
13285WAT      O40096   0.857   1.769   8.674
13285WAT     H140097   0.865   1.828   8.754
13285WAT     H240098   0.812   1.820   8.600
13286WAT      O40099   5.344   7.496   1.303
13286WAT     H140100   5.444   7.503   1.302
13286WAT     H240101   5.314   7.429   1.236
13287WAT      O40102   8.851   8.762   7.920
13287WAT     H140103   8.760   8.765   7.878
13287WAT     H240104   8.872   8.851   7.959
13288WAT      O40105   4.736   9.621   0.533
13288WAT     H140106   4.660   9.654   0.477
13288WAT     H240107   4.803   9.694   0.544
13289WAT      O40108   2.542   9.032   1.462
13289WAT     H140109   2.447   9.064   1.469
13289WAT     H240110   2.548   8.940   1.501
13290WAT      O40111   6.113   7.050   1.247
13290WAT     H140112   6.209   7.023   1.254
13290WAT     H240113   6.072   7.008   1.166
13291WAT      O40114   5.153   0.834   4.654
13291WAT     H140115   5.184   0.906   4.716
13291WAT     H240116   5.078   0.784   4.696
13292WAT      O40117   8.040   3.793   7.039
13292WAT     H140118   8.137   3.812   7.054
13292WAT     H240119   8.009   3.842   6.957
13293WAT      O40120   1.564   3.110   3.822
13293WAT     H140121   1.660   3.085   3.813
13293WAT     H240122   1.536   3.163   3.741
13294WAT      O40123   4.357   0.136   3.231
13294WAT     H140124   4.438   0.087   3.199
13294WAT     H240125   4.376   0.175   3.321
13295WAT      O40126   9.573   9.629   7.827
13295WAT     H140127   9.646   9.691   7.800
13295WAT     H240128   9.541   9.652   7.919
13296WAT      O40129   6.089   9.320   1.157
13296WAT     H140130   6.064   9.257   1.231
13296WAT     H240131   6.123   9.405   1.197
13297WAT      O40132   9.388   8.698   5.683
13297WAT     H140133   9.433   8.766   5.741
13297WAT     H240134   9.355   8.622   5.739
13298WAT      O40135   7.508   1.093   6.947
13298WAT     H140136   7.591   1.114   6.895
13298WAT     H240137   7.506   1.148   7.031
13299WAT      O40138   7.312   5.819   7.188
13299WAT     H140139   7.323   5.886   7.115
13299WAT     H240140   7.223   5.833   7.233
13300WAT      O40141   4.752   4.023   6.772
13300WAT     H140142   4.808   4.044   6.692
13300WAT     H240143   4.685   4.095   6.787
13301WAT      O40144   3.827   3.415   7.398
13301WAT     H140145   3.840   3.339   7.334
13301WAT     H240146   3.916   3.450   7.427
13302WAT      O40147   9.873   7.700   8.114
13302WAT     H140148   9.934   7.691   8.035
13302WAT     H240149   9.825   7.787   8.109
13303WAT      O40150   3.570   6.183   1.334
13303WAT     H140151   3.530   6.266   1.374
13303WAT     H240152   3.503   6.109   1.338
13304WAT      O40153   7.053   3.903   4.353
13304WAT     H140154   7.054   3.996   4.316
13304WAT     H240155   7.103   3.901   4.440
13305WAT      O40156   9.146   0.890   2.631
13305WAT     H140157   9.160   0.831   2.710
13305WAT     H240158   9.198   0.975   2.643
13306WAT      O40159   3.166   2.128   2.573
13306WAT     H140160   3.207   2.175   2.495
13306WAT     H240161   3.171   2.186   2.654
13307WAT      O40162   3.180   2.061   9.090
13307WAT     H140163   3.263   2.115   9.079
13307WAT     H240164   3.124   2.099   9.164
13308WAT      O40165   7.553   8.103   3.685
13308WAT     H140166   7.571   8.073   3.779
13308WAT     H240167   7.456   8.090   3.664
13309WAT      O40168   3.286   2.256   4.595
13309WAT     H140169   3.242   2.196   4.662
13309WAT     H240170   3.262   2.225   4.503
13310WAT      O40171   2.367   2.489   3.506
13310WAT     H140172   2.421   2.413   3.542
13310WAT     H240173   2.379   2.493   3.406
13311WAT      O40174   8.619   5.350   1.570
13311WAT     H140175   8.598   5.256   1.545
13311WAT     H240176   8.719   5.362   1.575
13312WAT      O40177   5.396   0.911   7.816
13312WAT     H140178   5.399   0.897   7.717
13312WAT     H240179   5.301   0.907   7.847
13313WAT      O40180   4.777   3.042   5.206
13313WAT     H140181   4.820   3.129   5.229
13313WAT     H240182   4.794   2.976   5.279
13314WAT      O40183   5.174   7.016   7.075
13314WAT     H140184   5.200   7.048   7.166
13314WAT     H240185   5.075   7.016   7.066
13315WAT      O40186   4.538   2.980   6.645
13315WAT     H140187   4.531   2.907   6.714
13315WAT     H240188   4.627   2.975   6.600
13316WAT      O40189   6.699   7.066   3.933
13316WAT     H140190   6.758   7.007   3.878
13316WAT     H240191   6.696   7.157   3.892
13317WAT      O40192   2.225   3.299   9.537
13317WAT     H140193   2.151   3.240   9.569
13317WAT     H240194   2.191   3.359   9.464
13318WAT      O40195   8.042   1.639   4.961
13318WAT     H140196   8.091   1.587   4.891
13318WAT     H240197   7.965   1.586   4.995
13319WAT      O40198   1.463   0.308   8.761
13319WAT     H140199   1.369   0.289   8.733
13319WAT     H240200   1.467   0.399   8.802
13320WAT      O40201   0.158   8.010   2.422
13320WAT     H140202   0.198   8.069   2.351
13320WAT     H240203   0.231   7.967   2.474
13321WAT      O40204   1.816   1.600   5.447
13321WAT     H140205   1.817   1.700   5.456
13321WAT     H240206   1.901   1.562   5.484
13322WAT      O40207   9.129   2.332   0.860
13322WAT     H140208   9.204   2.345   0.795
13322WAT     H240209   9.122   2.235   0.883
13323WAT      O40210   4.898   0.229   8.283
13323WAT     H140211   4.825   0.240   8.350
13323WAT     H240212   4.987   0.246   8.326
13324WAT      O40213   1.508   4.965   9.423
13324WAT     H140214   1.424   5.018   9.415
13324WAT     H240215   1.572   4.992   9.352
13325WAT      O40216   1.705   8.257   6.533
13325WAT     H140217   1.748   8.240   6.622
13325WAT     H240218   1.775   8.261   6.462
13326WAT      O40219   1.927   2.086   9.196
13326WAT     H140220   1.904   2.009   9.255
13326WAT     H240221   1.952   2.052   9.105
13327WAT      O40222   4.943   2.920   8.484
13327WAT     H140223   5.038   2.900   8.510
13327WAT     H240224   4.941   2.960   8.392
13328WAT      O40225   3.201   7.080   6.681
13328WAT     H140226   3.189   7.141   6.760
13328WAT     H240227   3.137   7.004   6.688
13329WAT      O40228   3.232   5.257   2.591
13329WAT     H140229   3.317   5.291   2.631
13329WAT     H240230   3.230   5.280   2.493
13330WAT      O40231   0.718   7.359   0.534
13330WAT     H140232   0.765   7.307   0.605
13330WAT     H240233   0.620   7.360   0.552
13331WAT      O40234   2.922   8.091   5.503
13331WAT     H140235   2.986   8.019   5.532
13331WAT     H240236   2.970   8.157   5.445
13332WAT      O40237   5.842   6.840   6.821
13332WAT     H140238   5.775   6.911   6.843
13332WAT     H240239   5.795   6.759   6.787
13333WAT      O40240   6.765   3.018   6.615
13333WAT     H140241   6.695   3.009   6.544
13333WAT     H240242   6.809   3.107   6.607
13334WAT      O40243   0.965   4.425   8.919
13334WAT     H140244   0.949   4.439   8.821
13334WAT     H240245   0.950   4.329   8.942
13335WAT      O40246   3.202   3.045   9.005
13335WAT     H140247   3.169   3.090   9.088
13335WAT     H240248   3.177   2.948   9.009
13336WAT      O40249   5.720   1.134   9.638
13336WAT     H140250   5.795   1.142   9.573
13336WAT     H240251   5.752   1.091   9.722
13337WAT      O40252   2.572   8.311   2.650
13337WAT     H140253   2.493   8.367   2.628
13337WAT     H240254   2.624   8.353   2.724
13338WAT      O40255   4.478   3.466   6.522
13338WAT     H140256   4.487   3.393   6.591
13338WAT     H240257   4.455   3.552   6.568
13339WAT      O40258   3.236   1.405   3.828
13339WAT     H140259   3.210   1.309   3.824
13339WAT     H240260   3.301   1.425   3.755
13340WAT      O40261   0.384   0.570   4.113
13340WAT     H140262   0.329   0.594   4.034
13340WAT     H240263   0.370   0.637   4.185
13341WAT      O40264   8.756   4.070   3.522
13341WAT     H140265   8.707   4.134   3.580
13341WAT     H240266   8.720   3.978   3.535
13342WAT      O40267   8.310   6.550   1.613
13342WAT     H140268   8.399   6.581   1.646
13342WAT     H240269   8.316   6.525   1.517
13343WAT      O40270   5.882   6.306   4.462
13343WAT     H140271   5.897   6.392   4.512
13343WAT     H240272   5.952   6.296   4.392
13344WAT      O40273   8.424   6.720   2.249
13344WAT     H140274   8.466   6.668   2.174
13344WAT     H240275   8.493   6.780   2.289
13345WAT      O40276   2.712   2.598   3.542
13345WAT     H140277   2.640   2.625   3.605
13345WAT     H240278   2.673   2.581   3.452
13346WAT      O40279   8.966   0.150   0.999
13346WAT     H140280   8.963   0.151   0.899
13346WAT     H240281   8.923   0.232   1.035
13347WAT      O40282   8.736   8.446   0.071
13347WAT     H140283   8.729   8.448  -0.028
13347WAT     H240284   8.812   8.387   0.098
13348WAT      O40285   1.171   9.075   6.820
13348WAT     H140286   1.100   9.117   6.764
13348WAT     H240287   1.252   9.134   6.821
13349WAT      O40288   2.802   0.472   7.244
13349WAT     H140289   2.783   0.392   7.301
13349WAT     H240290   2.780   0.451   7.149
13350WAT      O40291   6.566   4.981   1.155
13350WAT     H140292   6.592   5.073   1.126
13350WAT     H240293   6.618   4.956   1.237
13351WAT      O40294   0.660   3.515   7.307
13351WAT     H140295   0.573   3.558   7.282
13351WAT     H240296   0.648   3.416   7.308
13352WAT      O40297   3.520   6.653   7.233
13352WAT     H140298   3.548   6.683   7.142
13352WAT     H240299   3.474   6.728   7.280
13353WAT      O40300   4.838   9.049   6.117
13353WAT     H140301   4.921   9.002   6.089
13353WAT     H240302   4.758   9.004   6.076
13354WAT      O40303   1.823   1.317   0.794
13354WAT     H140304   1.779   1.237   0.752
13354WAT     H240305   1.907   1.288   0.840
13355WAT      O40306   7.922   8.617   0.815
13355WAT     H140307   7.897   8.576   0.902
13355WAT     H240308   7.939   8.715   0.827
13356WAT      O40309   1.581   2.342   2.415
13356WAT     H140310   1.579   2.431   2.460
13356WAT     H240311   1.598   2.354   2.317
13357WAT      O40312   9.058   3.234   2.196
13357WAT     H140313   9.067   3.327   2.231
13357WAT     H240314   9.115   3.223   2.115
13358WAT      O40315   1.201   1.368   5.718
13358WAT     H140316   1.212   1.448   5.659
13358WAT     H240317   1.237   1.287   5.672
13359WAT      O40318   2.048   3.964   3.091
13359WAT     H140319   2.099   4.041   3.052
13359WAT     H240320   2.014   3.905   3.017
13360WAT      O40321   4.793   3.997   5.987
13360WAT     H140322   4.886   3.961   5.977
13360WAT     H240323   4.773   4.012   6.084
13361WAT      O40324   6.327   8.894   9.891
13361WAT     H140325   6.386   8.957   9.942
13361WAT     H240326   6.379   8.850   9.818
13362WAT      O40327   3.872   6.618   4.401
13362WAT     H140328   3.914   6.669   4.476
13362WAT     H240329   3.893   6.520   4.412
13363WAT      O40330   9.086   5.977   4.043
13363WAT     H140331   9.085   5.983   4.143
13363WAT     H240332   9.145   5.902   4.015
13364WAT      O40333   1.638   7.064   7.219
13364WAT     H140334   1.543   7.031   7.221
13364WAT     H240335   1.675   7.065   7.312
13365WAT      O40336   6.691   6.445   6.833
13365WAT     H140337   6.763   6.421   6.898
13365WAT     H240338   6.603   6.410   6.867
13366WAT      O40339   6.763   6.749   8.035
13366WAT     H140340   6.843   6.785   8.083
13366WAT     H240341   6.781   6.747   7.937
13367WAT      O40342   3.243   6.352   8.022
13367WAT     H140343   3.218   6.257   8.009
13367WAT     H240344   3.262   6.395   7.934
13368WAT      O40345   4.875   1.626   5.761
13368WAT     H140346   4.848   1.633   5.665
13368WAT     H240347   4.898   1.531   5.782
13369WAT      O40348   3.810   8.386   1.587
13369WAT     H140349   3.864   8.393   1.503
13369WAT     H240350   3.738   8.455   1.586
13370WAT      O40351   5.584   3.523   3.735
13370WAT     H140352   5.555   3.451   3.672
13370WAT     H240353   5.552   3.501   3.827
13371WAT      O40354   2.027   2.324   6.797
13371WAT     H140355   2.097   2.313   6.868
13371WAT     H240356   2.041   2.411   6.750
13372WAT      O40357   6.709   3.182   3.092
13372WAT     H140358   6.698   3.279   3.113
13372WAT     H240359   6.788   3.169   3.032
13373WAT      O40360   4.397   6.294   7.278
13373WAT     H140361   4.375   6.309   7.181
13373WAT     H240362   4.386   6.196   7.299
13374WAT      O40363   5.383   0.568   2.331
13374WAT     H140364   5.480   0.563   2.354
13374WAT     H240365   5.372   0.592   2.234
13375WAT      O40366   2.142   0.090   1.693
13375WAT     H140367   2.222   0.043   1.655
13375WAT     H240368   2.171   0.149   1.768
13376WAT      O40369   9.443   1.655   4.176
13376WAT     H140370   9.345   1.636   4.177
13376WAT     H240371   9.458   1.753   4.170
13377WAT      O40372   2.152   0.222   7.414
13377WAT     H140373   2.167   0.301   7.473
13377WAT     H240374   2.197   0.142   7.452
13378WAT      O40375   6.715   7.457   4.893
13378WAT     H140376   6.789   7.505   4.847
13378WAT     H240377   6.627   7.485   4.854
13379WAT      O40378   9.651   1.807   5.333
13379WAT     H140379   9.583   1.799   5.406
13379WAT     H240380   9.743   1.796   5.371
13380WAT      O40381   2.674   3.338   3.899
13380WAT     H140382   2.602   3.404   3.919
13380WAT     H240383   2.710   3.355   3.807
13381WAT      O40384   0.847   9.462   9.871
13381WAT     H140385   0.899   9.415   9.800
13381WAT     H240386   0.777   9.519   9.828
13382WAT      O40387   2.578   9.800   8.032
13382WAT     H140388   2.579   9.721   8.094
13382WAT     H240389   2.623   9.878   8.076
13383WAT      O40390   8.956   8.764   6.887
13383WAT     H140391   9.016   8.765   6.807
13383WAT     H240392   8.876   8.821   6.869
13384WAT      O40393   1.677   5.147   4.125
13384WAT     H140394   1.644   5.141   4.219
13384WAT     H240395   1.707   5.241   4.107
13385WAT      O40396   5.247   0.890   8.331
13385WAT     H140397   5.327   0.895   8.391
13385WAT     H240398   5.231   0.979   8.290
13386WAT      O40399   2.456   4.278   2.963
13386WAT     H140400   2.358   4.259   2.976
13386WAT     H240401   2.501   4.285   3.052
13387WAT      O40402   8.840   8.850   6.317
13387WAT     H140403   8.929   8.891   6.334
13387WAT     H240404   8.768   8.918   6.332
13388WAT      O40405   9.130   0.738   5.737
13388WAT     H140406   9.177   0.654   5.709
13388WAT     H240407   9.068   0.767   5.664
13389WAT      O40408   7.051   2.799   3.989
13389WAT     H140409   6.962   2.836   3.964
13389WAT     H240410   7.117   2.873   3.998
13390WAT      O40411   2.072   5.073   2.916
13390WAT     H140412   2.105   4.991   2.962
13390WAT     H240413   1.985   5.054   2.871
13391WAT      O40414   6.616   8.985   2.588
13391WAT     H140415   6.598   8.887   2.584
13391WAT     H240416   6.655   9.008   2.678
13392WAT      O40417   2.634   1.783   3.190
13392WAT     H140418   2.638   1.786   3.090
13392WAT     H240419   2.726   1.781   3.228
13393WAT      O40420   0.845   7.192   8.266
13393WAT     H140421   0.937   7.226   8.248
13393WAT     H240422   0.787   7.268   8.296
13394WAT      O40423   1.169   2.424   3.196
13394WAT     H140424   1.085   2.419   3.143
13394WAT     H240425   1.233   2.355   3.163
13395WAT      O40426   7.905   1.958   1.567
13395WAT     H140427   7.980   1.955   1.502
13395WAT     H240428   7.895   2.051   1.603
13396WAT      O40429   1.350   0.523   5.272
13396WAT     H140430   1.309   0.609   5.303
13396WAT     H240431   1.440   0.512   5.315
13397WAT      O40432   3.577   3.148   0.217
13397WAT     H140433   3.617   3.058   0.199
13397WAT     H240434   3.627   3.217   0.164
13398WAT      O40435   5.399   7.597   9.325
13398WAT     H140436   5.410   7.695   9.337
13398WAT     H240437   5.439   7.569   9.237
13399WAT      O40438   5.245   6.948   2.412
13399WAT     H140439   5.157   6.977   2.375
13399WAT     H240440   5.305   7.027   2.420
13400WAT      O40441   7.656   8.810   7.990
13400WAT     H140442   7.560   8.782   7.993
13400WAT     H240443   7.679   8.841   7.897
13401WAT      O40444   4.148   5.799   4.446
13401WAT     H140445   4.084   5.875   4.432
13401WAT     H240446   4.144   5.769   4.541
13402WAT      O40447   8.782   6.486   5.624
13402WAT     H140448   8.850   6.459   5.692
13402WAT     H240449   8.821   6.555   5.563
13403WAT      O40450   4.085   2.477   9.081
13403WAT     H140451   4.066   2.559   9.027
13403WAT     H240452   4.023   2.403   9.053
13404WAT      O40453   2.984   9.150   1.059
13404WAT     H140454   3.027   9.238   1.081
13404WAT     H240455   3.051   9.091   1.013
13405WAT      O40456   3.168   6.066   1.497
13405WAT     H140457   3.138   6.011   1.418
13405WAT     H240458   3.179   6.161   1.469
13406WAT      O40459   1.385   6.483   8.891
13406WAT     H140460   1.429   6.418   8.953
13406WAT     H240461   1.353   6.434   8.810
13407WAT      O40462   6.232   1.739   2.307
13407WAT     H140463   6.293   1.744   2.386
13407WAT     H240464   6.175   1.658   2.313
13408WAT      O40465   6.779   4.243   1.455
13408WAT     H140466   6.744   4.154   1.484
13408WAT     H240467   6.744   4.265   1.364
13409WAT      O40468   9.851   7.794   2.097
13409WAT     H140469   9.862   7.836   2.187
13409WAT     H240470   9.778   7.726   2.101
13410WAT      O40471   2.964   4.577   2.597
13410WAT     H140472   3.012   4.572   2.685
13410WAT     H240473   2.983   4.666   2.554
13411WAT      O40474   6.633   4.647   1.901
13411WAT     H140475   6.635   4.729   1.958
13411WAT     H240476   6.676   4.571   1.950
13412WAT      O40477   9.855   4.484   3.622
13412WAT     H140478   9.864   4.526   3.712
13412WAT     H240479   9.804   4.399   3.629
13413WAT      O40480   0.912   5.549   5.147
13413WAT     H140481   0.839   5.590   5.202
13413WAT     H240482   0.937   5.612   5.073
13414WAT      O40483   7.639   3.501   4.757
13414WAT     H140484   7.594   3.583   4.721
13414WAT     H240485   7.585   3.463   4.832
13415WAT      O40486   7.658   7.371   5.035
13415WAT     H140487   7.647   7.321   5.121
13415WAT     H240488   7.723   7.322   4.977
13416WAT      O40489   4.332   0.016   7.173
13416WAT     H140490   4.338   0.107   7.214
13416WAT     H240491   4.286  -0.046   7.236
13417WAT      O40492   1.385   1.125   6.678
13417WAT     H140493   1.406   1.097   6.584
13417WAT     H240494   1.367   1.044   6.733
13418WAT      O40495   6.701   9.819   3.004
13418WAT     H140496   6.749   9.739   3.041
13418WAT     H240497   6.680   9.803   2.907
13419WAT      O40498   9.684   2.079   6.780
13419WAT     H140499   9.762   2.110   6.726
13419WAT     H240500   9.671   2.140   6.858
13420WAT      O40501   7.215   6.121   9.575
13420WAT     H140502   7.167   6.056   9.517
13420WAT     H240503   7.183   6.214   9.555
13421WAT      O40504   1.067   9.705   6.942
13421WAT     H140505   1.027   9.625   6.896
13421WAT     H240506   1.074   9.780   6.877
13422WAT      O40507   9.648   8.795   2.255
13422WAT     H140508   9.641   8.808   2.354
13422WAT     H240509   9.572   8.843   2.210
13423WAT      O40510   7.167   8.033   6.431
13423WAT     H140511   7.179   7.975   6.351
13423WAT     H240512   7.240   8.014   6.497
13424WAT      O40513   5.099   4.519   0.171
13424WAT     H140514   5.185   4.547   0.213
13424WAT     H240515   5.118   4.457   0.094
13425WAT      O40516   0.207   0.288   6.382
13425WAT     H140517   0.196   0.287   6.482
13425WAT     H240518   0.227   0.195   6.350
13426WAT      O40519   2.574   9.083   6.179
13426WAT     H140520   2.671   9.091   6.203
13426WAT     H240521   2.536   9.001   6.221
13427WAT      O40522   1.014   9.755   8.639
13427WAT     H140523   1.013   9.688   8.564
13427WAT     H240524   1.007   9.847   8.601
13428WAT      O40525   9.730   2.117   5.748
13428WAT     H140526   9.748   2.038   5.689
13428WAT     H240527   9.713   2.198   5.691
13429WAT      O40528   8.075   6.439   3.853
13429WAT     H140529   8.125   6.421   3.938
13429WAT     H240530   7.984   6.399   3.860
13430WAT      O40531   5.646   6.065   3.016
13430WAT     H140532   5.622   6.162   3.011
13430WAT     H240533   5.608   6.024   3.099
13431WAT      O40534   0.435   6.052   3.628
13431WAT     H140535   0.514   6.091   3.674
13431WAT     H240536   0.459   6.031   3.533
13432WAT      O40537   6.526   5.544   1.745
13432WAT     H140538   6.573   5.631   1.759
13432WAT     H240539   6.542   5.484   1.823
13433WAT      O40540   3.594   6.309   8.207
13433WAT     H140541   3.624   6.232   8.151
13433WAT     H240542   3.504   6.287   8.247
13434WAT      O40543   3.030   1.955   3.556
13434WAT     H140544   3.060   1.909   3.640
13434WAT     H240545   3.099   1.941   3.484
13435WAT      O40546   8.465   2.140   6.020
13435WAT     H140547   8.454   2.237   6.041
13435WAT     H240548   8.378   2.093   6.033
13436WAT      O40549   2.869   3.485   8.852
13436WAT     H140550   2.868   3.387   8.873
13436WAT     H240551   2.914   3.534   8.927
13437WAT      O40552   2.324   7.536   1.871
13437WAT     H140553   2.337   7.580   1.960
13437WAT     H240554   2.300   7.440   1.885
13438WAT      O40555   1.920   4.274   1.518
13438WAT     H140556   2.013   4.305   1.501
13438WAT     H240557   1.901   4.193   1.462
13439WAT      O40558   4.182   6.918   9.751
13439WAT     H140559   4.215   7.004   9.710
13439WAT     H240560   4.083   6.913   9.741
13440WAT      O40561   0.089   1.420   6.240
13440WAT     H140562   0.160   1.453   6.302
13440WAT     H240563   0.012   1.483   6.241
13441WAT      O40564   4.223   3.999   4.129
13441WAT     H140565   4.315   4.021   4.163
13441WAT     H240566   4.164   3.979   4.207
13442WAT      O40567   0.056   0.723   4.538
13442WAT     H140568   0.086   0.789   4.469
13442WAT     H240569   0.016   0.643   4.493
13443WAT      O40570   7.412   2.283   0.027
13443WAT     H140571   7.415   2.192  -0.015
13443WAT     H240572   7.424   2.274   0.126
13444WAT      O40573   1.986   5.239   5.218
13444WAT     H140574   2.008   5.147   5.252
13444WAT     H240575   2.062   5.273   5.163
13445WAT      O40576   4.059   2.632   4.456
13445WAT     H140577   4.131   2.569   4.483
13445WAT     H240578   4.100   2.713   4.414
13446WAT      O40579   3.153   5.637   3.055
13446WAT     H140580   3.109   5.713   3.009
13446WAT     H240581   3.226   5.600   2.998
13447WAT      O40582   8.921   8.915   4.095
13447WAT     H140583   8.860   8.873   4.027
13447WAT     H240584   8.983   8.979   4.049
13448WAT      O40585   6.980   5.308   2.747
13448WAT     H140586   6.900   5.301   2.805
13448WAT     H240587   7.063   5.308   2.803
13449WAT      O40588   0.168   8.852   2.599
13449WAT     H140589   0.196   8.765   2.639
13449WAT     H240590   0.233   8.879   2.528
13450WAT      O40591   9.386   3.199   1.489
13450WAT     H140592   9.394   3.102   1.511
13450WAT     H240593   9.315   3.240   1.547
13451WAT      O40594   3.254   5.578   7.348
13451WAT     H140595   3.208   5.596   7.261
13451WAT     H240596   3.236   5.484   7.377
13452WAT      O40597   7.598   1.091   6.069
13452WAT     H140598   7.654   1.167   6.035
13452WAT     H240599   7.558   1.116   6.157
13453WAT      O40600   5.256   0.869   4.055
13453WAT     H140601   5.186   0.939   4.038
13453WAT     H240602   5.218   0.799   4.115
13454WAT      O40603   1.485   6.435   2.134
13454WAT     H140604   1.416   6.503   2.111
13454WAT     H240605   1.557   6.435   2.064
13455WAT      O40606   6.713   7.878   9.113
13455WAT     H140607   6.643   7.830   9.166
13455WAT     H240608   6.725   7.970   9.149
13456WAT      O40609   9.184   4.481   9.679
13456WAT     H140610   9.224   4.541   9.748
13456WAT     H240611   9.104   4.435   9.717
13457WAT      O40612   9.673   4.083   7.035
13457WAT     H140613   9.722   4.126   6.959
13457WAT     H240614   9.618   4.007   7.000
13458WAT      O40615   8.638   7.241   2.452
13458WAT     H140616   8.621   7.202   2.543
13458WAT     H240617   8.567   7.209   2.389
13459WAT      O40618   2.035   2.750   2.574
13459WAT     H140619   1.981   2.765   2.491
13459WAT     H240620   2.009   2.818   2.643
13460WAT      O40621   0.100   2.282   5.661
13460WAT     H140622   0.119   2.314   5.754
13460WAT     H240623   0.186   2.279   5.609
13461WAT      O40624   3.965   1.519   7.440
13461WAT     H140625   3.959   1.451   7.513
13461WAT     H240626   4.006   1.602   7.476
13462WAT      O40627   7.865   1.619   0.373
13462WAT     H140628   7.844   1.702   0.423
13462WAT     H240629   7.915   1.642   0.289
13463WAT      O40630   3.837   1.442   6.717
13463WAT     H140631   3.901   1.518   6.726
13463WAT     H240632   3.743   1.476   6.722
13464WAT      O40633   5.255   9.009   3.508
13464WAT     H140634   5.245   8.914   3.537
13464WAT     H240635   5.167   9.044   3.478
13465WAT      O40636   3.132   7.869   8.305
13465WAT     H140637   3.183   7.954   8.295
13465WAT     H240638   3.099   7.861   8.399
13466WAT      O40639   4.027   1.146   0.203
13466WAT     H140640   4.007   1.075   0.271
13466WAT     H240641   3.989   1.118   0.114
13467WAT      O40642   2.421   5.280   4.828
13467WAT     H140643   2.484   5.214   4.786
13467WAT     H240644   2.327   5.253   4.808
13468WAT      O40645   6.943   6.016   3.935
13468WAT     H140646   6.901   5.929   3.959
13468WAT     H240647   6.914   6.087   4.000
13469WAT      O40648   5.618   6.598   0.589
13469WAT     H140649   5.706   6.619   0.546
13469WAT     H240650   5.608   6.653   0.672
13470WAT      O40651   1.210   3.979   8.141
13470WAT     H140652   1.239   4.075   8.136
13470WAT     H240653   1.115   3.971   8.111
13471WAT      O40654   3.228   6.720   4.762
13471WAT     H140655   3.244   6.645   4.826
13471WAT     H240656   3.217   6.683   4.670
13472WAT      O40657   2.700   0.661   3.028
13472WAT     H140658   2.613   0.696   3.062
13472WAT     H240659   2.683   0.582   2.968
13473WAT      O40660   3.573   9.259   6.540
13473WAT     H140661   3.494   9.260   6.479
13473WAT     H240662   3.544   9.282   6.632
13474WAT      O40663   0.914   5.611   1.497
13474WAT     H140664   0.968   5.534   1.531
13474WAT     H240665   0.974   5.673   1.446
13475WAT      O40666   7.212   7.971   6.898
13475WAT     H140667   7.294   8.009   6.856
13475WAT     H240668   7.139   8.039   6.897
13476WAT      O40669   8.370   5.069   4.092
13476WAT     H140670   8.308   4.992   4.104
13476WAT     H240671   8.427   5.055   4.011
13477WAT      O40672   5.175   6.717   1.028
13477WAT     H140673   5.251   6.781   1.035
13477WAT     H240674   5.210   6.626   1.003
13478WAT      O40675   3.130   9.645   3.871
13478WAT     H140676   3.227   9.632   3.854
13478WAT     H240677   3.115   9.664   3.968
13479WAT      O40678   5.259   8.400   9.514
13479WAT     H140679   5.322   8.330   9.548
13479WAT     H240680   5.217   8.448   9.591
13480WAT      O40681   0.308   2.416   7.402
13480WAT     H140682   0.244   2.385   7.332
13480WAT     H240683   0.262   2.416   7.492
13481WAT      O40684   2.834   7.482   1.048
13481WAT     H140685   2.807   7.408   0.987
13481WAT     H240686   2.762   7.497   1.116
13482WAT      O40687   0.970   6.647   4.842
13482WAT     H140688   1.004   6.594   4.920
13482WAT     H240689   1.024   6.731   4.832
13483WAT      O40690   9.666   5.759   3.035
13483WAT     H140691   9.720   5.694   2.982
13483WAT     H240692   9.708   5.850   3.030
13484WAT      O40693   7.176   3.806   4.591
13484WAT     H140694   7.234   3.779   4.667
13484WAT     H240695   7.080   3.801   4.619
13485WAT      O40696   8.351   5.117   5.246
13485WAT     H140697   8.394   5.127   5.336
13485WAT     H240698   8.367   5.024   5.212
13486WAT      O40699   0.533   7.962   8.830
13486WAT     H140700   0.510   7.886   8.769
13486WAT     H240701   0.502   8.048   8.789
13487WAT      O40702   2.588   3.776   5.642
13487WAT     H140703   2.618   3.749   5.734
13487WAT     H240704   2.568   3.694   5.589
13488WAT      O40705   9.316   4.430   2.467
13488WAT     H140706   9.408   4.396   2.447
13488WAT     H240707   9.282   4.386   2.550
13489WAT      O40708   5.052   5.430   5.949
13489WAT     H140709   5.116   5.453   5.876
13489WAT     H240710   5.084   5.467   6.036
13490WAT      O40711   4.732   3.662   9.651
13490WAT     H140712   4.768   3.733   9.712
13490WAT     H240713   4.763   3.680   9.558
13491WAT      O40714   1.733   8.269   2.528
13491WAT     H140715   1.769   8.287   2.620
13491WAT     H240716   1.783   8.194   2.486
13492WAT      O40717   3.311   6.785   9.559
13492WAT     H140718   3.296   6.817   9.465
13492WAT     H240719   3.409   6.786   9.579
13493WAT      O40720   4.954   5.697   3.268
13493WAT     H140721   5.010   5.681   3.350
13493WAT     H240722   5.014   5.711   3.189
13494WAT      O40723   5.290   8.965   4.353
13494WAT     H140724   5.351   8.894   4.389
13494WAT     H240725   5.214   8.921   4.305
13495WAT      O40726   1.160   7.734   4.597
13495WAT     H140727   1.230   7.792   4.557
13495WAT     H240728   1.070   7.766   4.567
13496WAT      O40729   0.814   7.644   2.833
13496WAT     H140730   0.846   7.587   2.758
13496WAT     H240731   0.714   7.645   2.834
13497WAT      O40732   0.475   2.673   3.612
13497WAT     H140733   0.421   2.598   3.650
13497WAT     H240734   0.512   2.728   3.687
13498WAT      O40735   8.721   1.644   3.506
13498WAT     H140736   8.693   1.670   3.414
13498WAT     H240737   8.797   1.702   3.535
13499WAT      O40738   3.855   1.673   0.007
13499WAT     H140739   3.857   1.582   0.049
13499WAT     H240740   3.760   1.697  -0.015
13500WAT      O40741   0.687   6.550   3.872
13500WAT     H140742   0.629   6.577   3.949
13500WAT     H240743   0.639   6.569   3.786
13501WAT      O40744   7.562   1.769   0.265
13501WAT     H140745   7.623   1.691   0.253
13501WAT     H240746   7.587   1.841   0.200
13502WAT      O40747   4.844   1.917   5.415
13502WAT     H140748   4.928   1.939   5.367
13502WAT     H240749   4.805   2.001   5.455
13503WAT      O40750   3.875   6.375   8.947
13503WAT     H140751   3.887   6.384   8.848
13503WAT     H240752   3.874   6.466   8.988
13504WAT      O40753   5.103   2.483   8.445
13504WAT     H140754   5.031   2.546   8.475
13504WAT     H240755   5.079   2.390   8.473
13505WAT      O40756   8.208   0.722   2.907
13505WAT     H140757   8.200   0.790   2.835
13505WAT     H240758   8.152   0.748   2.985
13506WAT      O40759   6.185   2.779   6.288
13506WAT     H140760   6.206   2.860   6.233
13506WAT     H240761   6.150   2.808   6.377
13507WAT      O40762   1.355   0.206   5.017
13507WAT     H140763   1.374   0.303   5.005
13507WAT     H240764   1.256   0.191   5.022
13508WAT      O40765   2.702   5.168   1.853
13508WAT     H140766   2.682   5.200   1.760
13508WAT     H240767   2.668   5.074   1.863
13509WAT      O40768   9.175   1.868   9.885
13509WAT     H140769   9.238   1.945   9.896
13509WAT     H240770   9.227   1.782   9.886
13510WAT      O40771   4.643   9.138   7.891
13510WAT     H140772   4.557   9.162   7.848
13510WAT     H240773   4.648   9.038   7.902
13511WAT      O40774   4.382   8.091   0.289
13511WAT     H140775   4.307   8.140   0.334
13511WAT     H240776   4.427   8.152   0.223
13512WAT      O40777   2.753   9.462   5.065
13512WAT     H140778   2.761   9.408   4.981
13512WAT     H240779   2.675   9.524   5.057
13513WAT      O40780   6.690   5.506   0.727
13513WAT     H140781   6.649   5.501   0.636
13513WAT     H240782   6.624   5.472   0.795
13514WAT      O40783   5.328   3.876   7.756
13514WAT     H140784   5.423   3.894   7.731
13514WAT     H240785   5.300   3.788   7.718
13515WAT      O40786   1.253   7.686   6.273
13515WAT     H140787   1.330   7.749   6.279
13515WAT     H240788   1.169   7.736   6.253
13516WAT      O40789   8.334   9.460   9.427
13516WAT     H140790   8.271   9.520   9.476
13516WAT     H240791   8.419   9.509   9.409
13517WAT      O40792   0.236   4.100   1.735
13517WAT     H140793   0.186   4.033   1.791
13517WAT     H240794   0.334   4.077   1.737
13518WAT      O40795   1.673   5.560   0.004
13518WAT     H140796   1.668   5.559  -0.096
13518WAT     H240797   1.586   5.592   0.042
13519WAT      O40798   7.311   9.331   0.148
13519WAT     H140799   7.234   9.271   0.128
13519WAT     H240800   7.396   9.278   0.148
13520WAT      O40801   0.437   6.449   2.682
13520WAT     H140802   0.403   6.361   2.649
13520WAT     H240803   0.505   6.434   2.754
13521WAT      O40804   7.782   5.252   9.623
13521WAT     H140805   7.800   5.175   9.561
13521WAT     H240806   7.724   5.221   9.698
13522WAT      O40807   2.472   2.269   0.371
13522WAT     H140808   2.511   2.275   0.279
13522WAT     H240809   2.545   2.281   0.439
13523WAT      O40810   3.864   9.569   0.566
13523WAT     H140811   3.817   9.546   0.482
13523WAT     H240812   3.959   9.594   0.546
13524WAT      O40813   7.305   1.886   0.610
13524WAT     H140814   7.248   1.820   0.561
13524WAT     H240815   7.400   1.875   0.582
13525WAT      O40816   5.866   0.882   5.219
13525WAT     H140817   5.793   0.941   5.185
13525WAT     H240818   5.826   0.798   5.255
13526WAT      O40819   0.394   3.223   6.196
13526WAT     H140820   0.346   3.234   6.109
13526WAT     H240821   0.340   3.264   6.270
13527WAT      O40822   9.137   2.278   3.927
13527WAT     H140823   9.210   2.270   3.860
13527WAT     H240824   9.123   2.374   3.950
13528WAT      O40825   0.825   2.629   8.668
13528WAT     H140826   0.878   2.657   8.588
13528WAT     H240827   0.730   2.661   8.658
13529WAT      O40828   9.162   1.191   2.765
13529WAT     H140829   9.191   1.120   2.829
13529WAT     H240830   9.229   1.200   2.692
13530WAT      O40831   7.083   8.389   7.684
13530WAT     H140832   7.170   8.382   7.634
13530WAT     H240833   7.095   8.353   7.776
13531WAT      O40834   1.864   3.801   5.880
13531WAT     H140835   1.853   3.899   5.894
13531WAT     H240836   1.779   3.763   5.843
13532WAT      O40837   7.102   3.644   9.509
13532WAT     H140838   7.007   3.663   9.534
13532WAT     H240839   7.145   3.727   9.473
13533WAT      O40840   9.537   3.242   7.484
13533WAT     H140841   9.593   3.160   7.494
13533WAT     H240842   9.448   3.228   7.528
13534WAT      O40843   0.022   1.079   7.072
13534WAT     H140844   0.069   0.992   7.080
13534WAT     H240845  -0.041   1.090   7.149
13535WAT      O40846   3.247   0.063   4.133
13535WAT     H140847   3.303  -0.019   4.142
13535WAT     H240848   3.264   0.124   4.211
13536WAT      O40849   1.944   6.511   1.345
13536WAT     H140850   1.968   6.459   1.427
13536WAT     H240851   2.011   6.495   1.273
13537WAT      O40852   1.112   8.661   2.677
13537WAT     H140853   1.098   8.714   2.593
13537WAT     H240854   1.082   8.714   2.756
13538WAT      O40855   8.869   9.324   4.177
13538WAT     H140856   8.834   9.231   4.175
13538WAT     H240857   8.953   9.328   4.232
13539WAT      O40858   0.195   2.320   4.140
13539WAT     H140859   0.178   2.394   4.205
13539WAT     H240860   0.117   2.257   4.142
13540WAT      O40861   5.083   4.902   2.254
13540WAT     H140862   5.069   4.904   2.353
13540WAT     H240863   5.155   4.838   2.231
13541WAT      O40864   5.599   8.416   3.335
13541WAT     H140865   5.563   8.485   3.272
13541WAT     H240866   5.698   8.408   3.322
13542WAT      O40867   6.541   4.023   4.520
13542WAT     H140868   6.518   3.932   4.484
13542WAT     H240869   6.461   4.063   4.563
13543WAT      O40870   7.282   7.394   5.551
13543WAT     H140871   7.243   7.483   5.528
13543WAT     H240872   7.273   7.378   5.649
13544WAT      O40873   2.106   3.636   7.106
13544WAT     H140874   2.101   3.545   7.064
13544WAT     H240875   2.027   3.690   7.077
13545WAT      O40876   5.594   5.091   9.504
13545WAT     H140877   5.670   5.028   9.520
13545WAT     H240878   5.526   5.080   9.577
13546WAT      O40879   7.766   2.966   2.907
13546WAT     H140880   7.803   2.896   2.846
13546WAT     H240881   7.817   2.967   2.993
13547WAT      O40882   9.547   2.699   6.948
13547WAT     H140883   9.545   2.635   7.024
13547WAT     H240884   9.487   2.667   6.875
13548WAT      O40885   2.157   8.063   7.402
13548WAT     H140886   2.076   8.054   7.459
13548WAT     H240887   2.142   8.018   7.314
13549WAT      O40888   4.164   3.036   7.435
13549WAT     H140889   4.066   3.036   7.412
13549WAT     H240890   4.217   3.006   7.356
13550WAT      O40891   4.435   4.649   3.852
13550WAT     H140892   4.480   4.637   3.941
13550WAT     H240893   4.407   4.560   3.817
13551WAT      O40894   4.469   1.746   3.929
13551WAT     H140895   4.436   1.655   3.904
13551WAT     H240896   4.568   1.751   3.913
13552WAT      O40897   1.959   5.467   5.384
13552WAT     H140898   1.871   5.469   5.431
13552WAT     H240899   1.971   5.378   5.341
13553WAT      O40900   2.588   8.054   5.202
13553WAT     H140901   2.489   8.057   5.209
13553WAT     H240902   2.628   8.067   5.293
13554WAT      O40903   6.610   7.075   9.251
13554WAT     H140904   6.624   7.114   9.160
13554WAT     H240905   6.696   7.076   9.301
13555WAT      O40906   0.715   7.548   1.382
13555WAT     H140907   0.630   7.552   1.434
13555WAT     H240908   0.766   7.467   1.407
13556WAT      O40909   1.840   2.773   2.402
13556WAT     H140910   1.845   2.873   2.404
13556WAT     H240911   1.745   2.744   2.407
13557WAT      O40912   3.638   3.311   3.917
13557WAT     H140913   3.658   3.389   3.857
13557WAT     H240914   3.677   3.228   3.879
13558WAT      O40915   9.641   6.611   7.683
13558WAT     H140916   9.692   6.533   7.718
13558WAT     H240917   9.633   6.681   7.754
13559WAT      O40918   5.414   2.042   4.594
13559WAT     H140919   5.478   2.103   4.546
13559WAT     H240920   5.359   1.992   4.526
13560WAT      O40921   1.509   7.429   5.090
13560WAT     H140922   1.472   7.517   5.122
13560WAT     H240923   1.513   7.429   4.990
13561WAT      O40924   2.487   6.832   2.058
13561WAT     H140925   2.583   6.821   2.086
13561WAT     H240926   2.476   6.792   1.966
13562WAT      O40927   6.529   1.078   6.777
13562WAT     H140928   6.488   1.070   6.868
13562WAT     H240929   6.457   1.082   6.708
13563WAT      O40930   7.731   9.696   8.930
13563WAT     H140931   7.654   9.647   8.890
13563WAT     H240932   7.748   9.780   8.878
13564WAT      O40933   8.025   5.617   4.769
13564WAT     H140934   8.006   5.589   4.863
13564WAT     H240935   8.043   5.715   4.767
13565WAT      O40936   0.207   5.915   3.729
13565WAT     H140937   0.291   5.945   3.684
13565WAT     H240938   0.227   5.885   3.822
13566WAT      O40939   1.688   8.083   6.977
13566WAT     H140940   1.618   8.074   7.048
13566WAT     H240941   1.709   8.180   6.963
13567WAT      O40942   8.510   6.423   8.186
13567WAT     H140943   8.508   6.523   8.188
13567WAT     H240944   8.564   6.389   8.263
13568WAT      O40945   1.849   0.305   0.030
13568WAT     H140946   1.791   0.223   0.033
13568WAT     H240947   1.875   0.323  -0.065
13569WAT      O40948   0.505   1.573   7.198
13569WAT     H140949   0.470   1.599   7.288
13569WAT     H240950   0.601   1.546   7.207
13570WAT      O40951   9.777   9.300   3.039
13570WAT     H140952   9.742   9.267   2.952
13570WAT     H240953   9.876   9.315   3.033
13571WAT      O40954   0.166   4.673   6.093
13571WAT     H140955   0.247   4.638   6.047
13571WAT     H240956   0.187   4.762   6.134
13572WAT      O40957   1.414   3.948   4.662
13572WAT     H140958   1.507   3.922   4.690
13572WAT     H240959   1.354   3.868   4.669
13573WAT      O40960   0.367   6.080   5.554
13573WAT     H140961   0.282   6.059   5.504
13573WAT     H240962   0.435   6.114   5.490
13574WAT      O40963   4.568   1.096   6.448
13574WAT     H140964   4.469   1.106   6.458
13574WAT     H240965   4.599   1.019   6.505
13575WAT      O40966   1.392   5.795   1.970
13575WAT     H140967   1.391   5.841   2.059
13575WAT     H240968   1.481   5.807   1.927
13576WAT      O40969   2.127   4.319   1.769
13576WAT     H140970   2.045   4.273   1.735
13576WAT     H240971   2.192   4.251   1.803
13577WAT      O40972   2.176   0.469   3.830
13577WAT     H140973   2.243   0.541   3.815
13577WAT     H240974   2.217   0.380   3.809
13578WAT      O40975   6.076   0.049   0.782
13578WAT     H140976   6.154   0.020   0.837
13578WAT     H240977   6.105   0.061   0.687
13579WAT      O40978   0.910   4.186   7.817
13579WAT     H140979   0.953   4.255   7.875
13579WAT     H240980   0.831   4.147   7.864
13580WAT      O40981   3.636   2.073   1.129
13580WAT     H140982   3.550   2.052   1.175
13580WAT     H240983   3.695   2.124   1.192
13581WAT      O40984   8.354   8.965   7.456
13581WAT     H140985   8.286   9.036   7.438
13581WAT     H240986   8.432   8.978   7.396
13582WAT      O40987   7.347   1.963   9.867
13582WAT     H140988   7.433   1.929   9.906
13582WAT     H240989   7.293   1.887   9.833
13583WAT      O40990   3.342   0.246   0.323
13583WAT     H140991   3.258   0.192   0.322
13583WAT     H240992   3.418   0.190   0.355
13584WAT      O40993   4.369   8.230   1.960
13584WAT     H140994   4.457   8.199   1.924
13584WAT     H240995   4.383   8.277   2.047
13585WAT      O40996   7.239   5.931   7.624
13585WAT     H140997   7.291   5.865   7.678
13585WAT     H240998   7.208   6.005   7.684
13586WAT      O40999   8.326   1.435   7.520
13586WAT     H141000   8.329   1.410   7.617
13586WAT     H241001   8.402   1.497   7.500
13587WAT      O41002   2.031   8.586   7.424
13587WAT     H141003   2.002   8.578   7.329
13587WAT     H241004   2.108   8.525   7.441
13588WAT      O41005   5.321   1.430   2.092
13588WAT     H141006   5.289   1.336   2.094
13588WAT     H241007   5.378   1.448   2.173
13589WAT      O41008   9.114   9.146   4.018
13589WAT     H141009   9.085   9.224   3.962
13589WAT     H241010   9.091   9.163   4.114
13590WAT      O41011   4.598   7.625   6.141
13590WAT     H141012   4.642   7.611   6.229
13590WAT     H241013   4.504   7.658   6.154
13591WAT      O41014   5.497   9.400   5.906
13591WAT     H141015   5.528   9.325   5.847
13591WAT     H241016   5.398   9.393   5.919
13592WAT      O41017   0.292   0.215   6.683
13592WAT     H141018   0.340   0.135   6.647
13592WAT     H241019   0.359   0.279   6.722
13593WAT      O41020   9.794   4.691   5.199
13593WAT     H141021   9.867   4.624   5.189
13593WAT     H241022   9.713   4.646   5.238
13594WAT      O41023   0.589   5.690   2.331
13594WAT     H141024   0.566   5.602   2.373
13594WAT     H241025   0.670   5.680   2.274
13595WAT      O41026   9.314   0.102   8.242
13595WAT     H141027   9.400   0.091   8.193
13595WAT     H241028   9.332   0.136   8.334
13596WAT      O41029   0.232   3.239   0.098
13596WAT     H141030   0.187   3.260   0.185
13596WAT     H241031   0.217   3.313   0.034
13597WAT      O41032   6.692   2.862   4.658
13597WAT     H141033   6.643   2.777   4.638
13597WAT     H241034   6.653   2.936   4.604
13598WAT      O41035   8.967   6.762   9.202
13598WAT     H141036   8.898   6.731   9.137
13598WAT     H241037   9.022   6.684   9.231
13599WAT      O41038   5.148   1.524   8.542
13599WAT     H141039   5.196   1.602   8.503
13599WAT     H241040   5.205   1.442   8.533
13600WAT      O41041   5.959   9.119   8.598
13600WAT     H141042   5.867   9.097   8.630
13600WAT     H241043   5.952   9.176   8.516
13601WAT      O41044   4.484   4.196   9.218
13601WAT     H141045   4.390   4.215   9.248
13601WAT     H241046   4.499   4.236   9.128
13602WAT      O41047   4.370   3.935   0.640
13602WAT     H141048   4.300   3.996   0.676
13602WAT     H241049   4.373   3.941   0.541
13603WAT      O41050   0.886   0.129   0.148
13603WAT     H141051   0.848   0.182   0.073
13603WAT     H241052   0.953   0.064   0.113
13604WAT      O41053   5.230   1.877   0.658
13604WAT     H141054   5.289   1.953   0.629
13604WAT     H241055   5.267   1.791   0.622
13605WAT      O41056   6.369   3.507   2.790
13605WAT     H141057   6.469   3.498   2.795
13605WAT     H241058   6.341   3.512   2.695
13606WAT      O41059   9.561   1.054   9.121
13606WAT     H141060   9.546   1.003   9.205
13606WAT     H241061   9.502   1.017   9.049
13607WAT      O41062   4.753   1.638   7.328
13607WAT     H141063   4.675   1.643   7.266
13607WAT     H241064   4.721   1.614   7.420
13608WAT      O41065   5.538   3.018   7.020
13608WAT     H141066   5.511   2.954   6.949
13608WAT     H241067   5.617   2.981   7.070
13609WAT      O41068   7.830   5.614   5.947
13609WAT     H141069   7.872   5.700   5.975
13609WAT     H241070   7.739   5.607   5.987
13610WAT      O41071   1.762   4.197   7.325
13610WAT     H141072   1.714   4.278   7.358
13610WAT     H241073   1.855   4.196   7.362
13611WAT      O41074   9.436   3.096   8.314
13611WAT     H141075   9.531   3.066   8.309
13611WAT     H241076   9.396   3.066   8.400
13612WAT      O41077   1.879   8.446   0.063
13612WAT     H141078   1.781   8.431   0.069
13612WAT     H241079   1.905   8.464  -0.032
13613WAT      O41080   0.817   6.009   8.677
13613WAT     H141081   0.761   6.034   8.757
13613WAT     H241082   0.838   5.911   8.680
13614WAT      O41083   8.127   8.801   4.184
13614WAT     H141084   8.150   8.898   4.187
13614WAT     H241085   8.167   8.760   4.102
13615WAT      O41086   0.151   7.161   0.062
13615WAT     H141087   0.171   7.122  -0.028
13615WAT     H241088   0.118   7.255   0.051
13616WAT      O41089   6.862   5.304   8.699
13616WAT     H141090   6.858   5.223   8.757
13616WAT     H241091   6.955   5.341   8.700
13617WAT      O41092   8.460   3.825   0.926
13617WAT     H141093   8.401   3.799   0.849
13617WAT     H241094   8.495   3.918   0.910
13618WAT      O41095   0.147   1.258   8.156
13618WAT     H141096   0.110   1.350   8.161
13618WAT     H241097   0.226   1.250   8.217
13619WAT      O41098   8.761   7.037   3.389
13619WAT     H141099   8.774   6.956   3.446
13619WAT     H241100   8.850   7.073   3.361
13620WAT      O41101   6.602   4.195   7.221
13620WAT     H141102   6.625   4.292   7.212
13620WAT     H241103   6.669   4.150   7.280
13621WAT      O41104   7.543   1.499   7.102
13621WAT     H141105   7.535   1.582   7.158
13621WAT     H241106   7.500   1.422   7.149
13622WAT      O41107   6.408   9.060   6.511
13622WAT     H141108   6.445   8.968   6.518
13622WAT     H241109   6.339   9.063   6.439
13623WAT      O41110   7.253   4.877   1.725
13623WAT     H141111   7.304   4.899   1.808
13623WAT     H241112   7.300   4.804   1.676
13624WAT      O41113   5.791   9.554   4.317
13624WAT     H141114   5.806   9.525   4.411
13624WAT     H241115   5.775   9.473   4.260
13625WAT      O41116   9.529   2.340   0.050
13625WAT     H141117   9.458   2.376   0.111
13625WAT     H241118   9.496   2.256   0.006
13626WAT      O41119   3.643   2.820   2.279
13626WAT     H141120   3.648   2.729   2.319
13626WAT     H241121   3.555   2.862   2.301
13627WAT      O41122   5.791   2.458   4.697
13627WAT     H141123   5.781   2.421   4.789
13627WAT     H241124   5.700   2.467   4.656
13628WAT      O41125   9.752   3.851   2.474
13628WAT     H141126   9.735   3.800   2.559
13628WAT     H241127   9.665   3.882   2.436
13629WAT      O41128   0.797   3.977   6.272
13629WAT     H141129   0.832   3.883   6.268
13629WAT     H241130   0.697   3.975   6.275
13630WAT      O41131   8.226   2.248   2.627
13630WAT     H141132   8.286   2.308   2.574
13630WAT     H241133   8.281   2.176   2.670
13631WAT      O41134   3.282   0.075   7.717
13631WAT     H141135   3.359   0.016   7.742
13631WAT     H241136   3.212   0.019   7.672
13632WAT      O41137   0.936   6.167   0.273
13632WAT     H141138   0.908   6.246   0.218
13632WAT     H241139   1.035   6.171   0.288
13633WAT      O41140   9.194   0.331   0.184
13633WAT     H141141   9.165   0.370   0.097
13633WAT     H241142   9.284   0.288   0.173
13634WAT      O41143   3.803   7.642   2.196
13634WAT     H141144   3.786   7.734   2.159
13634WAT     H241145   3.788   7.644   2.295
13635WAT      O41146   0.428   4.245   9.363
13635WAT     H141147   0.521   4.277   9.348
13635WAT     H241148   0.369   4.279   9.290
13636WAT      O41149   9.534   9.450   2.991
13636WAT     H141150   9.486   9.363   2.997
13636WAT     H241151   9.633   9.433   2.986
13637WAT      O41152   8.703   7.684   8.372
13637WAT     H141153   8.641   7.740   8.427
13637WAT     H241154   8.787   7.735   8.355
13638WAT      O41155   4.501   8.548   5.783
13638WAT     H141156   4.590   8.532   5.825
13638WAT     H241157   4.510   8.614   5.709
13639WAT      O41158   7.494   1.848   1.827
13639WAT     H141159   7.552   1.851   1.909
13639WAT     H241160   7.551   1.826   1.747
13640WAT      O41161   2.871   1.675   4.024
13640WAT     H141162   2.925   1.712   4.099
13640WAT     H241163   2.932   1.639   3.953
13641WAT      O41164   5.142   3.553   3.053
13641WAT     H141165   5.120   3.480   2.989
13641WAT     H241166   5.072   3.624   3.047
13642WAT      O41167   8.012   0.873   0.922
13642WAT     H141168   7.997   0.874   1.021
13642WAT     H241169   8.108   0.854   0.903
13643WAT      O41170   5.263   1.171   5.435
13643WAT     H141171   5.341   1.171   5.372
13643WAT     H241172   5.231   1.264   5.448
13644WAT      O41173   2.204   7.950   0.175
13644WAT     H141174   2.119   7.900   0.187
13644WAT     H241175   2.270   7.893   0.125
13645WAT      O41176   5.974   6.984   7.372
13645WAT     H141177   5.946   6.917   7.440
13645WAT     H241178   5.917   6.976   7.291
13646WAT      O41179   1.879   2.681   7.313
13646WAT     H141180   1.850   2.772   7.343
13646WAT     H241181   1.970   2.662   7.349
13647WAT      O41182   6.555   6.143   4.025
13647WAT     H141183   6.458   6.120   4.019
13647WAT     H241184   6.581   6.154   4.121
13648WAT      O41185   0.320   5.811   5.018
13648WAT     H141186   0.283   5.903   5.027
13648WAT     H241187   0.356   5.798   4.925
13649WAT      O41188   3.194   4.586   6.884
13649WAT     H141189   3.188   4.489   6.860
13649WAT     H241190   3.231   4.637   6.807
13650WAT      O41191   9.662   7.149   3.489
13650WAT     H141192   9.718   7.232   3.486
13650WAT     H241193   9.579   7.166   3.542
13651WAT      O41194   6.326   6.715   7.538
13651WAT     H141195   6.268   6.756   7.608
13651WAT     H241196   6.277   6.640   7.494
13652WAT      O41197   9.491   8.263   5.227
13652WAT     H141198   9.411   8.312   5.194
13652WAT     H241199   9.573   8.297   5.180
13653WAT      O41200   2.495   0.145   5.388
13653WAT     H141201   2.439   0.184   5.315
13653WAT     H241202   2.578   0.199   5.399
13654WAT      O41203   8.561   4.655   1.473
13654WAT     H141204   8.653   4.650   1.512
13654WAT     H241205   8.558   4.729   1.406
13655WAT      O41206   3.128   1.252   2.279
13655WAT     H141207   3.159   1.189   2.350
13655WAT     H241208   3.204   1.275   2.218
13656WAT      O41209   0.541   6.262   7.559
13656WAT     H141210   0.530   6.186   7.494
13656WAT     H241211   0.638   6.273   7.580
13657WAT      O41212   3.804   5.523   1.383
13657WAT     H141213   3.898   5.489   1.376
13657WAT     H241214   3.751   5.462   1.441
13658WAT      O41215   3.492   8.384   3.666
13658WAT     H141216   3.464   8.461   3.724
13658WAT     H241217   3.512   8.418   3.574
13659WAT      O41218   0.524   4.120   4.721
13659WAT     H141219   0.584   4.042   4.740
13659WAT     H241220   0.440   4.087   4.676
13660WAT      O41221   4.020   9.383   2.463
13660WAT     H141222   3.994   9.289   2.438
13660WAT     H241223   3.959   9.417   2.534
13661WAT      O41224   0.151   5.293   6.789
13661WAT     H141225   0.174   5.318   6.695
13661WAT     H241226   0.093   5.211   6.788
13662WAT      O41227   7.754   7.806   8.419
13662WAT     H141228   7.736   7.864   8.340
13662WAT     H241229   7.674   7.806   8.480
13663WAT      O41230   9.054   9.620   0.710
13663WAT     H141231   9.112   9.685   0.758
13663WAT     H241232   8.976   9.596   0.767
13664WAT      O41233   6.973   8.327   2.995
13664WAT     H141234   7.060   8.298   2.955
13664WAT     H241235   6.990   8.394   3.067
13665WAT      O41236   1.723   7.412   0.205
13665WAT     H141237   1.651   7.349   0.234
13665WAT     H241238   1.721   7.493   0.262
13666WAT      O41239   5.458   1.050   4.017
13666WAT     H141240   5.427   1.129   4.070
13666WAT     H241241   5.418   0.967   4.055
13667WAT      O41242   6.538   4.912   1.634
13667WAT     H141243   6.447   4.896   1.595
13667WAT     H241244   6.554   4.846   1.708
13668WAT      O41245   2.064   0.630   4.628
13668WAT     H141246   2.062   0.687   4.710
13668WAT     H241247   2.154   0.588   4.620
13669WAT      O41248   9.396   1.934   5.293
13669WAT     H141249   9.353   1.958   5.380
13669WAT     H241250   9.493   1.915   5.307
13670WAT      O41251   4.169   1.475   6.790
13670WAT     H141252   4.090   1.537   6.797
13670WAT     H241253   4.148   1.402   6.725
13671WAT      O41254   4.391   1.708   2.333
13671WAT     H141255   4.489   1.690   2.327
13671WAT     H241256   4.355   1.728   2.242
13672WAT      O41257   8.863   3.928   5.905
13672WAT     H141258   8.900   3.900   5.993
13672WAT     H241259   8.764   3.909   5.903
13673WAT      O41260   3.003   0.039   3.630
13673WAT     H141261   3.048   0.128   3.629
13673WAT     H241262   3.066  -0.031   3.596
13674WAT      O41263   8.577   1.741   5.618
13674WAT     H141264   8.559   1.833   5.584
13674WAT     H241265   8.558   1.675   5.545
13675WAT      O41266   1.361   9.725   4.504
13675WAT     H141267   1.389   9.723   4.408
13675WAT     H241268   1.387   9.812   4.545
13676WAT      O41269   5.209   0.012   8.868
13676WAT     H141270   5.302   0.035   8.841
13676WAT     H241271   5.173   0.081   8.930
13677WAT      O41272   6.762   2.190   8.838
13677WAT     H141273   6.857   2.176   8.811
13677WAT     H241274   6.746   2.147   8.927
13678WAT      O41275   6.573   8.018   7.097
13678WAT     H141276   6.623   8.085   7.043
13678WAT     H241277   6.481   8.006   7.059
13679WAT      O41278   7.155   5.263   3.361
13679WAT     H141279   7.158   5.335   3.430
13679WAT     H241280   7.196   5.179   3.398
13680WAT      O41281   1.910   4.995   5.845
13680WAT     H141282   1.844   5.060   5.807
13680WAT     H241283   1.870   4.948   5.924
13681WAT      O41284   6.633   1.981   7.747
13681WAT     H141285   6.685   1.896   7.734
13681WAT     H241286   6.553   1.979   7.687
13682WAT      O41287   2.448   9.424   5.277
13682WAT     H141288   2.424   9.362   5.203
13682WAT     H241289   2.487   9.508   5.240
13683WAT      O41290   0.936   4.407   5.392
13683WAT     H141291   0.981   4.326   5.355
13683WAT     H241292   0.913   4.392   5.488
13684WAT      O41293   9.811   8.318   7.450
13684WAT     H141294   9.837   8.369   7.368
13684WAT     H241295   9.865   8.348   7.528
13685WAT      O41296   8.830   3.727   5.138
13685WAT     H141297   8.857   3.699   5.229
13685WAT     H241298   8.893   3.690   5.070
13686WAT      O41299   5.629   6.339   1.189
13686WAT     H141300   5.649   6.408   1.259
13686WAT     H241301   5.693   6.350   1.113
13687WAT      O41302   2.191   7.251   7.105
13687WAT     H141303   2.174   7.255   7.204
13687WAT     H241304   2.128   7.313   7.058
13688WAT      O41305   9.814   6.826   2.776
13688WAT     H141306   9.781   6.772   2.698
13688WAT     H241307   9.914   6.822   2.779
13689WAT      O41308   1.526   7.498   1.209
13689WAT     H141309   1.428   7.487   1.197
13689WAT     H241310   1.563   7.548   1.131
13690WAT      O41311   1.888   4.189   8.184
13690WAT     H141312   1.923   4.250   8.255
13690WAT     H241313   1.913   4.225   8.094
13691WAT      O41314   3.685   2.165   8.903
13691WAT     H141315   3.651   2.243   8.851
13691WAT     H241316   3.718   2.094   8.839
13692WAT      O41317   2.367   1.474   5.784
13692WAT     H141318   2.326   1.530   5.857
13692WAT     H241319   2.384   1.382   5.819
13693WAT      O41320   0.571   2.016   9.381
13693WAT     H141321   0.496   1.998   9.316
13693WAT     H241322   0.658   2.019   9.331
13694WAT      O41323   4.421   7.442   1.018
13694WAT     H141324   4.401   7.499   1.097
13694WAT     H241325   4.466   7.496   0.947
13695WAT      O41326   3.313   6.240   4.194
13695WAT     H141327   3.334   6.322   4.140
13695WAT     H241328   3.395   6.183   4.202
13696WAT      O41329   9.130   9.675   7.898
13696WAT     H141330   9.116   9.694   7.801
13696WAT     H241331   9.073   9.737   7.952
13697WAT      O41332   2.378   3.724   7.079
13697WAT     H141333   2.413   3.663   7.007
13697WAT     H241334   2.293   3.687   7.116
13698WAT      O41335   7.287   0.854   6.294
13698WAT     H141336   7.280   0.819   6.200
13698WAT     H241337   7.384   0.862   6.319
13699WAT      O41338   6.199   5.177   9.223
13699WAT     H141339   6.256   5.246   9.178
13699WAT     H241340   6.139   5.134   9.157
13700WAT      O41341   9.786   1.058   7.316
13700WAT     H141342   9.731   1.118   7.375
13700WAT     H241343   9.879   1.053   7.352
13701WAT      O41344   6.240   2.332   2.175
13701WAT     H141345   6.161   2.360   2.120
13701WAT     H241346   6.283   2.252   2.132
13702WAT      O41347   3.603   1.620   0.912
13702WAT     H141348   3.649   1.709   0.904
13702WAT     H241349   3.595   1.595   1.008
13703WAT      O41350   7.842   3.009   5.342
13703WAT     H141351   7.929   2.968   5.367
13703WAT     H241352   7.781   3.008   5.421
13704WAT      O41353   8.456   1.710   3.539
13704WAT     H141354   8.547   1.670   3.538
13704WAT     H241355   8.410   1.690   3.452
13705WAT      O41356   8.454   0.128   3.442
13705WAT     H141357   8.494   0.219   3.441
13705WAT     H241358   8.354   0.136   3.442
13706WAT      O41359   5.964   4.790   6.657
13706WAT     H141360   5.998   4.831   6.573
13706WAT     H241361   5.870   4.820   6.674
13707WAT      O41362   6.821   4.400   6.765
13707WAT     H141363   6.831   4.489   6.809
13707WAT     H241364   6.728   4.392   6.728
13708WAT      O41365   8.345   1.396   9.357
13708WAT     H141366   8.370   1.493   9.361
13708WAT     H241367   8.319   1.373   9.264
13709WAT      O41368   0.462   9.184   4.106
13709WAT     H141369   0.499   9.187   4.013
13709WAT     H241370   0.377   9.131   4.106
13710WAT      O41371   0.110   5.310   2.023
13710WAT     H141372   0.187   5.329   1.962
13710WAT     H241373   0.121   5.219   2.064
13711WAT      O41374   0.381   8.228   6.227
13711WAT     H141375   0.459   8.175   6.192
13711WAT     H241376   0.329   8.172   6.291
13712WAT      O41377   5.373   4.633   6.969
13712WAT     H141378   5.403   4.589   6.884
13712WAT     H241379   5.325   4.718   6.947
13713WAT      O41380   6.184   7.651   1.690
13713WAT     H141381   6.278   7.627   1.667
13713WAT     H241382   6.153   7.726   1.632
13714WAT      O41383   0.806   7.164   2.324
13714WAT     H141384   0.774   7.085   2.376
13714WAT     H241385   0.860   7.132   2.246
13715WAT      O41386   8.383   4.256   3.948
13715WAT     H141387   8.368   4.223   3.855
13715WAT     H241388   8.294   4.269   3.993
13716WAT      O41389   5.612   1.598   8.953
13716WAT     H141390   5.563   1.667   8.901
13716WAT     H241391   5.706   1.591   8.919
13717WAT      O41392   3.319   3.098   8.732
13717WAT     H141393   3.402   3.142   8.698
13717WAT     H241394   3.315   3.107   8.831
13718WAT      O41395   3.805   9.817   6.098
13718WAT     H141396   3.745   9.867   6.160
13718WAT     H241397   3.780   9.720   6.097
13719WAT      O41398   3.521   4.075   1.554
13719WAT     H141399   3.543   3.980   1.577
13719WAT     H241400   3.553   4.136   1.627
13720WAT      O41401   4.662   9.465   7.714
13720WAT     H141402   4.737   9.399   7.723
13720WAT     H241403   4.598   9.432   7.644
13721WAT      O41404   9.091   7.453   3.075
13721WAT     H141405   9.054   7.480   2.987
13721WAT     H241406   9.172   7.508   3.097
13722WAT      O41407   8.087   0.314   3.668
13722WAT     H141408   8.003   0.369   3.664
13722WAT     H241409   8.075   0.230   3.615
13723WAT      O41410   4.145   0.294   3.727
13723WAT     H141411   4.108   0.342   3.807
13723WAT     H241412   4.218   0.349   3.687
13724WAT      O41413   5.390   3.423   9.484
13724WAT     H141414   5.487   3.404   9.499
13724WAT     H241415   5.353   3.354   9.421
13725WAT      O41416   4.676   2.371   4.316
13725WAT     H141417   4.714   2.384   4.407
13725WAT     H241418   4.742   2.323   4.259
13726WAT      O41419   3.328   0.128   3.736
13726WAT     H141420   3.375   0.145   3.822
13726WAT     H241421   3.343   0.033   3.708
13727WAT      O41422   9.667   0.735   9.455
13727WAT     H141423   9.635   0.687   9.537
13727WAT     H241424   9.717   0.670   9.397
13728WAT      O41425   0.176   3.687   2.819
13728WAT     H141426   0.190   3.781   2.850
13728WAT     H241427   0.190   3.682   2.720
13729WAT      O41428   2.024   7.463   7.021
13729WAT     H141429   2.072   7.506   6.944
13729WAT     H241430   1.933   7.434   6.991
13730WAT      O41431   3.165   6.726   2.207
13730WAT     H141432   3.227   6.663   2.254
13730WAT     H241433   3.184   6.819   2.235
13731WAT      O41434   1.245   6.541   6.547
13731WAT     H141435   1.154   6.580   6.533
13731WAT     H241436   1.308   6.612   6.578
13732WAT      O41437   4.174   7.882   7.441
13732WAT     H141438   4.127   7.795   7.427
13732WAT     H241439   4.163   7.940   7.360
13733WAT      O41440   3.587   2.298   6.116
13733WAT     H141441   3.512   2.331   6.172
13733WAT     H241442   3.645   2.375   6.088
13734WAT      O41443   7.413   9.402   8.443
13734WAT     H141444   7.466   9.379   8.361
13734WAT     H241445   7.362   9.487   8.427
13735WAT      O41446   7.980   1.324   1.954
13735WAT     H141447   7.909   1.265   1.993
13735WAT     H241448   7.949   1.419   1.956
13736WAT      O41449   0.130   6.325   0.323
13736WAT     H141450   0.168   6.232   0.324
13736WAT     H241451   0.069   6.337   0.401
13737WAT      O41452   5.752   7.715   7.772
13737WAT     H141453   5.833   7.734   7.716
13737WAT     H241454   5.779   7.656   7.849
13738WAT      O41455   5.953   3.653   7.100
13738WAT     H141456   5.861   3.661   7.062
13738WAT     H241457   5.991   3.744   7.114
13739WAT      O41458   7.790   8.371   9.362
13739WAT     H141459   7.729   8.317   9.304
13739WAT     H241460   7.757   8.465   9.367
13740WAT      O41461   5.765   1.835   8.305
13740WAT     H141462   5.787   1.749   8.257
13740WAT     H241463   5.806   1.833   8.396
13741WAT      O41464   7.743   8.158   6.690
13741WAT     H141465   7.843   8.149   6.684
13741WAT     H241466   7.717   8.253   6.676
13742WAT      O41467   5.864   7.151   7.844
13742WAT     H141468   5.784   7.205   7.817
13742WAT     H241469   5.924   7.140   7.765
13743WAT      O41470   0.167   8.448   5.373
13743WAT     H141471   0.215   8.472   5.288
13743WAT     H241472   0.090   8.388   5.351
13744WAT      O41473   9.113   1.294   4.481
13744WAT     H141474   9.066   1.366   4.532
13744WAT     H241475   9.083   1.205   4.514
13745WAT      O41476   2.648   6.628   3.547
13745WAT     H141477   2.707   6.547   3.553
13745WAT     H241478   2.553   6.599   3.537
13746WAT      O41479   6.636   0.659   9.685
13746WAT     H141480   6.565   0.724   9.657
13746WAT     H241481   6.721   0.680   9.636
13747WAT      O41482   1.637   4.111   1.675
13747WAT     H141483   1.605   4.080   1.585
13747WAT     H241484   1.707   4.181   1.663
13748WAT      O41485   2.440   9.026   3.136
13748WAT     H141486   2.386   8.944   3.155
13748WAT     H241487   2.532   9.015   3.172
13749WAT      O41488   8.687   8.814   0.457
13749WAT     H141489   8.638   8.747   0.401
13749WAT     H241490   8.624   8.854   0.524
13750WAT      O41491   4.620   5.111   2.729
13750WAT     H141492   4.678   5.156   2.797
13750WAT     H241493   4.678   5.072   2.658
13751WAT      O41494   9.185   3.480   1.018
13751WAT     H141495   9.249   3.554   0.995
13751WAT     H241496   9.132   3.456   0.937
13752WAT      O41497   8.454   6.669   7.418
13752WAT     H141498   8.504   6.588   7.447
13752WAT     H241499   8.449   6.734   7.493
13753WAT      O41500   2.763   7.998   0.091
13753WAT     H141501   2.762   8.097   0.074
13753WAT     H241502   2.842   7.975   0.148
13754WAT      O41503   0.763   0.156   4.727
13754WAT     H141504   0.807   0.067   4.739
13754WAT     H241505   0.794   0.197   4.642
13755WAT      O41506   4.051   0.264   6.115
13755WAT     H141507   4.059   0.184   6.056
13755WAT     H241508   4.099   0.341   6.073
13756WAT      O41509   0.758   2.879   9.818
13756WAT     H141510   0.794   2.887   9.726
13756WAT     H241511   0.825   2.913   9.884
13757WAT      O41512   0.390   9.211   9.048
13757WAT     H141513   0.365   9.307   9.056
13757WAT     H241514   0.409   9.190   8.952
13758WAT      O41515   6.192   6.192   5.057
13758WAT     H141516   6.235   6.151   4.977
13758WAT     H241517   6.239   6.278   5.079
13759WAT      O41518   8.985   1.957   5.283
13759WAT     H141519   9.029   1.886   5.338
13759WAT     H241520   8.913   2.002   5.337
13760WAT      O41521   6.368   6.237   3.563
13760WAT     H141522   6.292   6.278   3.513
13760WAT     H241523   6.333   6.168   3.627
13761WAT      O41524   9.420   7.573   8.545
13761WAT     H141525   9.512   7.536   8.559
13761WAT     H241526   9.417   7.668   8.576
13762WAT      O41527   2.195   4.562   8.781
13762WAT     H141528   2.276   4.603   8.823
13762WAT     H241529   2.126   4.545   8.852
13763WAT      O41530   2.892   0.327   5.213
13763WAT     H141531   2.904   0.231   5.236
13763WAT     H241532   2.848   0.334   5.123
13764WAT      O41533   9.072   6.058   5.433
13764WAT     H141534   9.045   6.056   5.529
13764WAT     H241535   9.126   5.977   5.411
13765WAT      O41536   4.431   4.580   4.510
13765WAT     H141537   4.445   4.482   4.497
13765WAT     H241538   4.370   4.595   4.588
13766WAT      O41539   6.731   4.434   3.650
13766WAT     H141540   6.809   4.495   3.640
13766WAT     H241541   6.647   4.487   3.661
13767WAT      O41542   9.492   6.601   0.022
13767WAT     H141543   9.426   6.600   0.097
13767WAT     H241544   9.444   6.584  -0.064
13768WAT      O41545   4.367   8.238   3.895
13768WAT     H141546   4.446   8.247   3.955
13768WAT     H241547   4.356   8.322   3.841
13769WAT      O41548   2.445   6.673   7.058
13769WAT     H141549   2.516   6.603   7.053
13769WAT     H241550   2.485   6.762   7.034
13770WAT      O41551   7.299   5.424   3.679
13770WAT     H141552   7.391   5.384   3.672
13770WAT     H241553   7.260   5.401   3.768
13771WAT      O41554   9.775   6.149   0.053
13771WAT     H141555   9.754   6.195   0.139
13771WAT     H241556   9.874   6.150   0.037
13772WAT      O41557   1.259   1.270   8.800
13772WAT     H141558   1.249   1.177   8.833
13772WAT     H241559   1.169   1.311   8.786
13773WAT      O41560   4.852   3.255   7.107
13773WAT     H141561   4.917   3.281   7.036
13773WAT     H241562   4.893   3.271   7.197
13774WAT      O41563   1.127   7.543   2.205
13774WAT     H141564   1.136   7.609   2.280
13774WAT     H241565   1.055   7.573   2.143
13775WAT      O41566   2.128   5.925   1.648
13775WAT     H141567   2.129   5.851   1.581
13775WAT     H241568   2.222   5.952   1.668
13776WAT      O41569   3.554   1.791   7.374
13776WAT     H141570   3.520   1.807   7.467
13776WAT     H241571   3.608   1.707   7.372
13777WAT      O41572   5.768   6.822   8.126
13777WAT     H141573   5.721   6.910   8.125
13777WAT     H241574   5.819   6.811   8.211
13778WAT      O41575   8.471   8.469   5.866
13778WAT     H141576   8.492   8.555   5.912
13778WAT     H241577   8.373   8.449   5.875
13779WAT      O41578   8.118   5.770   3.237
13779WAT     H141579   8.059   5.698   3.274
13779WAT     H241580   8.212   5.755   3.267
13780WAT      O41581   2.190   7.930   9.341
13780WAT     H141582   2.141   7.906   9.257
13780WAT     H241583   2.235   7.847   9.377
13781WAT      O41584   8.346   2.864   1.832
13781WAT     H141585   8.346   2.794   1.761
13781WAT     H241586   8.354   2.821   1.922
13782WAT      O41587   5.466   6.205   2.631
13782WAT     H141588   5.507   6.256   2.707
13782WAT     H241589   5.376   6.245   2.610
13783WAT      O41590   6.390   3.570   2.126
13783WAT     H141591   6.417   3.663   2.100
13783WAT     H241592   6.302   3.573   2.175
13784WAT      O41593   0.765   8.436   6.399
13784WAT     H141594   0.750   8.432   6.300
13784WAT     H241595   0.864   8.438   6.417
13785WAT      O41596   2.772   2.135   5.402
13785WAT     H141597   2.729   2.154   5.490
13785WAT     H241598   2.847   2.199   5.387
13786WAT      O41599   1.769   4.740   7.787
13786WAT     H141600   1.803   4.649   7.808
13786WAT     H241601   1.721   4.739   7.700
13787WAT      O41602   3.307   2.257   8.117
13787WAT     H141603   3.226   2.278   8.062
13787WAT     H241604   3.360   2.340   8.131
13788WAT      O41605   3.447   6.022   1.057
13788WAT     H141606   3.544   6.043   1.056
13788WAT     H241607   3.394   6.106   1.046
13789WAT      O41608   5.878   4.342   1.620
13789WAT     H141609   5.840   4.340   1.712
13789WAT     H241610   5.806   4.323   1.553
13790WAT      O41611   0.579   4.757   0.863
13790WAT     H141612   0.537   4.707   0.787
13790WAT     H241613   0.674   4.728   0.872
13791WAT      O41614   7.116   8.791   9.673
13791WAT     H141615   7.068   8.877   9.654
13791WAT     H241616   7.173   8.802   9.754
13792WAT      O41617   0.573   6.485   7.346
13792WAT     H141618   0.482   6.518   7.370
13792WAT     H241619   0.578   6.386   7.360
13793WAT      O41620   3.588   5.578   9.211
13793WAT     H141621   3.624   5.618   9.127
13793WAT     H241622   3.647   5.502   9.239
13794WAT      O41623   2.130   2.046   7.547
13794WAT     H141624   2.208   2.103   7.574
13794WAT     H241625   2.086   2.010   7.629
13795WAT      O41626   8.650   4.570   2.323
13795WAT     H141627   8.574   4.506   2.314
13795WAT     H241628   8.636   4.630   2.402
13796WAT      O41629   8.299   0.991   8.741
13796WAT     H141630   8.235   1.058   8.778
13796WAT     H241631   8.362   0.961   8.813
13797WAT      O41632   6.075   2.126   6.262
13797WAT     H141633   6.139   2.082   6.325
13797WAT     H241634   6.125   2.178   6.193
13798WAT      O41635   5.841   5.748   2.357
13798WAT     H141636   5.850   5.782   2.450
13798WAT     H241637   5.765   5.795   2.311
13799WAT      O41638   5.781   4.372   9.061
13799WAT     H141639   5.784   4.307   8.986
13799WAT     H241640   5.773   4.465   9.025
13800WAT      O41641   1.235   5.103   1.173
13800WAT     H141642   1.290   5.135   1.250
13800WAT     H241643   1.295   5.066   1.102
13801WAT      O41644   8.333   9.094   8.836
13801WAT     H141645   8.373   9.143   8.759
13801WAT     H241646   8.238   9.123   8.849
13802WAT      O41647   2.648   5.359   8.750
13802WAT     H141648   2.554   5.362   8.715
13802WAT     H241649   2.648   5.386   8.847
13803WAT      O41650   8.239   8.033   2.293
13803WAT     H141651   8.228   7.977   2.211
13803WAT     H241652   8.251   7.973   2.372
13804WAT      O41653   8.463   7.533   2.956
13804WAT     H141654   8.387   7.528   2.891
13804WAT     H241655   8.436   7.590   3.034
13805WAT      O41656   6.894   9.389   8.261
13805WAT     H141657   6.915   9.432   8.350
13805WAT     H241658   6.855   9.458   8.200
13806WAT      O41659   8.508   7.740   1.726
13806WAT     H141660   8.430   7.781   1.775
13806WAT     H241661   8.530   7.796   1.646
13807WAT      O41662   5.872   5.930   2.990
13807WAT     H141663   5.787   5.983   3.003
13807WAT     H241664   5.930   5.977   2.923
13808WAT      O41665   9.265   1.272   2.372
13808WAT     H141666   9.217   1.301   2.289
13808WAT     H241667   9.209   1.294   2.452
13809WAT      O41668   9.411   5.824   3.181
13809WAT     H141669   9.459   5.882   3.247
13809WAT     H241670   9.471   5.805   3.104
13810WAT      O41671   8.989   8.932   0.476
13810WAT     H141672   8.961   9.028   0.472
13810WAT     H241673   9.088   8.927   0.484
13811WAT      O41674   5.353   9.372   7.427
13811WAT     H141675   5.335   9.442   7.497
13811WAT     H241676   5.432   9.399   7.373
13812WAT      O41677   3.975   2.736   6.196
13812WAT     H141678   4.046   2.667   6.181
13812WAT     H241679   3.942   2.730   6.290
13813WAT      O41680   3.925   2.369   5.916
13813WAT     H141681   3.929   2.418   6.003
13813WAT     H241682   3.908   2.272   5.933
13814WAT      O41683   5.223   1.884   3.215
13814WAT     H141684   5.129   1.908   3.242
13814WAT     H241685   5.250   1.941   3.137
13815WAT      O41686   7.883   5.072   0.920
13815WAT     H141687   7.922   5.052   1.010
13815WAT     H241688   7.857   4.987   0.875
13816WAT      O41689   4.661   1.234   7.053
13816WAT     H141690   4.562   1.237   7.042
13816WAT     H241691   4.685   1.164   7.120
13817WAT      O41692   9.376   8.990   0.923
13817WAT     H141693   9.447   8.920   0.926
13817WAT     H241694   9.382   9.048   1.004
13818WAT      O41695   4.999   3.262   4.406
13818WAT     H141696   5.041   3.175   4.380
13818WAT     H241697   5.026   3.333   4.340
13819WAT      O41698   6.151   7.317   5.832
13819WAT     H141699   6.234   7.265   5.852
13819WAT     H241700   6.077   7.253   5.811
13820WAT      O41701   9.739   4.696   3.348
13820WAT     H141702   9.765   4.780   3.395
13820WAT     H241703   9.692   4.635   3.411
13821WAT      O41704   4.177   6.131   3.094
13821WAT     H141705   4.097   6.191   3.104
13821WAT     H241706   4.159   6.062   3.024
13822WAT      O41707   4.038   1.438   9.469
13822WAT     H141708   4.127   1.466   9.434
13822WAT     H241709   4.006   1.503   9.537
13823WAT      O41710   5.968   7.219   9.443
13823WAT     H141711   5.993   7.174   9.529
13823WAT     H241712   5.894   7.167   9.399
13824WAT      O41713   9.855   2.373   0.519
13824WAT     H141714   9.851   2.279   0.486
13824WAT     H241715   9.910   2.429   0.457
13825WAT      O41716   6.621   6.512   8.225
13825WAT     H141717   6.657   6.449   8.295
13825WAT     H241718   6.526   6.534   8.245
13826WAT      O41719   7.929   7.850   9.397
13826WAT     H141720   7.910   7.815   9.489
13826WAT     H241721   7.899   7.784   9.329
13827WAT      O41722   7.476   2.877   0.037
13827WAT     H141723   7.383   2.863   0.072
13827WAT     H241724   7.477   2.865  -0.062
13828WAT      O41725   2.760   9.294   9.007
13828WAT     H141726   2.855   9.277   8.980
13828WAT     H241727   2.699   9.241   8.949
13829WAT      O41728   5.614   3.214   2.335
13829WAT     H141729   5.566   3.225   2.248
13829WAT     H241730   5.600   3.295   2.392
13830WAT      O41731   3.861   8.358   5.377
13830WAT     H141732   3.879   8.310   5.292
13830WAT     H241733   3.904   8.449   5.373
13831WAT      O41734   2.952   4.108   4.841
13831WAT     H141735   3.034   4.077   4.793
13831WAT     H241736   2.874   4.105   4.779
13832WAT      O41737   8.267   7.825   1.794
13832WAT     H141738   8.245   7.916   1.829
13832WAT     H241739   8.185   7.782   1.759
13833WAT      O41740   9.442   5.808   7.551
13833WAT     H141741   9.386   5.888   7.529
13833WAT     H241742   9.538   5.835   7.553
13834WAT      O41743   3.547   5.910   2.236
13834WAT     H141744   3.474   5.843   2.248
13834WAT     H241745   3.549   5.940   2.140
13835WAT      O41746   1.386   4.853   9.683
13835WAT     H141747   1.352   4.765   9.715
13835WAT     H241748   1.313   4.903   9.636
13836WAT      O41749   4.232   4.670   1.268
13836WAT     H141750   4.216   4.761   1.305
13836WAT     H241751   4.270   4.611   1.339
13837WAT      O41752   9.235   2.540   0.014
13837WAT     H141753   9.220   2.441   0.015
13837WAT     H241754   9.308   2.563  -0.050
13838WAT      O41755   2.799   3.801   1.019
13838WAT     H141756   2.806   3.782   1.117
13838WAT     H241757   2.858   3.878   0.995
13839WAT      O41758   4.192   4.158   3.895
13839WAT     H141759   4.268   4.123   3.950
13839WAT     H241760   4.106   4.143   3.944
13840WAT      O41761   6.304   9.075   0.811
13840WAT     H141762   6.353   8.992   0.783
13840WAT     H241763   6.225   9.089   0.752
13841WAT      O41764   0.637   1.085   7.535
13841WAT     H141765   0.622   1.181   7.561
13841WAT     H241766   0.730   1.073   7.500
13842WAT      O41767   1.831   4.831   1.816
13842WAT     H141768   1.888   4.796   1.742
13842WAT     H241769   1.798   4.755   1.872
13843WAT      O41770   7.181   0.995   0.666
13843WAT     H141771   7.179   1.025   0.570
13843WAT     H241772   7.142   0.902   0.672
13844WAT      O41773   6.442   0.258   6.145
13844WAT     H141774   6.380   0.200   6.197
13844WAT     H241775   6.475   0.207   6.065
13845WAT      O41776   1.800   2.545   6.857
13845WAT     H141777   1.780   2.640   6.832
13845WAT     H241778   1.831   2.542   6.952
13846WAT      O41779   2.603   2.090   6.640
13846WAT     H141780   2.530   2.121   6.579
13846WAT     H241781   2.653   2.015   6.597
13847WAT      O41782   8.130   2.985   8.312
13847WAT     H141783   8.161   3.037   8.392
13847WAT     H241784   8.075   3.045   8.253
13848WAT      O41785   2.172   8.154   1.379
13848WAT     H141786   2.074   8.161   1.402
13848WAT     H241787   2.218   8.237   1.410
13849WAT      O41788   8.883   4.030   4.710
13849WAT     H141789   8.919   4.101   4.770
13849WAT     H241790   8.822   4.071   4.641
13850WAT      O41791   0.411   5.183   5.857
13850WAT     H141792   0.496   5.204   5.905
13850WAT     H241793   0.336   5.234   5.899
13851WAT      O41794   6.601   1.746   9.544
13851WAT     H141795   6.655   1.806   9.604
13851WAT     H241796   6.543   1.802   9.485
13852WAT      O41797   7.511   8.900   3.413
13852WAT     H141798   7.514   8.852   3.501
13852WAT     H241799   7.598   8.889   3.365
13853WAT      O41800   4.835   2.187   5.660
13853WAT     H141801   4.803   2.227   5.746
13853WAT     H241802   4.775   2.110   5.635
13854WAT      O41803   1.427   7.677   3.095
13854WAT     H141804   1.352   7.726   3.050
13854WAT     H241805   1.514   7.706   3.055
13855WAT      O41806   9.784   5.349   6.477
13855WAT     H141807   9.876   5.355   6.516
13855WAT     H241808   9.721   5.316   6.548
13856WAT      O41809   7.281   4.891   4.077
13856WAT     H141810   7.259   4.988   4.086
13856WAT     H241811   7.207   4.836   4.116
13857WAT      O41812   8.902   9.172   4.560
13857WAT     H141813   8.850   9.167   4.474
13857WAT     H241814   8.997   9.194   4.540
13858WAT      O41815   3.822   3.764   4.015
13858WAT     H141816   3.724   3.770   3.996
13858WAT     H241817   3.874   3.806   3.940
13859WAT      O41818   1.303   2.053   5.915
13859WAT     H141819   1.310   2.103   5.828
13859WAT     H241820   1.387   2.003   5.932
13860WAT      O41821   4.343   3.790   1.681
13860WAT     H141822   4.404   3.781   1.759
13860WAT     H241823   4.324   3.700   1.643
13861WAT      O41824   7.777   4.139   7.062
13861WAT     H141825   7.687   4.172   7.032
13861WAT     H241826   7.821   4.088   6.988
13862WAT      O41827   4.468   7.166   9.045
13862WAT     H141828   4.477   7.253   8.998
13862WAT     H241829   4.555   7.142   9.089
13863WAT      O41830   6.132   1.776   8.784
13863WAT     H141831   6.166   1.801   8.693
13863WAT     H241832   6.196   1.713   8.827
13864WAT      O41833   2.044   0.385   5.840
13864WAT     H141834   2.007   0.297   5.871
13864WAT     H241835   2.115   0.415   5.903
13865WAT      O41836   4.670   4.364   7.881
13865WAT     H141837   4.615   4.446   7.865
13865WAT     H241838   4.742   4.385   7.947
13866WAT      O41839   3.340   3.647   8.128
13866WAT     H141840   3.301   3.581   8.063
13866WAT     H241841   3.315   3.739   8.100
13867WAT      O41842   7.199   9.275   5.126
13867WAT     H141843   7.218   9.207   5.054
13867WAT     H241844   7.274   9.275   5.192
13868WAT      O41845   7.587   3.829   5.158
13868WAT     H141846   7.549   3.898   5.096
13868WAT     H241847   7.519   3.758   5.174
13869WAT      O41848   8.127   3.756   7.818
13869WAT     H141849   8.162   3.663   7.813
13869WAT     H241850   8.191   3.819   7.774
13870WAT      O41851   1.682   8.800   5.174
13870WAT     H141852   1.604   8.742   5.196
13870WAT     H241853   1.735   8.820   5.257
13871WAT      O41854   6.237   3.208   4.129
13871WAT     H141855   6.277   3.282   4.183
13871WAT     H241856   6.157   3.171   4.177
13872WAT      O41857   7.858   3.224   8.145
13872WAT     H141858   7.942   3.271   8.174
13872WAT     H241859   7.799   3.210   8.224
13873WAT      O41860   9.637   8.728   1.345
13873WAT     H141861   9.721   8.779   1.364
13873WAT     H241862   9.564   8.760   1.406
13874WAT      O41863   8.144   0.208   6.928
13874WAT     H141864   8.137   0.232   7.024
13874WAT     H241865   8.081   0.133   6.908
13875WAT      O41866   9.061   3.816   8.949
13875WAT     H141867   9.022   3.786   9.036
13875WAT     H241868   9.156   3.785   8.943
13876WAT      O41869   0.739   5.640   7.356
13876WAT     H141870   0.703   5.634   7.449
13876WAT     H241871   0.663   5.648   7.291
13877WAT      O41872   5.369   5.495   8.736
13877WAT     H141873   5.361   5.557   8.814
13877WAT     H241874   5.444   5.431   8.752
13878WAT      O41875   6.501   3.359   5.150
13878WAT     H141876   6.578   3.328   5.094
13878WAT     H241877   6.529   3.361   5.246
13879WAT      O41878   5.918   3.201   6.839
13879WAT     H141879   5.824   3.169   6.832
13879WAT     H241880   5.926   3.293   6.800
13880WAT      O41881   3.272   5.446   0.444
13880WAT     H141882   3.345   5.452   0.376
13880WAT     H241883   3.188   5.484   0.405
13881WAT      O41884   3.804   9.056   9.260
13881WAT     H141885   3.749   9.135   9.285
13881WAT     H241886   3.773   9.020   9.172
13882WAT      O41887   3.702   1.827   0.204
13882WAT     H141888   3.796   1.818   0.237
13882WAT     H241889   3.685   1.922   0.179
13883WAT      O41890   6.080   1.478   2.316
13883WAT     H141891   6.060   1.406   2.382
13883WAT     H241892   6.175   1.471   2.286
13884WAT      O41893   7.797   2.511   8.689
13884WAT     H141894   7.713   2.468   8.655
13884WAT     H241895   7.863   2.441   8.715
13885WAT      O41896   5.338   0.346   0.119
13885WAT     H141897   5.412   0.404   0.085
13885WAT     H241898   5.255   0.363   0.066
13886WAT      O41899   0.361   4.377   8.466
13886WAT     H141900   0.332   4.403   8.558
13886WAT     H241901   0.389   4.459   8.416
13887WAT      O41902   4.483   5.914   8.375
13887WAT     H141903   4.556   5.914   8.307
13887WAT     H241904   4.491   5.833   8.433
13888WAT      O41905   2.783   1.274   7.268
13888WAT     H141906   2.803   1.179   7.244
13888WAT     H241907   2.684   1.287   7.273
13889WAT      O41908   5.367   3.425   7.759
13889WAT     H141909   5.376   3.500   7.694
13889WAT     H241910   5.304   3.356   7.723
13890WAT      O41911   7.454   5.332   0.712
13890WAT     H141912   7.409   5.368   0.794
13890WAT     H241913   7.553   5.333   0.724
13891WAT      O41914   0.928   9.524   7.190
13891WAT     H141915   0.978   9.489   7.111
13891WAT     H241916   0.978   9.501   7.274
13892WAT      O41917   3.264   2.881   8.379
13892WAT     H141918   3.319   2.799   8.362
13892WAT     H241919   3.209   2.901   8.298
13893WAT      O41920   0.037   5.997   4.256
13893WAT     H141921   0.103   6.009   4.330
13893WAT     H241922   0.043   5.904   4.221
13894WAT      O41923   9.057   5.741   2.547
13894WAT     H141924   8.985   5.719   2.612
13894WAT     H241925   9.131   5.790   2.594
13895WAT      O41926   2.864   8.823   5.860
13895WAT     H141927   2.895   8.752   5.797
13895WAT     H241928   2.944   8.872   5.896
13896WAT      O41929   6.951   0.205   9.300
13896WAT     H141930   6.964   0.259   9.383
13896WAT     H241931   6.936   0.110   9.325
13897WAT      O41932   3.128   5.819   9.797
13897WAT     H141933   3.201   5.813   9.866
13897WAT     H241934   3.067   5.740   9.806
13898WAT      O41935   0.349   2.448   7.047
13898WAT     H141936   0.316   2.417   7.137
13898WAT     H241937   0.406   2.377   7.006
13899WAT      O41938   5.730   1.860   1.268
13899WAT     H141939   5.644   1.808   1.269
13899WAT     H241940   5.757   1.881   1.362
13900WAT      O41941   7.806   1.671   8.914
13900WAT     H141942   7.895   1.630   8.895
13900WAT     H241943   7.745   1.655   8.836
13901WAT      O41944   3.468   3.116   4.201
13901WAT     H141945   3.420   3.105   4.114
13901WAT     H241946   3.532   3.192   4.195
13902WAT      O41947   5.418   1.026   8.531
13902WAT     H141948   5.472   1.106   8.502
13902WAT     H241949   5.404   1.030   8.630
13903WAT      O41950   7.870   0.138   4.954
13903WAT     H141951   7.934   0.110   4.883
13903WAT     H241952   7.793   0.186   4.912
13904WAT      O41953   7.882   6.626   9.026
13904WAT     H141954   7.971   6.669   9.038
13904WAT     H241955   7.879   6.540   9.077
13905WAT      O41956   1.155   0.308   6.258
13905WAT     H141957   1.191   0.401   6.258
13905WAT     H241958   1.230   0.243   6.269
13906WAT      O41959   3.639   8.879   7.323
13906WAT     H141960   3.624   8.786   7.289
13906WAT     H241961   3.599   8.889   7.414
13907WAT      O41962   6.846   0.955   4.467
13907WAT     H141963   6.855   0.923   4.561
13907WAT     H241964   6.795   1.042   4.466
13908WAT      O41965   3.200   7.859   2.678
13908WAT     H141966   3.146   7.940   2.701
13908WAT     H241967   3.285   7.886   2.634
13909WAT      O41968   7.186   8.642   0.335
13909WAT     H141969   7.160   8.551   0.300
13909WAT     H241970   7.265   8.633   0.396
13910WAT      O41971   4.100   5.579   6.436
13910WAT     H141972   4.014   5.566   6.388
13910WAT     H241973   4.153   5.651   6.390
13911WAT      O41974   5.589   8.375   1.128
13911WAT     H141975   5.623   8.355   1.036
13911WAT     H241976   5.662   8.361   1.195
13912WAT      O41977   9.258   4.870   5.612
13912WAT     H141978   9.289   4.881   5.706
13912WAT     H241979   9.306   4.792   5.570
13913WAT      O41980   0.390   5.339   1.315
13913WAT     H141981   0.367   5.242   1.324
13913WAT     H241982   0.386   5.365   1.218
13914WAT      O41983   1.808   7.491   1.701
13914WAT     H141984   1.828   7.573   1.753
13914WAT     H241985   1.795   7.514   1.604
13915WAT      O41986   2.320   0.460   4.260
13915WAT     H141987   2.379   0.422   4.331
13915WAT     H241988   2.376   0.505   4.190
13916WAT      O41989   7.000   4.252   6.431
13916WAT     H141990   6.905   4.252   6.462
13916WAT     H241991   7.059   4.280   6.506
13917WAT      O41992   3.754   9.461   3.498
13917WAT     H141993   3.829   9.400   3.473
13917WAT     H241994   3.774   9.504   3.586
13918WAT      O41995   6.245   0.930   8.973
13918WAT     H141996   6.190   1.006   9.008
13918WAT     H241997   6.342   0.950   8.986
13919WAT      O41998   8.231   1.581   1.747
13919WAT     H141999   8.201   1.492   1.783
13919WAT     H242000   8.330   1.583   1.740
13920WAT      O42001   7.042   1.191   3.408
13920WAT     H142002   7.130   1.144   3.405
13920WAT     H242003   6.968   1.125   3.398
13921WAT      O42004   5.266   3.875   9.415
13921WAT     H142005   5.235   3.897   9.508
13921WAT     H242006   5.239   3.782   9.393
13922WAT      O42007   4.925   5.354   0.760
13922WAT     H142008   4.829   5.366   0.735
13922WAT     H242009   4.981   5.416   0.705
13923WAT      O42010   1.760   2.298   1.699
13923WAT     H142011   1.812   2.344   1.771
13923WAT     H242012   1.751   2.359   1.620
13924WAT      O42013   4.241   7.706   1.849
13924WAT     H142014   4.277   7.791   1.886
13924WAT     H242015   4.142   7.714   1.837
13925WAT      O42016   8.533   0.039   6.044
13925WAT     H142017   8.561   0.132   6.067
13925WAT     H242018   8.599  -0.000   5.979
13926WAT      O42019   4.550   9.362   8.523
13926WAT     H142020   4.524   9.459   8.521
13926WAT     H242021   4.621   9.348   8.591
13927WAT      O42022   2.734   9.069   1.764
13927WAT     H142023   2.791   9.078   1.846
13927WAT     H242024   2.658   9.007   1.783
13928WAT      O42025   3.227   5.945   2.105
13928WAT     H142026   3.233   5.854   2.063
13928WAT     H242027   3.164   6.002   2.052
13929WAT      O42028   1.350   8.783   6.941
13929WAT     H142029   1.318   8.713   7.006
13929WAT     H242030   1.354   8.872   6.987
13930WAT      O42031   7.199   8.376   0.223
13930WAT     H142032   7.218   8.379   0.125
13930WAT     H242033   7.272   8.325   0.269
13931WAT      O42034   3.704   9.001   0.714
13931WAT     H142035   3.684   8.977   0.619
13931WAT     H242036   3.652   8.940   0.775
13932WAT      O42037   8.020   9.438   9.728
13932WAT     H142038   7.978   9.470   9.813
13932WAT     H242039   8.065   9.350   9.744
13933WAT      O42040   0.640   3.542   8.201
13933WAT     H142041   0.552   3.495   8.208
13933WAT     H242042   0.628   3.629   8.155
13934WAT      O42043   7.508   0.271   0.538
13934WAT     H142044   7.594   0.321   0.536
13934WAT     H242045   7.438   0.323   0.489
13935WAT      O42046   7.753   8.790   1.862
13935WAT     H142047   7.723   8.882   1.836
13935WAT     H242048   7.762   8.786   1.962
13936WAT      O42049   8.373   9.069   8.193
13936WAT     H142050   8.339   9.158   8.162
13936WAT     H242051   8.374   9.067   8.293
13937WAT      O42052   3.005   2.337   7.926
13937WAT     H142053   3.086   2.383   7.890
13937WAT     H242054   3.001   2.244   7.890
13938WAT      O42055   2.700   4.057   0.393
13938WAT     H142056   2.661   3.975   0.435
13938WAT     H242057   2.660   4.071   0.303
13939WAT      O42058   3.635   6.601   6.535
13939WAT     H142059   3.650   6.686   6.585
13939WAT     H242060   3.723   6.566   6.502
13940WAT      O42061   3.378   3.650   7.027
13940WAT     H142062   3.328   3.597   6.959
13940WAT     H242063   3.357   3.747   7.016
13941WAT      O42064   3.527   5.457   3.275
13941WAT     H142065   3.534   5.553   3.302
13941WAT     H242066   3.615   5.425   3.240
13942WAT      O42067   7.436   4.538   2.345
13942WAT     H142068   7.469   4.448   2.375
13942WAT     H242069   7.488   4.567   2.264
13943WAT      O42070   8.102   0.101   9.673
13943WAT     H142071   8.095   0.031   9.745
13943WAT     H242072   8.150   0.181   9.709
13944WAT      O42073   4.178   3.940   5.095
13944WAT     H142074   4.239   4.019   5.096
13944WAT     H242075   4.229   3.858   5.120
13945WAT      O42076   8.984   5.774   9.745
13945WAT     H142077   8.923   5.784   9.667
13945WAT     H242078   9.076   5.748   9.714
13946WAT      O42079   7.529   2.665   3.841
13946WAT     H142080   7.616   2.623   3.867
13946WAT     H242081   7.540   2.716   3.755
13947WAT      O42082   9.604   1.940   0.927
13947WAT     H142083   9.659   2.021   0.903
13947WAT     H242084   9.623   1.867   0.862
13948WAT      O42085   5.946   8.912   7.176
13948WAT     H142086   5.849   8.935   7.169
13948WAT     H242087   5.956   8.815   7.200
13949WAT      O42088   2.201   7.250   5.651
13949WAT     H142089   2.192   7.170   5.591
13949WAT     H242090   2.282   7.239   5.709
13950WAT      O42091   5.899   8.758   1.528
13950WAT     H142092   5.962   8.712   1.466
13950WAT     H242093   5.917   8.727   1.622
13951WAT      O42094   1.494   0.071   5.170
13951WAT     H142095   1.452   0.134   5.105
13951WAT     H242096   1.423   0.014   5.211
13952WAT      O42097   8.339   9.106   6.996
13952WAT     H142098   8.269   9.077   7.061
13952WAT     H242099   8.409   9.159   7.044
13953WAT      O42100   4.921   6.872   9.260
13953WAT     H142101   4.885   6.953   9.306
13953WAT     H242102   4.847   6.828   9.209
13954WAT      O42103   7.892   6.780   6.787
13954WAT     H142104   7.920   6.713   6.718
13954WAT     H242105   7.867   6.866   6.742
13955WAT      O42106   9.675   4.366   7.154
13955WAT     H142107   9.651   4.279   7.111
13955WAT     H242108   9.601   4.394   7.216
13956WAT      O42109   9.072   8.520   9.773
13956WAT     H142110   9.126   8.440   9.748
13956WAT     H242111   8.980   8.511   9.734
13957WAT      O42112   5.691   1.282   5.483
13957WAT     H142113   5.730   1.374   5.490
13957WAT     H242114   5.695   1.237   5.572
13958WAT      O42115   1.680   7.943   9.078
13958WAT     H142116   1.654   7.851   9.048
13958WAT     H242117   1.726   7.991   9.003
13959WAT      O42118   5.994   5.129   3.198
13959WAT     H142119   6.033   5.164   3.283
13959WAT     H242120   5.894   5.137   3.201
13960WAT      O42121   2.645   2.295   7.047
13960WAT     H142122   2.708   2.372   7.047
13960WAT     H242123   2.595   2.293   6.961
13961WAT      O42124   7.505   6.642   0.388
13961WAT     H142125   7.530   6.721   0.444
13961WAT     H242126   7.526   6.558   0.438
13962WAT      O42127   8.073   8.360   9.747
13962WAT     H142128   7.978   8.387   9.759
13962WAT     H242129   8.130   8.441   9.735
13963WAT      O42130   6.909   6.588   8.393
13963WAT     H142131   6.995   6.618   8.432
13963WAT     H242132   6.922   6.499   8.347
13964WAT      O42133   9.686   9.069   3.178
13964WAT     H142134   9.678   9.090   3.276
13964WAT     H242135   9.712   9.152   3.129
13965WAT      O42136   6.199   8.332   3.763
13965WAT     H142137   6.107   8.370   3.774
13965WAT     H242138   6.249   8.341   3.849
13966WAT      O42139   0.817   3.635   3.618
13966WAT     H142140   0.868   3.550   3.629
13966WAT     H242141   0.855   3.687   3.542
13967WAT      O42142   6.895   6.423   4.697
13967WAT     H142143   6.844   6.499   4.658
13967WAT     H242144   6.867   6.337   4.654
13968WAT      O42145   6.958   6.968   6.587
13968WAT     H142146   6.966   6.976   6.487
13968WAT     H242147   6.907   7.047   6.622
13969WAT      O42148   5.769   7.835   9.551
13969WAT     H142149   5.748   7.738   9.543
13969WAT     H242150   5.734   7.870   9.638
13970WAT      O42151   5.921   6.489   1.679
13970WAT     H142152   5.919   6.423   1.604
13970WAT     H242153   6.001   6.548   1.670
13971WAT      O42154   1.056   3.675   5.391
13971WAT     H142155   1.005   3.592   5.369
13971WAT     H242156   1.134   3.652   5.449
13972WAT      O42157   0.938   1.883   2.109
13972WAT     H142158   0.912   1.977   2.132
13972WAT     H242159   0.856   1.831   2.085
13973WAT      O42160   9.553   9.603   0.650
13973WAT     H142161   9.649   9.592   0.624
13973WAT     H242162   9.542   9.583   0.747
13974WAT      O42163   4.457   8.409   8.635
13974WAT     H142164   4.517   8.403   8.715
13974WAT     H242165   4.410   8.497   8.634
13975WAT      O42166   2.308   0.236   3.861
13975WAT     H142167   2.395   0.284   3.872
13975WAT     H242168   2.285   0.188   3.946
13976WAT      O42169   1.180   5.936   7.766
13976WAT     H142170   1.133   5.850   7.745
13976WAT     H242171   1.145   5.973   7.853
13977WAT      O42172   8.810   4.910   3.127
13977WAT     H142173   8.812   4.832   3.064
13977WAT     H242174   8.731   4.968   3.107
13978WAT      O42175   5.000   1.191   2.456
13978WAT     H142176   4.967   1.208   2.549
13978WAT     H242177   5.014   1.278   2.409
13979WAT      O42178   1.231   3.780   0.483
13979WAT     H142179   1.155   3.764   0.420
13979WAT     H242180   1.234   3.877   0.508
13980WAT      O42181   3.522   7.096   8.610
13980WAT     H142182   3.569   7.049   8.535
13980WAT     H242183   3.465   7.170   8.572
13981WAT      O42184   8.575   1.921   6.867
13981WAT     H142185   8.543   1.977   6.944
13981WAT     H242186   8.601   1.831   6.902
13982WAT      O42187   4.252   2.650   2.395
13982WAT     H142188   4.340   2.646   2.348
13982WAT     H242189   4.264   2.693   2.485
13983WAT      O42190   8.032   1.506   1.136
13983WAT     H142191   8.121   1.461   1.136
13983WAT     H242192   8.041   1.600   1.103
13984WAT      O42193   4.507   3.162   1.829
13984WAT     H142194   4.496   3.155   1.730
13984WAT     H242195   4.419   3.186   1.870
13985WAT      O42196   7.629   0.098   9.430
13985WAT     H142197   7.659   0.005   9.411
13985WAT     H242198   7.530   0.103   9.431
13986WAT      O42199   3.357   8.617   6.498
13986WAT     H142200   3.338   8.612   6.596
13986WAT     H242201   3.270   8.619   6.448
13987WAT      O42202   7.034   2.466   2.053
13987WAT     H142203   6.966   2.415   2.106
13987WAT     H242204   7.115   2.482   2.110
13988WAT      O42205   8.150   0.586   5.276
13988WAT     H142206   8.215   0.569   5.202
13988WAT     H242207   8.057   0.574   5.242
13989WAT      O42208   4.063   4.722   6.358
13989WAT     H142209   4.047   4.690   6.451
13989WAT     H242210   3.987   4.693   6.299
13990WAT      O42211   5.896   6.478   2.898
13990WAT     H142212   5.850   6.432   2.974
13990WAT     H242213   5.860   6.571   2.888
13991WAT      O42214   5.780   5.894   3.928
13991WAT     H142215   5.751   5.975   3.979
13991WAT     H242216   5.871   5.910   3.891
13992WAT      O42217   1.741   2.770   5.640
13992WAT     H142218   1.666   2.717   5.679
13992WAT     H242219   1.781   2.720   5.563
13993WAT      O42220   1.096   3.749   8.543
13993WAT     H142221   1.170   3.747   8.477
13993WAT     H242222   1.021   3.804   8.508
13994WAT      O42223   9.253   6.876   1.212
13994WAT     H142224   9.155   6.859   1.221
13994WAT     H242225   9.304   6.799   1.250
13995WAT      O42226   3.094   6.102   4.276
13995WAT     H142227   3.152   6.164   4.223
13995WAT     H242228   3.081   6.017   4.224
13996WAT      O42229   0.934   8.163   4.071
13996WAT     H142230   0.954   8.226   3.996
13996WAT     H242231   0.852   8.110   4.050
13997WAT      O42232   3.039   1.877   8.903
13997WAT     H142233   3.094   1.916   8.978
13997WAT     H242234   2.973   1.945   8.872
13998WAT      O42235   0.569   4.199   1.316
13998WAT     H142236   0.567   4.161   1.409
13998WAT     H242237   0.495   4.265   1.306
13999WAT      O42238   8.816   7.651   4.855
13999WAT     H142239   8.847   7.631   4.762
13999WAT     H242240   8.824   7.570   4.912
14000WAT      O42241   6.201   4.785   2.350
14000WAT     H142242   6.139   4.749   2.420
14000WAT     H242243   6.254   4.710   2.311
14001WAT      O42244   1.731   7.583   2.517
14001WAT     H142245   1.693   7.567   2.608
14001WAT     H242246   1.801   7.514   2.497
14002WAT      O42247   1.956   3.337   0.555
14002WAT     H142248   1.894   3.278   0.503
14002WAT     H242249   1.959   3.306   0.650
14003WAT      O42250   7.095   6.523   2.258
14003WAT     H142251   6.997   6.504   2.253
14003WAT     H242252   7.140   6.487   2.177
14004WAT      O42253   0.870   4.695   7.973
14004WAT     H142254   0.924   4.656   7.899
14004WAT     H242255   0.923   4.694   8.057
14005WAT      O42256   9.704   5.338   4.827
14005WAT     H142257   9.768   5.415   4.826
14005WAT     H242258   9.743   5.264   4.882
14006WAT      O42259   2.101   4.018   1.333
14006WAT     H142260   2.001   4.016   1.336
14006WAT     H242261   2.132   4.016   1.238
14007WAT      O42262   3.766   0.609   6.710
14007WAT     H142263   3.794   0.673   6.781
14007WAT     H242264   3.826   0.529   6.712
14008WAT      O42265   9.323   7.375   1.055
14008WAT     H142266   9.315   7.284   1.095
14008WAT     H242267   9.393   7.374   0.984
14009WAT      O42268   9.848   9.441   6.613
14009WAT     H142269   9.770   9.497   6.641
14009WAT     H242270   9.922   9.500   6.581
14010WAT      O42271   7.264   1.036   7.827
14010WAT     H142272   7.176   1.056   7.783
14010WAT     H242273   7.328   1.002   7.758
14011WAT      O42274   2.305   1.385   5.134
14011WAT     H142275   2.230   1.329   5.099
14011WAT     H242276   2.305   1.473   5.086
14012WAT      O42277   6.077   9.514   8.117
14012WAT     H142278   6.121   9.503   8.028
14012WAT     H242279   6.147   9.518   8.189
14013WAT      O42280   0.426   9.421   6.380
14013WAT     H142281   0.523   9.430   6.404
14013WAT     H242282   0.414   9.344   6.318
14014WAT      O42283   0.965   3.375   5.363
14014WAT     H142284   0.914   3.400   5.281
14014WAT     H242285   1.037   3.310   5.338
14015WAT      O42286   1.554   8.899   6.771
14015WAT     H142287   1.487   8.831   6.801
14015WAT     H242288   1.572   8.887   6.674
14016WAT      O42289   2.851   3.765   2.971
14016WAT     H142290   2.907   3.689   2.939
14016WAT     H242291   2.908   3.829   3.023
14017WAT      O42292   3.850   7.678   0.825
14017WAT     H142293   3.831   7.605   0.760
14017WAT     H242294   3.765   7.708   0.868
14018WAT      O42295   8.167   3.720   9.784
14018WAT     H142296   8.235   3.661   9.739
14018WAT     H242297   8.143   3.795   9.722
14019WAT      O42298   2.257   8.784   2.398
14019WAT     H142299   2.199   8.860   2.369
14019WAT     H242300   2.217   8.741   2.479
14020WAT      O42301   3.972   9.093   2.424
14020WAT     H142302   4.061   9.080   2.380
14020WAT     H242303   3.900   9.060   2.363
14021WAT      O42304   9.341   6.309   7.657
14021WAT     H142305   9.277   6.253   7.711
14021WAT     H242306   9.389   6.251   7.592
14022WAT      O42307   5.921   8.134   2.741
14022WAT     H142308   5.857   8.068   2.700
14022WAT     H242309   6.010   8.091   2.751
14023WAT      O42310   6.379   4.272   9.186
14023WAT     H142311   6.355   4.365   9.215
14023WAT     H242312   6.299   4.228   9.146
14024WAT      O42313   8.218   7.930   1.286
14024WAT     H142314   8.197   7.918   1.383
14024WAT     H242315   8.145   7.982   1.242
14025WAT      O42316   4.656   8.561   2.440
14025WAT     H142317   4.578   8.507   2.408
14025WAT     H242318   4.641   8.587   2.536
14026WAT      O42319   8.378   1.737   3.796
14026WAT     H142320   8.322   1.819   3.808
14026WAT     H242321   8.431   1.746   3.711
14027WAT      O42322   8.673   3.611   7.345
14027WAT     H142323   8.749   3.664   7.384
14027WAT     H242324   8.615   3.578   7.419
14028WAT      O42325   1.284   2.493   8.816
14028WAT     H142326   1.218   2.419   8.800
14028WAT     H242327   1.341   2.471   8.894
14029WAT      O42328   3.019   0.768   8.465
14029WAT     H142329   2.989   0.749   8.372
14029WAT     H242330   3.114   0.739   8.476
14030WAT      O42331   5.634   9.081   6.787
14030WAT     H142332   5.554   9.121   6.740
14030WAT     H242333   5.634   8.982   6.773
14031WAT      O42334   5.931   4.446   5.408
14031WAT     H142335   5.929   4.462   5.309
14031WAT     H242336   6.005   4.499   5.449
14032WAT      O42337   2.898   9.114   9.662
14032WAT     H142338   2.977   9.121   9.724
14032WAT     H242339   2.925   9.066   9.579
14033WAT      O42340   5.287   8.136   9.237
14033WAT     H142341   5.255   8.061   9.179
14033WAT     H242342   5.208   8.184   9.276
14034WAT      O42343   3.069   7.571   6.628
14034WAT     H142344   3.052   7.496   6.691
14034WAT     H242345   2.982   7.608   6.595
14035WAT      O42346   3.017   4.515   4.663
14035WAT     H142347   3.110   4.483   4.681
14035WAT     H242348   3.019   4.610   4.633
14036WAT      O42349   7.104   3.506   2.085
14036WAT     H142350   7.172   3.580   2.082
14036WAT     H242351   7.027   3.533   2.142
14037WAT      O42352   9.145   1.491   7.102
14037WAT     H142353   9.160   1.452   7.011
14037WAT     H242354   9.195   1.437   7.170
14038WAT      O42355   3.598   1.178   1.417
14038WAT     H142356   3.531   1.230   1.469
14038WAT     H242357   3.673   1.238   1.388
14039WAT      O42358   1.404   0.482   4.690
14039WAT     H142359   1.466   0.546   4.645
14039WAT     H242360   1.453   0.397   4.711
14040WAT      O42361   4.261   7.729   5.931
14040WAT     H142362   4.313   7.679   5.862
14040WAT     H242363   4.174   7.682   5.946
14041WAT      O42364   9.187   5.074   1.787
14041WAT     H142365   9.140   4.987   1.798
14041WAT     H242366   9.119   5.148   1.789
14042WAT      O42367   9.403   0.910   8.940
14042WAT     H142368   9.312   0.904   8.981
14042WAT     H242369   9.397   0.888   8.842
14043WAT      O42370   0.611   0.739   5.148
14043WAT     H142371   0.524   0.701   5.116
14043WAT     H242372   0.674   0.747   5.071
14044WAT      O42373   0.144   6.454   8.240
14044WAT     H142374   0.207   6.519   8.282
14044WAT     H242375   0.173   6.361   8.262
14045WAT      O42376   3.190   9.609   7.747
14045WAT     H142377   3.270   9.555   7.772
14045WAT     H242378   3.119   9.548   7.711
14046WAT      O42379   2.628   3.668   7.202
14046WAT     H142380   2.533   3.672   7.170
14046WAT     H242381   2.663   3.575   7.190
14047WAT      O42382   4.810   7.730   8.020
14047WAT     H142383   4.710   7.730   8.022
14047WAT     H242384   4.845   7.711   8.112
14048WAT      O42385   5.817   7.373   0.238
14048WAT     H142386   5.830   7.432   0.318
14048WAT     H242387   5.791   7.429   0.160
14049WAT      O42388   3.495   2.548   3.230
14049WAT     H142389   3.435   2.577   3.305
14049WAT     H242390   3.580   2.601   3.233
14050WAT      O42391   4.666   7.204   0.156
14050WAT     H142392   4.721   7.179   0.076
14050WAT     H242393   4.672   7.131   0.225
14051WAT      O42394   0.204   1.057   1.807
14051WAT     H142395   0.172   1.022   1.895
14051WAT     H242396   0.298   1.091   1.817
14052WAT      O42397   9.248   4.117   1.000
14052WAT     H142398   9.167   4.175   1.010
14052WAT     H242399   9.296   4.111   1.087
14053WAT      O42400   4.577   4.088   2.221
14053WAT     H142401   4.552   4.051   2.310
14053WAT     H242402   4.672   4.116   2.222
14054WAT      O42403   6.267   2.352   5.119
14054WAT     H142404   6.353   2.326   5.076
14054WAT     H242405   6.261   2.452   5.122
14055WAT      O42406   8.137   6.644   8.461
14055WAT     H142407   8.237   6.633   8.461
14055WAT     H242408   8.110   6.704   8.386
14056WAT      O42409   0.873   0.936   7.330
14056WAT     H142410   0.894   0.885   7.413
14056WAT     H242411   0.953   0.936   7.270
14057WAT      O42412   9.365   9.352   4.103
14057WAT     H142413   9.313   9.434   4.128
14057WAT     H242414   9.314   9.299   4.035
14058WAT      O42415   6.479   5.129   5.078
14058WAT     H142416   6.470   5.088   4.987
14058WAT     H242417   6.551   5.081   5.129
14059WAT      O42418   4.809   0.635   1.830
14059WAT     H142419   4.750   0.555   1.832
14059WAT     H242420   4.905   0.606   1.839
14060WAT      O42421   2.220   6.579   3.363
14060WAT     H142422   2.271   6.556   3.446
14060WAT     H242423   2.274   6.641   3.306
14061WAT      O42424   3.914   7.712   1.285
14061WAT     H142425   3.855   7.635   1.261
14061WAT     H242426   3.991   7.680   1.339
14062WAT      O42427   3.557   0.772   3.887
14062WAT     H142428   3.574   0.868   3.868
14062WAT     H242429   3.504   0.763   3.971
14063WAT      O42430   8.848   1.778   2.607
14063WAT     H142431   8.773   1.818   2.554
14063WAT     H242432   8.886   1.846   2.669
14064WAT      O42433   4.676   1.705   3.712
14064WAT     H142434   4.608   1.634   3.694
14064WAT     H242435   4.668   1.778   3.644
14065WAT      O42436   8.199   2.074   9.837
14065WAT     H142437   8.259   2.118   9.903
14065WAT     H242438   8.165   2.141   9.772
14066WAT      O42439   3.166   8.896   1.986
14066WAT     H142440   3.092   8.963   1.981
14066WAT     H242441   3.164   8.838   1.904
14067WAT      O42442   0.964   2.773   9.508
14067WAT     H142443   0.892   2.716   9.468
14067WAT     H242444   0.996   2.731   9.593
14068WAT      O42445   2.864   7.172   1.160
14068WAT     H142446   2.917   7.255   1.144
14068WAT     H242447   2.769   7.196   1.179
14069WAT      O42448   2.108   2.501   5.345
14069WAT     H142449   2.065   2.412   5.358
14069WAT     H242450   2.205   2.489   5.327
14070WAT      O42451   7.200   9.805   1.375
14070WAT     H142452   7.102   9.812   1.355
14070WAT     H242453   7.243   9.744   1.309
14071WAT      O42454   1.854   7.996   3.552
14071WAT     H142455   1.884   8.055   3.477
14071WAT     H242456   1.826   7.907   3.515
14072WAT      O42457   0.683   0.469   4.017
14072WAT     H142458   0.732   0.524   4.085
14072WAT     H242459   0.595   0.511   3.997
14073WAT      O42460   9.741   9.411   7.184
14073WAT     H142461   9.716   9.322   7.221
14073WAT     H242462   9.678   9.437   7.111
14074WAT      O42463   5.526   2.042   8.942
14074WAT     H142464   5.524   2.140   8.963
14074WAT     H242465   5.564   2.028   8.851
14075WAT      O42466   3.234   3.395   0.357
14075WAT     H142467   3.271   3.356   0.441
14075WAT     H242468   3.280   3.481   0.338
14076WAT      O42469   3.174   6.445   8.743
14076WAT     H142470   3.220   6.424   8.830
14076WAT     H242471   3.192   6.540   8.718
14077WAT      O42472   3.305   3.170   7.772
14077WAT     H142473   3.291   3.269   7.771
14077WAT     H242474   3.243   3.127   7.707
14078WAT      O42475   9.755   5.939   8.797
14078WAT     H142476   9.782   5.936   8.701
14078WAT     H242477   9.696   5.861   8.818
14079WAT      O42478   2.811   8.065   4.410
14079WAT     H142479   2.741   8.074   4.481
14079WAT     H242480   2.898   8.041   4.452
14080WAT      O42481   4.993   9.547   3.681
14080WAT     H142482   5.021   9.629   3.631
14080WAT     H242483   5.044   9.468   3.646
14081WAT      O42484   7.772   8.218   5.040
14081WAT     H142485   7.714   8.287   5.082
14081WAT     H242486   7.853   8.203   5.097
14082WAT      O42487   6.696   9.316   8.481
14082WAT     H142488   6.653   9.363   8.404
14082WAT     H242489   6.732   9.228   8.450
14083WAT      O42490   2.946   0.933   6.856
14083WAT     H142491   2.950   0.964   6.761
14083WAT     H242492   2.896   1.000   6.912
14084WAT      O42493   5.068   6.642   8.165
14084WAT     H142494   5.067   6.573   8.238
14084WAT     H242495   5.128   6.612   8.091
14085WAT      O42496   2.637   3.659   2.539
14085WAT     H142497   2.560   3.720   2.518
14085WAT     H242498   2.609   3.593   2.608
14086WAT      O42499   9.084   8.048   4.465
14086WAT     H142500   9.056   8.063   4.560
14086WAT     H242501   9.033   8.110   4.405
14087WAT      O42502   1.399   0.075   6.702
14087WAT     H142503   1.350   0.052   6.618
14087WAT     H242504   1.493   0.041   6.697
14088WAT      O42505   6.550   5.810   9.782
14088WAT     H142506   6.454   5.819   9.755
14088WAT     H242507   6.568   5.866   9.863
14089WAT      O42508   6.212   8.507   6.798
14089WAT     H142509   6.287   8.455   6.758
14089WAT     H242510   6.125   8.468   6.769
14090WAT      O42511   3.149   0.953   6.597
14090WAT     H142512   3.114   0.860   6.610
14090WAT     H242513   3.073   1.018   6.603
14091WAT      O42514   3.345   0.532   0.265
14091WAT     H142515   3.400   0.582   0.331
14091WAT     H242516   3.326   0.440   0.300
14092WAT      O42517   5.550   1.209   3.280
14092WAT     H142518   5.489   1.279   3.317
14092WAT     H242519   5.605   1.169   3.354
14093WAT      O42520   7.780   1.063   7.341
14093WAT     H142521   7.822   1.149   7.312
14093WAT     H242522   7.750   1.012   7.260
14094WAT      O42523   9.095   9.668   7.048
14094WAT     H142524   8.997   9.648   7.051
14094WAT     H242525   9.147   9.583   7.055
14095WAT      O42526   8.397   3.539   9.475
14095WAT     H142527   8.375   3.459   9.419
14095WAT     H242528   8.394   3.514   9.572
14096WAT      O42529   3.901   4.591   9.284
14096WAT     H142530   3.832   4.519   9.270
14096WAT     H242531   3.930   4.591   9.379
14097WAT      O42532   5.310   7.454   3.960
14097WAT     H142533   5.234   7.520   3.954
14097WAT     H242534   5.346   7.436   3.869
14098WAT      O42535   0.585   8.180   4.243
14098WAT     H142536   0.581   8.278   4.228
14098WAT     H242537   0.671   8.157   4.289
14099WAT      O42538   4.352   5.873   2.978
14099WAT     H142539   4.341   5.958   2.926
14099WAT     H242540   4.446   5.867   3.012
14100WAT      O42541   0.622   8.980   3.891
14100WAT     H142542   0.721   8.989   3.882
14100WAT     H242543   0.601   8.907   3.956
14101WAT      O42544   9.026   7.867   4.675
14101WAT     H142545   9.070   7.814   4.748
14101WAT     H242546   8.983   7.804   4.610
14102WAT      O42547   7.618   5.590   4.276
14102WAT     H142548   7.589   5.578   4.181
14102WAT     H242549   7.591   5.681   4.309
14103WAT      O42550   6.055   1.134   3.290
14103WAT     H142551   6.129   1.066   3.291
14103WAT     H242552   5.978   1.098   3.236
14104WAT      O42553   8.507   0.094   4.000
14104WAT     H142554   8.432   0.120   4.060
14104WAT     H242555   8.546   0.175   3.957
14105WAT      O42556   2.933   8.799   6.873
14105WAT     H142557   2.976   8.709   6.878
14105WAT     H242558   2.995   8.868   6.910
14106WAT      O42559   1.476   1.029   4.691
14106WAT     H142560   1.550   1.068   4.636
14106WAT     H242561   1.402   0.999   4.631
14107WAT      O42562   8.651   0.848   4.183
14107WAT     H142563   8.697   0.924   4.228
14107WAT     H242564   8.555   0.870   4.170
14108WAT      O42565   5.385   3.084   2.551
14108WAT     H142566   5.294   3.101   2.589
14108WAT     H242567   5.382   3.095   2.452
14109WAT      O42568   6.843   6.560   9.416
14109WAT     H142569   6.748   6.586   9.431
14109WAT     H242570   6.882   6.619   9.344
14110WAT      O42571   2.162   7.866   2.377
14110WAT     H142572   2.156   7.948   2.434
14110WAT     H242573   2.084   7.807   2.395
14111WAT      O42574   5.326   8.515   5.710
14111WAT     H142575   5.344   8.509   5.612
14111WAT     H242576   5.263   8.441   5.737
14112WAT      O42577   4.480   8.695   7.225
14112WAT     H142578   4.513   8.657   7.311
14112WAT     H242579   4.388   8.662   7.206
14113WAT      O42580   8.326   7.272   4.382
14113WAT     H142581   8.253   7.267   4.314
14113WAT     H242582   8.413   7.290   4.336
14114WAT      O42583   8.282   5.268   3.499
14114WAT     H142584   8.346   5.274   3.575
14114WAT     H242585   8.230   5.353   3.492
14115WAT      O42586   9.614   6.324   6.205
14115WAT     H142587   9.551   6.357   6.135
14115WAT     H242588   9.628   6.395   6.274
14116WAT      O42589   2.825   1.336   4.011
14116WAT     H142590   2.766   1.269   3.965
14116WAT     H242591   2.791   1.429   3.991
14117WAT      O42592   9.278   1.768   0.402
14117WAT     H142593   9.231   1.683   0.377
14117WAT     H242594   9.223   1.818   0.469
14118WAT      O42595   7.300   5.351   2.600
14118WAT     H142596   7.293   5.272   2.539
14118WAT     H242597   7.388   5.349   2.647
14119WAT      O42598   5.143   8.359   0.966
14119WAT     H142599   5.169   8.371   0.870
14119WAT     H242600   5.220   8.320   1.016
14120WAT      O42601   0.727   9.122   8.646
14120WAT     H142602   0.743   9.113   8.745
14120WAT     H242603   0.645   9.071   8.621
14121WAT      O42604   4.576   9.339   2.375
14121WAT     H142605   4.516   9.420   2.377
14121WAT     H242606   4.575   9.296   2.465
14122WAT      O42607   0.808   8.153   6.098
14122WAT     H142608   0.886   8.141   6.035
14122WAT     H242609   0.827   8.105   6.183
14123WAT      O42610   3.122   2.648   1.866
14123WAT     H142611   3.138   2.609   1.957
14123WAT     H242612   3.039   2.608   1.827
14124WAT      O42613   0.141   5.297   8.034
14124WAT     H142614   0.136   5.199   8.054
14124WAT     H242615   0.153   5.348   8.119
14125WAT      O42616   5.060   6.825   3.576
14125WAT     H142617   5.079   6.737   3.533
14125WAT     H242618   5.101   6.827   3.668
14126WAT      O42619   2.846   6.305   9.821
14126WAT     H142620   2.896   6.219   9.826
14126WAT     H242621   2.900   6.378   9.861
14127WAT      O42622   4.494   8.467   4.199
14127WAT     H142623   4.518   8.387   4.144
14127WAT     H242624   4.526   8.454   4.293
14128WAT      O42625   5.895   9.586   2.467
14128WAT     H142626   5.844   9.586   2.553
14128WAT     H242627   5.964   9.514   2.469
14129WAT      O42628   5.104   1.584   7.527
14129WAT     H142629   5.105   1.682   7.508
14129WAT     H242630   5.173   1.539   7.469
14130WAT      O42631   9.051   9.401   9.334
14130WAT     H142632   8.974   9.399   9.399
14130WAT     H242633   9.017   9.430   9.244
14131WAT      O42634   5.008   2.185   1.725
14131WAT     H142635   5.071   2.112   1.751
14131WAT     H242636   5.060   2.262   1.688
14132WAT      O42637   2.728   6.474   0.846
14132WAT     H142638   2.707   6.450   0.941
14132WAT     H242639   2.659   6.538   0.812
14133WAT      O42640   5.090   2.777   2.468
14133WAT     H142641   5.077   2.705   2.400
14133WAT     H242642   5.030   2.854   2.445
14134WAT      O42643   2.973   2.959   3.420
14134WAT     H142644   2.945   2.885   3.482
14134WAT     H242645   2.971   2.925   3.326
14135WAT      O42646   7.823   8.454   5.483
14135WAT     H142647   7.836   8.527   5.416
14135WAT     H242648   7.757   8.484   5.552
14136WAT      O42649   8.888   6.780   4.563
14136WAT     H142650   8.874   6.788   4.662
14136WAT     H242651   8.973   6.730   4.545
14137WAT      O42652   3.261   8.049   1.372
14137WAT     H142653   3.295   8.008   1.287
14137WAT     H242654   3.215   8.135   1.350
14138WAT      O42655   5.789   3.949   7.398
14138WAT     H142656   5.789   4.013   7.322
14138WAT     H242657   5.735   3.868   7.373
14139WAT      O42658   9.800   6.533   8.359
14139WAT     H142659   9.758   6.484   8.435
14139WAT     H242660   9.864   6.473   8.312
14140WAT      O42661   7.166   1.585   4.428
14140WAT     H142662   7.253   1.634   4.424
14140WAT     H242663   7.119   1.592   4.340
14141WAT      O42664   4.873   0.093   1.433
14141WAT     H142665   4.879   0.172   1.372
14141WAT     H242666   4.783   0.090   1.476
14142WAT      O42667   2.270   0.993   0.647
14142WAT     H142668   2.315   1.044   0.573
14142WAT     H242669   2.258   0.898   0.620
14143WAT      O42670   6.182   9.543   7.256
14143WAT     H142671   6.266   9.529   7.204
14143WAT     H242672   6.103   9.520   7.198
14144WAT      O42673   6.707   8.152   5.406
14144WAT     H142674   6.746   8.103   5.484
14144WAT     H242675   6.731   8.103   5.321
14145WAT      O42676   2.715   8.871   2.152
14145WAT     H142677   2.620   8.901   2.145
14145WAT     H242678   2.724   8.780   2.112
14146WAT      O42679   8.338   1.406   6.511
14146WAT     H142680   8.276   1.328   6.507
14146WAT     H242681   8.321   1.466   6.433
14147WAT      O42682   9.177   7.215   9.255
14147WAT     H142683   9.160   7.123   9.219
14147WAT     H242684   9.235   7.209   9.336
14148WAT      O42685   3.070   6.221   6.859
14148WAT     H142686   3.041   6.179   6.945
14148WAT     H242687   3.095   6.317   6.877
14149WAT      O42688   2.742   4.933   9.677
14149WAT     H142689   2.770   5.029   9.681
14149WAT     H242690   2.648   4.925   9.709
14150WAT      O42691   1.585   8.941   8.882
14150WAT     H142692   1.538   8.870   8.829
14150WAT     H242693   1.588   9.026   8.830
14151WAT      O42694   6.640   3.458   0.566
14151WAT     H142695   6.693   3.409   0.636
14151WAT     H242696   6.692   3.536   0.532
14152WAT      O42697   4.478   8.476   6.265
14152WAT     H142698   4.502   8.423   6.346
14152WAT     H242699   4.379   8.488   6.261
14153WAT      O42700   0.726   5.816   4.892
14153WAT     H142701   0.709   5.718   4.902
14153WAT     H242702   0.672   5.866   4.960
14154WAT      O42703   6.865   9.047   6.692
14154WAT     H142704   6.842   8.960   6.736
14154WAT     H242705   6.784   9.084   6.645
14155WAT      O42706   9.832   8.649   3.088
14155WAT     H142707   9.907   8.584   3.096
14155WAT     H242708   9.808   8.684   3.178
14156WAT      O42709   7.875   4.340   0.444
14156WAT     H142710   7.892   4.320   0.347
14156WAT     H242711   7.885   4.256   0.497
14157WAT      O42712   2.451   3.527   7.626
14157WAT     H142713   2.451   3.616   7.580
14157WAT     H242714   2.535   3.478   7.604
14158WAT      O42715   1.575   5.404   3.961
14158WAT     H142716   1.531   5.462   3.892
14158WAT     H242717   1.672   5.428   3.968
14159WAT      O42718   2.920   9.612   4.923
14159WAT     H142719   3.009   9.636   4.963
14159WAT     H242720   2.870   9.554   4.988
14160WAT      O42721   4.183   1.991   2.852
14160WAT     H142722   4.102   2.050   2.859
14160WAT     H242723   4.154   1.895   2.858
14161WAT      O42724   3.801   8.025   6.829
14161WAT     H142725   3.865   8.037   6.905
14161WAT     H242726   3.828   8.084   6.753
14162WAT      O42727   6.251   7.365   7.707
14162WAT     H142728   6.202   7.448   7.732
14162WAT     H242729   6.349   7.380   7.715
14163WAT      O42730   1.879   9.208   7.008
14163WAT     H142731   1.865   9.132   7.072
14163WAT     H242732   1.878   9.294   7.058
14164WAT      O42733   8.477   5.683   8.030
14164WAT     H142734   8.402   5.654   7.970
14164WAT     H242735   8.536   5.747   7.980
14165WAT      O42736   1.729   4.244   2.594
14165WAT     H142737   1.772   4.287   2.673
14165WAT     H242738   1.645   4.199   2.622
14166WAT      O42739   1.394   6.054   0.197
14166WAT     H142740   1.423   5.974   0.249
14166WAT     H242741   1.330   6.108   0.252
14167WAT      O42742   8.235   0.220   1.685
14167WAT     H142743   8.207   0.146   1.624
14167WAT     H242744   8.199   0.204   1.777
14168WAT      O42745   5.614   9.598   3.436
14168WAT     H142746   5.659   9.512   3.462
14168WAT     H242747   5.530   9.608   3.489
14169WAT      O42748   5.100   1.311   9.516
14169WAT     H142749   5.082   1.310   9.418
14169WAT     H242750   5.032   1.257   9.564
14170WAT      O42751   8.977   3.175   4.483
14170WAT     H142752   9.063   3.173   4.533
14170WAT     H242753   8.918   3.246   4.521
14171WAT      O42754   6.658   0.506   3.296
14171WAT     H142755   6.662   0.483   3.393
14171WAT     H242756   6.576   0.465   3.255
14172WAT      O42757   4.759   2.875   4.987
14172WAT     H142758   4.754   2.946   5.058
14172WAT     H242759   4.850   2.876   4.946
14173WAT      O42760   7.544   3.351   2.183
14173WAT     H142761   7.581   3.271   2.230
14173WAT     H242762   7.533   3.426   2.248
14174WAT      O42763   7.384   1.491   7.614
14174WAT     H142764   7.396   1.398   7.580
14174WAT     H242765   7.394   1.491   7.714
14175WAT      O42766   8.925   5.624   2.951
14175WAT     H142767   8.870   5.605   2.870
14175WAT     H242768   8.884   5.699   3.003
14176WAT      O42769   4.777   5.056   0.083
14176WAT     H142770   4.874   5.075   0.073
14176WAT     H242771   4.753   4.977   0.026
14177WAT      O42772   8.716   6.331   7.172
14177WAT     H142773   8.627   6.287   7.157
14177WAT     H242774   8.702   6.418   7.218
14178WAT      O42775   3.876   1.456   7.968
14178WAT     H142776   3.880   1.432   8.065
14178WAT     H242777   3.919   1.384   7.914
14179WAT      O42778   2.703   4.418   2.505
14179WAT     H142779   2.663   4.371   2.583
14179WAT     H242780   2.778   4.477   2.537
14180WAT      O42781   2.593   0.802   4.230
14180WAT     H142782   2.631   0.869   4.166
14180WAT     H242783   2.664   0.737   4.256
14181WAT      O42784   4.710   9.805   1.982
14181WAT     H142785   4.667   9.721   2.015
14181WAT     H242786   4.639   9.869   1.952
14182WAT      O42787   1.393   0.503   0.815
14182WAT     H142788   1.410   0.598   0.788
14182WAT     H242789   1.417   0.490   0.911
14183WAT      O42790   3.271   4.657   0.470
14183WAT     H142791   3.368   4.668   0.493
14183WAT     H242792   3.235   4.744   0.437
14184WAT      O42793   4.224   2.824   4.374
14184WAT     H142794   4.264   2.879   4.301
14184WAT     H242795   4.295   2.768   4.417
14185WAT      O42796   3.143   8.384   1.788
14185WAT     H142797   3.219   8.391   1.723
14185WAT     H242798   3.057   8.382   1.738
14186WAT      O42799   5.876   0.998   1.072
14186WAT     H142800   5.893   1.052   0.990
14186WAT     H242801   5.790   1.028   1.114
14187WAT      O42802   6.486   1.262   4.823
14187WAT     H142803   6.468   1.270   4.725
14187WAT     H242804   6.462   1.348   4.868
14188WAT      O42805   4.476   1.207   8.117
14188WAT     H142806   4.414   1.129   8.113
14188WAT     H242807   4.433   1.286   8.072
14189WAT      O42808   1.046   1.263   7.762
14189WAT     H142809   1.004   1.279   7.852
14189WAT     H242810   1.046   1.165   7.742
14190WAT      O42811   8.574   0.240   9.882
14190WAT     H142812   8.518   0.233   9.799
14190WAT     H242813   8.626   0.156   9.895
14191WAT      O42814   5.610   9.312   5.321
14191WAT     H142815   5.542   9.382   5.297
14191WAT     H242816   5.655   9.338   5.406
14192WAT      O42817   1.212   1.655   7.281
14192WAT     H142818   1.255   1.568   7.256
14192WAT     H242819   1.120   1.637   7.315
14193WAT      O42820   8.313   3.251   9.810
14193WAT     H142821   8.338   3.245   9.907
14193WAT     H242822   8.353   3.174   9.761
14194WAT      O42823   2.077   4.950   5.591
14194WAT     H142824   2.021   4.995   5.661
14194WAT     H242825   2.172   4.947   5.621
14195WAT      O42826   7.816   2.617   0.122
14195WAT     H142827   7.876   2.550   0.166
14195WAT     H242828   7.739   2.638   0.183
14196WAT      O42829   9.257   6.252   5.539
14196WAT     H142830   9.254   6.202   5.626
14196WAT     H242831   9.186   6.216   5.478
14197WAT      O42832   3.562   2.890   3.486
14197WAT     H142833   3.507   2.935   3.415
14197WAT     H242834   3.656   2.922   3.481
14198WAT      O42835   3.237   1.291   4.246
14198WAT     H142836   3.169   1.354   4.283
14198WAT     H242837   3.318   1.342   4.218
14199WAT      O42838   8.527   8.053   6.051
14199WAT     H142839   8.588   8.132   6.054
14199WAT     H242840   8.464   8.063   5.975
14200WAT      O42841   6.723   8.286   2.165
14200WAT     H142842   6.703   8.365   2.108
14200WAT     H242843   6.654   8.215   2.149
14201WAT      O42844   6.224   2.071   0.737
14201WAT     H142845   6.182   2.140   0.795
14201WAT     H242846   6.268   2.001   0.794
14202WAT      O42847   2.008   6.539   0.729
14202WAT     H142848   2.048   6.542   0.637
14202WAT     H242849   2.014   6.630   0.771
14203WAT      O42850   2.077   4.767   4.996
14203WAT     H142851   2.166   4.798   4.963
14203WAT     H242852   2.089   4.699   5.068
14204WAT      O42853   0.131   3.835   7.138
14204WAT     H142854   0.048   3.872   7.180
14204WAT     H242855   0.168   3.901   7.073
14205WAT      O42856   7.747   7.174   4.343
14205WAT     H142857   7.792   7.213   4.424
14205WAT     H242858   7.672   7.114   4.373
14206WAT      O42859   7.514   3.958   2.546
14206WAT     H142860   7.520   3.869   2.590
14206WAT     H242861   7.591   3.969   2.483
14207WAT      O42862   7.923   8.104   8.565
14207WAT     H142863   8.020   8.103   8.538
14207WAT     H242864   7.867   8.067   8.491
14208WAT      O42865   2.232   3.303   4.989
14208WAT     H142866   2.300   3.364   5.031
14208WAT     H242867   2.172   3.357   4.929
14209WAT      O42868   3.185   1.018   6.295
14209WAT     H142869   3.247   1.060   6.230
14209WAT     H242870   3.219   1.031   6.388
14210WAT      O42871   0.512   2.888   7.587
14210WAT     H142872   0.509   2.955   7.661
14210WAT     H242873   0.501   2.796   7.624
14211WAT      O42874   8.168   5.721   0.011
14211WAT     H142875   8.154   5.801  -0.047
14211WAT     H242876   8.182   5.641  -0.048
14212WAT      O42877   7.452   2.994   3.409
14212WAT     H142878   7.516   2.932   3.363
14212WAT     H242879   7.365   2.995   3.360
14213WAT      O42880   7.438   6.584   1.795
14213WAT     H142881   7.525   6.570   1.842
14213WAT     H242882   7.404   6.497   1.760
14214WAT      O42883   4.828   7.145   9.355
14214WAT     H142884   4.775   7.227   9.379
14214WAT     H242885   4.810   7.121   9.260
14215WAT      O42886   9.497   2.204   1.114
14215WAT     H142887   9.403   2.211   1.148
14215WAT     H242888   9.514   2.276   1.046
14216WAT      O42889   6.160   9.721   3.650
14216WAT     H142890   6.252   9.687   3.665
14216WAT     H242891   6.162   9.795   3.582
14217WAT      O42892   1.476   1.915   5.655
14217WAT     H142893   1.557   1.857   5.651
14217WAT     H242894   1.403   1.867   5.703
14218WAT      O42895   6.060   7.755   1.906
14218WAT     H142896   5.964   7.728   1.901
14218WAT     H242897   6.108   7.719   1.826
14219WAT      O42898   3.758   1.996   2.462
14219WAT     H142899   3.839   2.043   2.426
14219WAT     H242900   3.780   1.900   2.478
14220WAT      O42901   6.573   0.026   5.564
14220WAT     H142902   6.630   0.077   5.628
14220WAT     H242903   6.612   0.032   5.472
14221WAT      O42904   8.154   3.752   1.887
14221WAT     H142905   8.139   3.777   1.983
14221WAT     H242906   8.085   3.797   1.830
14222WAT      O42907   0.087   4.924   2.780
14222WAT     H142908   0.063   4.965   2.868
14222WAT     H242909   0.004   4.908   2.727
14223WAT      O42910   1.459   3.914   7.559
14223WAT     H142911   1.490   4.007   7.579
14223WAT     H242912   1.405   3.880   7.636
14224WAT      O42913   2.582   0.287   9.699
14224WAT     H142914   2.580   0.209   9.635
14224WAT     H242915   2.582   0.372   9.647
14225WAT      O42916   7.169   7.304   1.179
14225WAT     H142917   7.224   7.235   1.131
14225WAT     H242918   7.073   7.274   1.182
14226WAT      O42919   6.498   9.701   4.154
14226WAT     H142920   6.505   9.691   4.253
14226WAT     H242921   6.531   9.791   4.127
14227WAT      O42922   5.344   0.631   4.548
14227WAT     H142923   5.307   0.720   4.576
14227WAT     H242924   5.358   0.631   4.449
14228WAT      O42925   1.971   6.842   3.678
14228WAT     H142926   2.046   6.908   3.690
14228WAT     H242927   1.939   6.812   3.768
14229WAT      O42928   0.315   0.692   7.997
14229WAT     H142929   0.286   0.786   8.015
14229WAT     H242930   0.400   0.673   8.047
14230WAT      O42931   9.388   2.528   1.145
14230WAT     H142932   9.463   2.593   1.157
14230WAT     H242933   9.309   2.558   1.199
14231WAT      O42934   2.420   2.332   4.568
14231WAT     H142935   2.421   2.402   4.496
14231WAT     H242936   2.349   2.353   4.634
14232WAT      O42937   7.887   4.909   3.181
14232WAT     H142938   7.798   4.954   3.183
14232WAT     H242939   7.957   4.972   3.215
14233WAT      O42940   8.439   8.970   4.089
14233WAT     H142941   8.411   8.981   3.994
14233WAT     H242942   8.478   8.879   4.102
14234WAT      O42943   1.354   4.127   2.398
14234WAT     H142944   1.332   4.176   2.483
14234WAT     H242945   1.426   4.175   2.349
14235WAT      O42946   8.291   9.075   6.743
14235WAT     H142947   8.288   8.979   6.716
14235WAT     H242948   8.308   9.081   6.841
14236WAT      O42949   2.562   6.460   7.855
14236WAT     H142950   2.479   6.411   7.881
14236WAT     H242951   2.609   6.409   7.782
14237WAT      O42952   1.548   1.695   2.176
14237WAT     H142953   1.569   1.792   2.185
14237WAT     H242954   1.451   1.683   2.159
14238WAT      O42955   8.589   7.921   8.498
14238WAT     H142956   8.495   7.948   8.480
14238WAT     H242957   8.645   8.003   8.512
14239WAT      O42958   2.835   8.213   3.405
14239WAT     H142959   2.862   8.129   3.359
14239WAT     H242960   2.797   8.277   3.338
14240WAT      O42961   7.628   8.692   9.700
14240WAT     H142962   7.716   8.664   9.737
14240WAT     H242963   7.555   8.663   9.762
14241WAT      O42964   0.271   6.069   1.211
14241WAT     H142965   0.279   6.046   1.307
14241WAT     H242966   0.361   6.093   1.174
14242WAT      O42967   2.925   4.575   0.551
14242WAT     H142968   2.846   4.632   0.573
14242WAT     H242969   3.008   4.631   0.552
14243WAT      O42970   1.700   9.044   8.499
14243WAT     H142971   1.746   8.955   8.495
14243WAT     H242972   1.726   9.099   8.420
14244WAT      O42973   8.606   2.303   0.943
14244WAT     H142974   8.649   2.227   0.991
14244WAT     H242975   8.521   2.271   0.901
14245WAT      O42976   7.823   3.525   5.168
14245WAT     H142977   7.746   3.508   5.107
14245WAT     H242978   7.844   3.443   5.221
14246WAT      O42979   2.672   2.554   0.428
14246WAT     H142980   2.650   2.550   0.331
14246WAT     H242981   2.668   2.648   0.460
14247WAT      O42982   5.262   5.983   7.551
14247WAT     H142983   5.247   5.921   7.474
14247WAT     H242984   5.195   6.058   7.547
14248WAT      O42985   8.007   3.158   2.910
14248WAT     H142986   7.988   3.087   2.978
14248WAT     H242987   7.926   3.174   2.855
14249WAT      O42988   0.175   7.534   0.790
14249WAT     H142989   0.165   7.493   0.881
14249WAT     H242990   0.084   7.556   0.753
14250WAT      O42991   3.803   4.064   7.895
14250WAT     H142992   3.805   4.163   7.884
14250WAT     H242993   3.722   4.027   7.849
14251WAT      O42994   5.226   5.271   2.393
14251WAT     H142995   5.288   5.298   2.467
14251WAT     H242996   5.277   5.265   2.307
14252WAT      O42997   8.324   5.818   3.456
14252WAT     H142998   8.405   5.868   3.487
14252WAT     H242999   8.287   5.765   3.532
14253WAT      O43000   5.897   4.759   3.381
14253WAT     H143001   5.839   4.814   3.441
14253WAT     H243002   5.977   4.812   3.353
14254WAT      O43003   3.885   1.167   4.807
14254WAT     H143004   3.891   1.205   4.715
14254WAT     H243005   3.837   1.079   4.804
14255WAT      O43006   4.351   3.124   1.583
14255WAT     H143007   4.377   3.132   1.487
14255WAT     H243008   4.251   3.126   1.591
14256WAT      O43009   5.853   2.982   1.772
14256WAT     H143010   5.808   2.893   1.777
14256WAT     H243011   5.906   2.987   1.688
14257WAT      O43012   5.682   7.948   1.405
14257WAT     H143013   5.724   7.858   1.418
14257WAT     H243014   5.751   8.011   1.369
14258WAT      O43015   7.199   2.010   4.279
14258WAT     H143016   7.102   1.984   4.273
14258WAT     H243017   7.229   2.008   4.374
14259WAT      O43018   7.493   4.975   9.819
14259WAT     H143019   7.582   4.929   9.815
14259WAT     H243020   7.445   4.962   9.732
14260WAT      O43021   8.460   7.721   8.818
14260WAT     H143022   8.542   7.682   8.860
14260WAT     H243023   8.453   7.690   8.723
14261WAT      O43024   5.869   1.966   3.806
14261WAT     H143025   5.856   1.922   3.895
14261WAT     H243026   5.795   2.031   3.789
14262WAT      O43027   8.164   6.807   6.688
14262WAT     H143028   8.126   6.807   6.780
14262WAT     H243029   8.092   6.792   6.621
14263WAT      O43030   7.305   4.633   5.506
14263WAT     H143031   7.333   4.656   5.599
14263WAT     H243032   7.329   4.707   5.443
14264WAT      O43033   9.188   0.167   3.824
14264WAT     H143034   9.267   0.225   3.802
14264WAT     H243035   9.121   0.174   3.750
14265WAT      O43036   3.477   1.772   4.836
14265WAT     H143037   3.447   1.725   4.918
14265WAT     H243038   3.537   1.848   4.861
14266WAT      O43039   8.988   2.043   3.600
14266WAT     H143040   9.008   1.945   3.597
14266WAT     H243041   9.059   2.093   3.551
14267WAT      O43042   1.000   4.917   3.920
14267WAT     H143043   1.069   4.966   3.865
14267WAT     H243044   1.047   4.858   3.986
14268WAT      O43045   5.103   3.371   1.412
14268WAT     H143046   5.076   3.299   1.476
14268WAT     H243047   5.194   3.405   1.436
14269WAT      O43048   1.401   7.753   2.333
14269WAT     H143049   1.346   7.771   2.252
14269WAT     H243050   1.406   7.836   2.389
14270WAT      O43051   5.793   7.555   5.340
14270WAT     H143052   5.720   7.516   5.397
14270WAT     H243053   5.815   7.491   5.266
14271WAT      O43054   8.253   0.926   6.721
14271WAT     H143055   8.306   0.984   6.783
14271WAT     H243056   8.302   0.840   6.707
14272WAT      O43057   7.643   4.648   3.005
14272WAT     H143058   7.702   4.664   3.084
14272WAT     H243059   7.682   4.575   2.949
14273WAT      O43060   9.633   0.265   8.677
14273WAT     H143061   9.561   0.278   8.609
14273WAT     H243062   9.722   0.284   8.635
14274WAT      O43063   6.536   3.624   9.512
14274WAT     H143064   6.589   3.709   9.506
14274WAT     H243065   6.440   3.646   9.530
14275WAT      O43066   5.595   6.471   2.630
14275WAT     H143067   5.581   6.421   2.715
14275WAT     H243068   5.693   6.482   2.614
14276WAT      O43069   7.824   7.329   0.511
14276WAT     H143070   7.807   7.258   0.580
14276WAT     H243071   7.789   7.417   0.545
14277WAT      O43072   0.164   4.426   5.415
14277WAT     H143073   0.107   4.404   5.494
14277WAT     H243074   0.235   4.491   5.442
14278WAT      O43075   6.981   7.422   0.474
14278WAT     H143076   7.055   7.482   0.502
14278WAT     H243077   6.924   7.469   0.406
14279WAT      O43078   8.411   8.897   2.039
14279WAT     H143079   8.507   8.907   2.010
14279WAT     H243080   8.398   8.943   2.127
14280WAT      O43081   4.410   7.672   7.237
14280WAT     H143082   4.460   7.595   7.198
14280WAT     H243083   4.335   7.639   7.294
14281WAT      O43084   4.669   3.987   8.749
14281WAT     H143085   4.674   3.990   8.849
14281WAT     H243086   4.758   3.957   8.713
14282WAT      O43087   2.000   5.646   6.542
14282WAT     H143088   1.962   5.738   6.532
14282WAT     H243089   2.094   5.652   6.576
14283WAT      O43090   1.581   7.931   7.529
14283WAT     H143091   1.614   7.858   7.588
14283WAT     H243092   1.658   7.971   7.479
14284WAT      O43093   7.200   4.409   2.136
14284WAT     H143094   7.144   4.393   2.217
14284WAT     H243095   7.149   4.381   2.054
14285WAT      O43096   1.007   7.697   0.009
14285WAT     H143097   0.945   7.713   0.086
14285WAT     H243098   1.069   7.775  -0.001
14286WAT      O43099   6.185   3.536   6.974
14286WAT     H143100   6.191   3.439   6.996
14286WAT     H243101   6.108   3.577   7.024
14287WAT      O43102   2.391   2.171   8.568
14287WAT     H143103   2.441   2.248   8.530
14287WAT     H243104   2.356   2.195   8.659
14288WAT      O43105   8.116   3.190   9.524
14288WAT     H143106   8.094   3.103   9.480
14288WAT     H243107   8.121   3.262   9.455
14289WAT      O43108   6.121   9.329   4.344
14289WAT     H143109   6.119   9.412   4.399
14289WAT     H243110   6.028   9.299   4.324
14290WAT      O43111   2.659   8.371   9.736
14290WAT     H143112   2.691   8.285   9.776
14290WAT     H243113   2.620   8.354   9.646
14291WAT      O43114   5.815   8.968   1.363
14291WAT     H143115   5.834   8.894   1.429
14291WAT     H243116   5.749   9.031   1.403
14292WAT      O43117   4.061   4.475   7.401
14292WAT     H143118   4.028   4.410   7.469
14292WAT     H243119   4.034   4.568   7.428
14293WAT      O43120   3.456   0.441   9.779
14293WAT     H143121   3.489   0.435   9.873
14293WAT     H243122   3.530   0.416   9.716
14294WAT      O43123   0.056   9.702   5.351
14294WAT     H143124   0.017   9.791   5.374
14294WAT     H243125   0.053   9.688   5.252
14295WAT      O43126   5.451   2.133   6.087
14295WAT     H143127   5.352   2.127   6.074
14295WAT     H243128   5.497   2.072   6.022
14296WAT      O43129   6.194   6.679   9.460
14296WAT     H143130   6.215   6.670   9.557
14296WAT     H243131   6.197   6.588   9.417
14297WAT      O43132   3.142   1.660   5.741
14297WAT     H143133   3.054   1.640   5.698
14297WAT     H243134   3.215   1.614   5.690
14298WAT      O43135   0.884   7.373   6.303
14298WAT     H143136   0.813   7.329   6.247
14298WAT     H243137   0.855   7.374   6.398
14299WAT      O43138   7.925   9.023   4.031
14299WAT     H143139   7.889   9.032   3.938
14299WAT     H243140   8.015   9.066   4.036
14300WAT      O43141   3.123   3.168   6.416
14300WAT     H143142   3.040   3.186   6.364
14300WAT     H243143   3.174   3.093   6.372
14301WAT      O43144   0.878   3.558   7.107
14301WAT     H143145   0.809   3.561   7.179
14301WAT     H243146   0.860   3.481   7.046
14302WAT      O43147   4.637   0.770   9.149
14302WAT     H143148   4.659   0.674   9.163
14302WAT     H243149   4.540   0.785   9.169
14303WAT      O43150   9.651   6.481   9.598
14303WAT     H143151   9.644   6.395   9.649
14303WAT     H243152   9.712   6.468   9.519
14304WAT      O43153   3.003   7.843   2.967
14304WAT     H143154   2.922   7.803   2.923
14304WAT     H243155   2.991   7.942   2.973
14305WAT      O43156   6.798   8.928   3.031
14305WAT     H143157   6.784   8.919   2.932
14305WAT     H243158   6.810   9.024   3.054
14306WAT      O43159   7.248   4.583   6.044
14306WAT     H143160   7.180   4.522   6.002
14306WAT     H243161   7.340   4.556   6.015
14307WAT      O43162   0.399   1.946   4.592
14307WAT     H143163   0.408   1.854   4.554
14307WAT     H243164   0.455   2.010   4.539
14308WAT      O43165   0.823   9.187   5.219
14308WAT     H143166   0.868   9.167   5.133
14308WAT     H243167   0.758   9.114   5.242
14309WAT      O43168   0.827   5.391   9.590
14309WAT     H143169   0.789   5.422   9.504
14309WAT     H243170   0.757   5.343   9.643
14310WAT      O43171   0.479   5.651   3.278
14310WAT     H143172   0.528   5.575   3.236
14310WAT     H243173   0.400   5.617   3.329
14311WAT      O43174   9.864   0.561   8.060
14311WAT     H143175   9.877   0.646   8.111
14311WAT     H243176   9.892   0.575   7.964
14312WAT      O43177   6.477   6.177   7.820
14312WAT     H143178   6.511   6.119   7.747
14312WAT     H243179   6.424   6.252   7.781
14313WAT      O43180   4.735   0.535   8.463
14313WAT     H143181   4.828   0.505   8.441
14313WAT     H243182   4.702   0.486   8.544
14314WAT      O43183   9.375   7.099   8.792
14314WAT     H143184   9.376   7.130   8.887
14314WAT     H243185   9.291   7.131   8.748
14315WAT      O43186   2.422   3.358   6.354
14315WAT     H143187   2.410   3.284   6.288
14315WAT     H243188   2.506   3.409   6.333
14316WAT      O43189   4.306   2.006   7.959
14316WAT     H143190   4.373   1.934   7.977
14316WAT     H243191   4.227   1.993   8.019
14317WAT      O43192   1.856   7.349   3.374
14317WAT     H143193   1.852   7.354   3.474
14317WAT     H243194   1.772   7.386   3.336
14318WAT      O43195   4.153   8.518   8.134
14318WAT     H143196   4.194   8.456   8.067
14318WAT     H243197   4.225   8.561   8.188
14319WAT      O43198   0.669   5.197   6.614
14319WAT     H143199   0.667   5.282   6.666
14319WAT     H243200   0.672   5.119   6.677
14320WAT      O43201   0.361   0.457   6.209
14320WAT     H143202   0.314   0.401   6.277
14320WAT     H243203   0.373   0.550   6.244
14321WAT      O43204   7.162   1.477   4.695
14321WAT     H143205   7.068   1.456   4.722
14321WAT     H243206   7.164   1.509   4.600
14322WAT      O43207   8.462   1.046   8.283
14322WAT     H143208   8.410   1.026   8.200
14322WAT     H243209   8.447   1.141   8.309
14323WAT      O43210   3.290   1.752   5.364
14323WAT     H143211   3.329   1.842   5.386
14323WAT     H243212   3.329   1.683   5.425
14324WAT      O43213   1.220   6.503   4.959
14324WAT     H143214   1.211   6.424   5.019
14324WAT     H243215   1.219   6.587   5.014
14325WAT      O43216   6.461   0.936   0.007
14325WAT     H143217   6.397   0.863  -0.015
14325WAT     H243218   6.429   1.022  -0.034
14326WAT      O43219   5.913   0.601   7.544
14326WAT     H143220   5.899   0.534   7.472
14326WAT     H243221   5.945   0.687   7.504
14327WAT      O43222   1.769   6.676   9.684
14327WAT     H143223   1.849   6.733   9.704
14327WAT     H243224   1.714   6.720   9.613
14328WAT      O43225   2.268   5.890   0.687
14328WAT     H143226   2.350   5.946   0.676
14328WAT     H243227   2.232   5.902   0.779
14329WAT      O43228   9.436   7.918   9.152
14329WAT     H143229   9.354   7.940   9.099
14329WAT     H243230   9.502   7.993   9.143
14330WAT      O43231   5.771   4.853   8.146
14330WAT     H143232   5.700   4.862   8.076
14330WAT     H243233   5.741   4.897   8.230
14331WAT      O43234   3.606   9.672   1.492
14331WAT     H143235   3.654   9.698   1.408
14331WAT     H243236   3.670   9.675   1.569
14332WAT      O43237   1.758   6.058   5.362
14332WAT     H143238   1.763   6.087   5.457
14332WAT     H243239   1.735   6.137   5.304
14333WAT      O43240   9.236   4.639   3.230
14333WAT     H143241   9.322   4.690   3.229
14333WAT     H243242   9.167   4.692   3.279
14334WAT      O43243   1.531   5.650   3.771
14334WAT     H143244   1.433   5.659   3.752
14334WAT     H243245   1.581   5.721   3.722
14335WAT      O43246   9.687   3.877   8.745
14335WAT     H143247   9.631   3.910   8.669
14335WAT     H243248   9.776   3.846   8.709
14336WAT      O43249   5.547   3.728   8.963
14336WAT     H143250   5.631   3.744   9.014
14336WAT     H243251   5.534   3.801   8.896
14337WAT      O43252   6.768   9.536   3.329
14337WAT     H143253   6.687   9.592   3.316
14337WAT     H243254   6.741   9.444   3.358
14338WAT      O43255   3.272   7.168   5.516
14338WAT     H143256   3.316   7.107   5.449
14338WAT     H243257   3.256   7.118   5.601
14339WAT      O43258   1.412   3.206   0.937
14339WAT     H143259   1.383   3.159   1.021
14339WAT     H243260   1.331   3.237   0.887
14340WAT      O43261   8.379   5.179   0.465
14340WAT     H143262   8.295   5.202   0.514
14340WAT     H243263   8.394   5.080   0.471
14341WAT      O43264   9.145   9.328   1.998
14341WAT     H143265   9.208   9.387   1.947
14341WAT     H243266   9.132   9.364   2.090
14342WAT      O43267   7.073   4.466   0.677
14342WAT     H143268   6.999   4.450   0.612
14342WAT     H243269   7.054   4.417   0.762
14343WAT      O43270   6.245   2.149   1.447
14343WAT     H143271   6.156   2.129   1.406
14343WAT     H243272   6.289   2.064   1.476
14344WAT      O43273   8.232   7.931   9.415
14344WAT     H143274   8.154   7.905   9.473
14344WAT     H243275   8.278   7.849   9.383
14345WAT      O43276   2.766   1.797   2.936
14345WAT     H143277   2.824   1.878   2.934
14345WAT     H243278   2.823   1.715   2.937
14346WAT      O43279   4.636   8.559   7.431
14346WAT     H143280   4.561   8.533   7.491
14346WAT     H243281   4.662   8.481   7.374
14347WAT      O43282   4.707   8.375   4.386
14347WAT     H143283   4.694   8.438   4.462
14347WAT     H243284   4.796   8.392   4.343
14348WAT      O43285   3.182   7.689   1.283
14348WAT     H143286   3.137   7.707   1.370
14348WAT     H243287   3.115   7.696   1.209
14349WAT      O43288   9.377   1.875   4.702
14349WAT     H143289   9.458   1.818   4.695
14349WAT     H243290   9.375   1.939   4.625
14350WAT      O43291   0.823   0.115   2.535
14350WAT     H143292   0.822   0.074   2.626
14350WAT     H243293   0.757   0.068   2.477
14351WAT      O43294   1.586   1.560   8.821
14351WAT     H143295   1.612   1.556   8.917
14351WAT     H243296   1.487   1.575   8.814
14352WAT      O43297   2.111   5.273   2.602
14352WAT     H143298   2.021   5.278   2.644
14352WAT     H243299   2.182   5.278   2.673
14353WAT      O43300   6.340   8.441   5.886
14353WAT     H143301   6.355   8.342   5.884
14353WAT     H243302   6.281   8.464   5.963
14354WAT      O43303   0.053   0.306   3.443
14354WAT     H143304   0.139   0.307   3.392
14354WAT     H243305   0.041   0.216   3.485
14355WAT      O43306   8.946   7.819   6.278
14355WAT     H143307   8.981   7.839   6.370
14355WAT     H243308   8.847   7.807   6.282
14356WAT      O43309   1.410   3.177   9.064
14356WAT     H143310   1.420   3.079   9.082
14356WAT     H243311   1.354   3.219   9.135
14357WAT      O43312   6.500   7.822   3.604
14357WAT     H143313   6.520   7.811   3.702
14357WAT     H243314   6.436   7.751   3.575
14358WAT      O43315   0.456   7.568   5.229
14358WAT     H143316   0.399   7.591   5.308
14358WAT     H243317   0.441   7.473   5.204
14359WAT      O43318   0.965   8.068   1.350
14359WAT     H143319   0.960   8.147   1.412
14359WAT     H243320   0.875   8.053   1.309
14360WAT      O43321   8.400   7.168   1.079
14360WAT     H143322   8.304   7.145   1.063
14360WAT     H243323   8.426   7.141   1.172
14361WAT      O43324   4.949   4.089   7.543
14361WAT     H143325   4.946   4.155   7.467
14361WAT     H243326   4.877   4.111   7.609
14362WAT      O43327   1.142   6.246   4.491
14362WAT     H143328   1.229   6.227   4.536
14362WAT     H243329   1.066   6.214   4.548
14363WAT      O43330   9.216   7.069   8.045
14363WAT     H143331   9.270   7.000   7.998
14363WAT     H243332   9.262   7.158   8.039
14364WAT      O43333   1.039   8.824   5.433
14364WAT     H143334   1.051   8.915   5.472
14364WAT     H243335   0.962   8.779   5.477
14365WAT      O43336   3.068   7.907   1.991
14365WAT     H143337   3.084   7.980   1.925
14365WAT     H243338   3.026   7.945   2.073
14366WAT      O43339   7.579   1.966   7.334
14366WAT     H143340   7.675   1.993   7.348
14366WAT     H243341   7.543   1.926   7.419
14367WAT      O43342   6.256   3.269   7.021
14367WAT     H143343   6.173   3.233   6.978
14367WAT     H243344   6.333   3.261   6.958
14368WAT      O43345   8.888   1.010   4.204
14368WAT     H143346   8.956   0.958   4.257
14368WAT     H243347   8.878   0.969   4.114
14369WAT      O43348   1.556   9.272   9.789
14369WAT     H143349   1.481   9.302   9.847
14369WAT     H243350   1.570   9.174   9.800
14370WAT      O43351   8.114   0.044   2.565
14370WAT     H143352   8.182   0.005   2.627
14370WAT     H243353   8.073   0.125   2.609
14371WAT      O43354   9.182   4.238   3.848
14371WAT     H143355   9.182   4.334   3.823
14371WAT     H243356   9.193   4.181   3.766
14372WAT      O43357   1.984   9.523   6.884
14372WAT     H143358   1.987   9.623   6.888
14372WAT     H243359   2.038   9.485   6.958
14373WAT      O43360   7.275   1.332   2.332
14373WAT     H143361   7.338   1.271   2.285
14373WAT     H243362   7.326   1.392   2.393
14374WAT      O43363   5.723   9.804   2.151
14374WAT     H143364   5.806   9.792   2.205
14374WAT     H243365   5.744   9.855   2.068
14375WAT      O43366   1.116   2.039   0.655
14375WAT     H143367   1.144   1.967   0.591
14375WAT     H243368   1.173   2.035   0.737
14376WAT      O43369   5.516   1.765   2.762
14376WAT     H143370   5.591   1.699   2.775
14376WAT     H243371   5.432   1.728   2.801
14377WAT      O43372   0.717   1.061   3.346
14377WAT     H143373   0.690   1.156   3.360
14377WAT     H243374   0.809   1.058   3.308
14378WAT      O43375   7.214   6.920   3.419
14378WAT     H143376   7.313   6.927   3.425
14378WAT     H243377   7.189   6.857   3.346
14379WAT      O43378   2.609   8.408   1.967
14379WAT     H143379   2.640   8.495   1.928
14379WAT     H243380   2.688   8.354   1.996
14380WAT      O43381   9.020   6.337   4.476
14380WAT     H143382   8.925   6.316   4.496
14380WAT     H243383   9.074   6.330   4.560
14381WAT      O43384   4.741   1.458   4.916
14381WAT     H143385   4.698   1.537   4.873
14381WAT     H243386   4.732   1.466   5.015
14382WAT      O43387   7.048   8.031   3.322
14382WAT     H143388   7.080   8.049   3.414
14382WAT     H243389   7.072   7.937   3.295
14383WAT      O43390   4.305   1.598   7.039
14383WAT     H143391   4.262   1.652   6.967
14383WAT     H243392   4.283   1.639   7.128
14384WAT      O43393   5.147   1.543   5.028
14384WAT     H143394   5.085   1.606   5.076
14384WAT     H243395   5.240   1.579   5.034
14385WAT      O43396   2.738   4.791   6.423
14385WAT     H143397   2.821   4.758   6.378
14385WAT     H243398   2.761   4.828   6.513
14386WAT      O43399   2.480   6.107   8.810
14386WAT     H143400   2.481   6.202   8.778
14386WAT     H243401   2.574   6.078   8.829
14387WAT      O43402   5.059   8.936   5.287
14387WAT     H143403   5.011   8.921   5.372
14387WAT     H243404   5.138   8.996   5.303
14388WAT      O43405   8.480   4.970   6.280
14388WAT     H143406   8.529   5.055   6.295
14388WAT     H243407   8.448   4.933   6.367
14389WAT      O43408   5.901   5.991   0.092
14389WAT     H143409   5.886   5.946   0.005
14389WAT     H243410   5.998   5.986   0.117
14390WAT      O43411   1.942   4.741   9.340
14390WAT     H143412   1.896   4.662   9.299
14390WAT     H243413   1.927   4.822   9.282
14391WAT      O43414   4.751   6.390   7.689
14391WAT     H143415   4.718   6.308   7.737
14391WAT     H243416   4.673   6.448   7.665
14392WAT      O43417   4.368   2.193   9.219
14392WAT     H143418   4.384   2.216   9.315
14392WAT     H243419   4.434   2.125   9.188
14393WAT      O43420   7.092   5.788   1.766
14393WAT     H143421   7.052   5.733   1.692
14393WAT     H243422   7.075   5.743   1.854
14394WAT      O43423   1.981   9.724   7.678
14394WAT     H143424   1.911   9.660   7.708
14394WAT     H243425   2.050   9.675   7.623
14395WAT      O43426   1.396   0.369   6.420
14395WAT     H143427   1.465   0.309   6.462
14395WAT     H243428   1.442   0.444   6.373
14396WAT      O43429   1.848   1.070   1.143
14396WAT     H143430   1.858   0.976   1.110
14396WAT     H243431   1.936   1.103   1.177
14397WAT      O43432   1.552   6.409   3.992
14397WAT     H143433   1.614   6.331   3.998
14397WAT     H243434   1.561   6.465   4.075
14398WAT      O43435   8.199   5.718   9.526
14398WAT     H143436   8.135   5.642   9.534
14398WAT     H243437   8.180   5.786   9.596
14399WAT      O43438   0.545   7.568   3.922
14399WAT     H143439   0.506   7.491   3.972
14399WAT     H243440   0.473   7.613   3.869
14400WAT      O43441   4.910   8.725   2.720
14400WAT     H143442   4.819   8.710   2.758
14400WAT     H243443   4.932   8.650   2.657
14401WAT      O43444   0.414   9.538   7.125
14401WAT     H143445   0.404   9.599   7.047
14401WAT     H243446   0.328   9.492   7.144
14402WAT      O43447   8.632   4.619   3.636
14402WAT     H143448   8.615   4.555   3.711
14402WAT     H243449   8.569   4.600   3.561
14403WAT      O43450   4.258   8.180   1.639
14403WAT     H143451   4.187   8.178   1.710
14403WAT     H243452   4.329   8.114   1.661
14404WAT      O43453   3.763   1.995   1.501
14404WAT     H143454   3.788   1.906   1.540
14404WAT     H243455   3.709   2.046   1.568
14405WAT      O43456   4.751   9.375   6.466
14405WAT     H143457   4.711   9.286   6.488
14405WAT     H243458   4.737   9.394   6.369
14406WAT      O43459   2.161   7.799   4.184
14406WAT     H143460   2.219   7.824   4.106
14406WAT     H243461   2.090   7.868   4.195
14407WAT      O43462   5.193   1.475   0.125
14407WAT     H143463   5.254   1.431   0.061
14407WAT     H243464   5.139   1.406   0.173
14408WAT      O43465   0.110   5.924   3.363
14408WAT     H143466   0.207   5.935   3.339
14408WAT     H243467   0.101   5.854   3.433
14409WAT      O43468   2.305   7.461   8.439
14409WAT     H143469   2.314   7.559   8.421
14409WAT     H243470   2.211   7.432   8.421
14410WAT      O43471   1.912   3.408   7.832
14410WAT     H143472   1.838   3.411   7.899
14410WAT     H243473   1.954   3.498   7.825
14411WAT      O43474   3.375   0.530   7.595
14411WAT     H143475   3.408   0.569   7.510
14411WAT     H243476   3.313   0.594   7.640
14412WAT      O43477   9.873   1.178   7.584
14412WAT     H143478   9.813   1.233   7.642
14412WAT     H243479   9.897   1.229   7.502
14413WAT      O43480   5.047   5.782   1.910
14413WAT     H143481   5.014   5.862   1.859
14413WAT     H243482   4.996   5.773   1.995
14414WAT      O43483   9.669   0.761   7.008
14414WAT     H143484   9.592   0.750   6.946
14414WAT     H243485   9.754   0.760   6.955
14415WAT      O43486   7.243   7.687   9.720
14415WAT     H143487   7.156   7.715   9.760
14415WAT     H243488   7.262   7.592   9.745
14416WAT      O43489   1.830   7.840   2.790
14416WAT     H143490   1.804   7.893   2.710
14416WAT     H243491   1.930   7.831   2.793
14417WAT      O43492   6.631   5.952   8.934
14417WAT     H143493   6.551   5.970   8.875
14417WAT     H243494   6.711   5.934   8.876
14418WAT      O43495   7.052   2.563   7.654
14418WAT     H143496   7.073   2.503   7.577
14418WAT     H243497   6.985   2.519   7.714
14419WAT      O43498   9.235   2.161   1.180
14419WAT     H143499   9.245   2.085   1.244
14419WAT     H243500   9.142   2.199   1.187
14420WAT      O43501   7.554   9.695   3.734
14420WAT     H143502   7.527   9.758   3.807
14420WAT     H243503   7.638   9.729   3.691
14421WAT      O43504   8.093   3.271   8.221
14421WAT     H143505   8.183   3.249   8.184
14421WAT     H243506   8.101   3.288   8.320
14422WAT      O43507   7.223   4.972   0.883
14422WAT     H143508   7.192   4.878   0.894
14422WAT     H243509   7.308   4.985   0.934
14423WAT      O43510   6.135   3.599   2.245
14423WAT     H143511   6.054   3.547   2.274
14423WAT     H243512   6.134   3.688   2.289
14424WAT      O43513   1.889   5.198   6.184
14424WAT     H143514   1.894   5.135   6.262
14424WAT     H243515   1.971   5.255   6.182
14425WAT      O43516   9.430   7.400   7.325
14425WAT     H143517   9.334   7.390   7.351
14425WAT     H243518   9.469   7.310   7.305
14426WAT      O43519   3.797   4.422   7.226
14426WAT     H143520   3.725   4.483   7.260
14426WAT     H243521   3.880   4.434   7.280
14427WAT      O43522   4.108   3.242   3.468
14427WAT     H143523   4.033   3.229   3.533
14427WAT     H243524   4.186   3.284   3.515
14428WAT      O43525   8.202   7.155   9.181
14428WAT     H143526   8.149   7.140   9.097
14428WAT     H243527   8.199   7.252   9.205
14429WAT      O43528   0.223   8.910   1.796
14429WAT     H143529   0.134   8.943   1.765
14429WAT     H243530   0.231   8.812   1.777
14430WAT      O43531   9.046   7.825   3.866
14430WAT     H143532   9.009   7.911   3.903
14430WAT     H243533   8.972   7.772   3.825
14431WAT      O43534   9.821   8.212   9.336
14431WAT     H143535   9.904   8.255   9.300
14431WAT     H243536   9.798   8.253   9.424
14432WAT      O43537   6.154   6.298   3.063
14432WAT     H143538   6.223   6.301   3.137
14432WAT     H243539   6.071   6.254   3.097
14433WAT      O43540   0.769   9.381   8.708
14433WAT     H143541   0.753   9.287   8.676
14433WAT     H243542   0.866   9.392   8.729
14434WAT      O43543   1.020   0.074   3.537
14434WAT     H143544   0.944   0.131   3.567
14434WAT     H243545   1.102   0.097   3.589
14435WAT      O43546   0.379   1.559   7.703
14435WAT     H143547   0.419   1.483   7.754
14435WAT     H243548   0.443   1.636   7.702
14436WAT      O43549   5.316   7.191   6.902
14436WAT     H143550   5.261   7.133   6.963
14436WAT     H243551   5.256   7.255   6.853
14437WAT      O43552   4.075   5.227   2.447
14437WAT     H143553   4.129   5.151   2.484
14437WAT     H243554   4.069   5.220   2.348
14438WAT      O43555   1.757   9.672   0.696
14438WAT     H143556   1.671   9.723   0.695
14438WAT     H243557   1.737   9.575   0.683
14439WAT      O43558   7.918   4.205   2.343
14439WAT     H143559   8.007   4.186   2.303
14439WAT     H243560   7.930   4.239   2.436
14440WAT      O43561   1.063   6.557   4.512
14440WAT     H143562   1.040   6.477   4.568
14440WAT     H243563   1.054   6.640   4.567
14441WAT      O43564   8.136   7.060   1.068
14441WAT     H143565   8.149   6.973   1.020
14441WAT     H243566   8.059   7.051   1.131
14442WAT      O43567   7.869   5.261   2.371
14442WAT     H143568   7.909   5.185   2.318
14442WAT     H243569   7.941   5.325   2.397
14443WAT      O43570   4.639   1.177   9.058
14443WAT     H143571   4.627   1.094   9.004
14443WAT     H243572   4.562   1.186   9.121
14444WAT      O43573   7.337   7.674   6.711
14444WAT     H143574   7.358   7.584   6.750
14444WAT     H243575   7.238   7.689   6.713
14445WAT      O43576   0.331   7.245   7.021
14445WAT     H143577   0.308   7.337   7.055
14445WAT     H243578   0.410   7.211   7.072
14446WAT      O43579   2.288   8.155   4.092
14446WAT     H143580   2.353   8.127   4.163
14446WAT     H243581   2.205   8.190   4.135
14447WAT      O43582   3.220   0.754   2.137
14447WAT     H143583   3.168   0.839   2.130
14447WAT     H243584   3.290   0.752   2.066
14448WAT      O43585   8.679   3.245   0.934
14448WAT     H143586   8.630   3.253   1.020
14448WAT     H243587   8.646   3.166   0.883
14449WAT      O43588   7.889   6.585   2.398
14449WAT     H143589   7.951   6.654   2.435
14449WAT     H243590   7.837   6.544   2.473
14450WAT      O43591   3.391   1.911   0.407
14450WAT     H143592   3.398   2.008   0.433
14450WAT     H243593   3.480   1.868   0.418
14451WAT      O43594   6.497   9.348   1.714
14451WAT     H143595   6.477   9.281   1.642
14451WAT     H243596   6.457   9.317   1.800
14452WAT      O43597   7.772   5.347   8.836
14452WAT     H143598   7.851   5.286   8.846
14452WAT     H243599   7.758   5.367   8.739
14453WAT      O43600   9.236   1.974   5.913
14453WAT     H143601   9.145   1.934   5.900
14453WAT     H243602   9.304   1.901   5.918
14454WAT      O43603   6.351   1.967   5.761
14454WAT     H143604   6.307   1.959   5.851
14454WAT     H243605   6.328   1.888   5.705
14455WAT      O43606   5.220   0.818   0.912
14455WAT     H143607   5.306   0.845   0.955
14455WAT     H243608   5.199   0.724   0.937
14456WAT      O43609   2.540   2.195   3.317
14456WAT     H143610   2.480   2.120   3.348
14456WAT     H243611   2.615   2.206   3.382
14457WAT      O43612   4.315   3.576   2.189
14457WAT     H143613   4.295   3.497   2.247
14457WAT     H243614   4.265   3.656   2.222
14458WAT      O43615   5.404   8.778   2.820
14458WAT     H143616   5.424   8.682   2.842
14458WAT     H243617   5.314   8.802   2.858
14459WAT      O43618   4.658   1.233   1.870
14459WAT     H143619   4.743   1.216   1.919
14459WAT     H243620   4.627   1.326   1.888
14460WAT      O43621   2.213   6.122   5.079
14460WAT     H143622   2.231   6.195   5.145
14460WAT     H243623   2.262   6.142   4.994
14461WAT      O43624   6.766   6.445   7.612
14461WAT     H143625   6.795   6.353   7.585
14461WAT     H243626   6.694   6.477   7.550
14462WAT      O43627   7.789   6.434   5.322
14462WAT     H143628   7.745   6.455   5.409
14462WAT     H243629   7.793   6.516   5.265
14463WAT      O43630   2.173   6.895   1.909
14463WAT     H143631   2.262   6.848   1.906
14463WAT     H243632   2.100   6.828   1.899
14464WAT      O43633   9.726   2.774   0.845
14464WAT     H143634   9.821   2.801   0.829
14464WAT     H243635   9.723   2.689   0.897
14465WAT      O43636   8.466   0.367   1.714
14465WAT     H143637   8.511   0.338   1.798
14465WAT     H243638   8.389   0.306   1.695
14466WAT      O43639   6.129   1.667   9.485
14466WAT     H143640   6.215   1.687   9.437
14466WAT     H243641   6.053   1.706   9.434
14467WAT      O43642   2.941   8.609   5.685
14467WAT     H143643   3.036   8.638   5.698
14467WAT     H243644   2.938   8.536   5.617
14468WAT      O43645   1.388   3.651   1.528
14468WAT     H143646   1.297   3.629   1.564
14468WAT     H243647   1.449   3.674   1.603
14469WAT      O43648   6.336   4.672   6.160
14469WAT     H143649   6.342   4.769   6.138
14469WAT     H243650   6.290   4.661   6.248
14470WAT      O43651   0.132   1.682   4.805
14470WAT     H143652   0.066   1.666   4.731
14470WAT     H243653   0.201   1.609   4.804
14471WAT      O43654   6.610   8.983   0.689
14471WAT     H143655   6.685   9.023   0.740
14471WAT     H243656   6.644   8.908   0.632
14472WAT      O43657   2.744   5.902   4.245
14472WAT     H143658   2.764   5.944   4.333
14472WAT     H243659   2.691   5.819   4.258
14473WAT      O43660   5.504   7.384   9.610
14473WAT     H143661   5.580   7.428   9.562
14473WAT     H243662   5.418   7.412   9.567
14474WAT      O43663   1.923   7.750   9.843
14474WAT     H143664   1.842   7.701   9.811
14474WAT     H243665   1.971   7.790   9.765
14475WAT      O43666   7.641   2.319   0.911
14475WAT     H143667   7.597   2.263   0.841
14475WAT     H243668   7.575   2.384   0.948
14476WAT      O43669   3.674   1.561   0.296
14476WAT     H143670   3.692   1.657   0.272
14476WAT     H243671   3.733   1.534   0.372
14477WAT      O43672   3.067   7.341   7.126
14477WAT     H143673   3.000   7.414   7.137
14477WAT     H243674   3.072   7.288   7.211
14478WAT      O43675   7.333   4.347   5.015
14478WAT     H143676   7.253   4.289   5.027
14478WAT     H243677   7.372   4.369   5.105
14479WAT      O43678   0.435   6.354   6.475
14479WAT     H143679   0.476   6.408   6.548
14479WAT     H243680   0.505   6.334   6.406
14480WAT      O43681   1.496   0.844   1.738
14480WAT     H143682   1.592   0.873   1.733
14480WAT     H243683   1.485   0.759   1.688
14481WAT      O43684   0.090   8.703   8.321
14481WAT     H143685   0.174   8.740   8.361
14481WAT     H243686   0.043   8.776   8.271
14482WAT      O43687   0.228   2.751   2.102
14482WAT     H143688   0.161   2.690   2.142
14482WAT     H243689   0.201   2.846   2.118
14483WAT      O43690   6.313   0.725   3.013
14483WAT     H143691   6.231   0.714   2.957
14483WAT     H243692   6.388   0.671   2.974
14484WAT      O43693   6.158   8.546   4.759
14484WAT     H143694   6.093   8.616   4.786
14484WAT     H243695   6.251   8.584   4.761
14485WAT      O43696   5.503   7.807   5.395
14485WAT     H143697   5.504   7.904   5.419
14485WAT     H243698   5.530   7.754   5.475
14486WAT      O43699   5.007   5.032   0.746
14486WAT     H143700   5.064   5.106   0.781
14486WAT     H243701   5.053   4.988   0.669
14487WAT      O43702   9.889   2.094   3.959
14487WAT     H143703   9.807   2.152   3.957
14487WAT     H243704   9.917   2.080   4.054
14488WAT      O43705   1.444   1.810   7.375
14488WAT     H143706   1.367   1.767   7.326
14488WAT     H243707   1.493   1.870   7.313
14489WAT      O43708   3.541   5.847   9.409
14489WAT     H143709   3.611   5.873   9.342
14489WAT     H243710   3.469   5.796   9.363
14490WAT      O43711   9.347   9.339   5.928
14490WAT     H143712   9.320   9.252   5.971
14490WAT     H243713   9.435   9.368   5.964
14491WAT      O43714   9.199   5.773   5.427
14491WAT     H143715   9.242   5.705   5.487
14491WAT     H243716   9.102   5.754   5.419
14492WAT      O43717   6.922   7.838   0.208
14492WAT     H143718   6.834   7.834   0.161
14492WAT     H243719   6.910   7.809   0.303
14493WAT      O43720   0.925   1.206   6.071
14493WAT     H143721   0.830   1.181   6.091
14493WAT     H243722   0.987   1.144   6.120
14494WAT      O43723   9.650   7.885   3.621
14494WAT     H143724   9.666   7.957   3.689
14494WAT     H243725   9.737   7.846   3.591
14495WAT      O43726   3.984   2.473   1.624
14495WAT     H143727   4.079   2.489   1.653
14495WAT     H243728   3.941   2.559   1.600
14496WAT      O43729   4.499   2.783   7.804
14496WAT     H143730   4.429   2.834   7.753
14496WAT     H243731   4.454   2.724   7.872
14497WAT      O43732   1.862   4.193   0.283
14497WAT     H143733   1.906   4.103   0.276
14497WAT     H243734   1.925   4.257   0.327
14498WAT      O43735   4.458   6.573   7.210
14498WAT     H143736   4.445   6.481   7.247
14498WAT     H243737   4.479   6.637   7.284
14499WAT      O43738   7.729   6.608   2.845
14499WAT     H143739   7.745   6.675   2.771
14499WAT     H243740   7.746   6.652   2.933
14500WAT      O43741   0.405   2.188   7.538
14500WAT     H143742   0.421   2.093   7.510
14500WAT     H243743   0.397   2.246   7.457
14501WAT      O43744   6.961   6.666   1.504
14501WAT     H143745   6.950   6.726   1.583
14501WAT     H243746   6.876   6.616   1.488
14502WAT      O43747   9.155   7.038   7.707
14502WAT     H143748   9.222   7.111   7.697
14502WAT     H243749   9.202   6.951   7.719
14503WAT      O43750   7.029   3.846   0.151
14503WAT     H143751   7.121   3.871   0.180
14503WAT     H243752   7.021   3.746   0.147
14504WAT      O43753   6.070   3.079   5.738
14504WAT     H143754   6.138   3.151   5.722
14504WAT     H243755   5.995   3.090   5.673
14505WAT      O43756   0.640   3.222   1.045
14505WAT     H143757   0.604   3.164   1.118
14505WAT     H243758   0.574   3.225   0.970
14506WAT      O43759   8.785   0.798   9.859
14506WAT     H143760   8.717   0.727   9.839
14506WAT     H243761   8.839   0.817   9.777
14507WAT      O43762   7.178   4.393   7.016
14507WAT     H143763   7.235   4.444   6.951
14507WAT     H243764   7.117   4.332   6.966
14508WAT      O43765   2.057   6.944   2.489
14508WAT     H143766   2.004   6.995   2.421
14508WAT     H243767   2.127   6.890   2.442
14509WAT      O43768   3.564   4.293   7.701
14509WAT     H143769   3.564   4.200   7.662
14509WAT     H243770   3.532   4.290   7.795
14510WAT      O43771   0.450   7.365   0.556
14510WAT     H143772   0.396   7.366   0.641
14510WAT     H243773   0.414   7.294   0.496
14511WAT      O43774   3.546   1.600   2.612
14511WAT     H143775   3.500   1.537   2.675
14511WAT     H243776   3.547   1.692   2.651
14512WAT      O43777   5.675   7.095   5.436
14512WAT     H143778   5.729   7.036   5.378
14512WAT     H243779   5.588   7.117   5.391
14513WAT      O43780   7.701   3.470   1.175
14513WAT     H143781   7.645   3.445   1.255
14513WAT     H243782   7.786   3.417   1.176
14514WAT      O43783   7.140   0.358   4.831
14514WAT     H143784   7.188   0.278   4.866
14514WAT     H243785   7.086   0.331   4.750
14515WAT      O43786   6.222   7.318   0.875
14515WAT     H143787   6.185   7.312   0.967
14515WAT     H243788   6.277   7.401   0.867
14516WAT      O43789   0.332   1.179   9.554
14516WAT     H143790   0.312   1.243   9.628
14516WAT     H243791   0.412   1.211   9.503
14517WAT      O43792   5.314   1.851   2.142
14517WAT     H143793   5.292   1.906   2.061
14517WAT     H243794   5.275   1.895   2.223
14518WAT      O43795   6.649   2.223   8.592
14518WAT     H143796   6.605   2.146   8.545
14518WAT     H243797   6.708   2.187   8.665
14519WAT      O43798   3.668   4.895   4.108
14519WAT     H143799   3.681   4.990   4.080
14519WAT     H243800   3.658   4.890   4.207
14520WAT      O43801   3.581   3.614   7.182
14520WAT     H143802   3.554   3.666   7.263
14520WAT     H243803   3.504   3.608   7.119
14521WAT      O43804   1.612   2.503   3.932
14521WAT     H143805   1.594   2.478   4.027
14521WAT     H243806   1.550   2.453   3.871
14522WAT      O43807   4.833   2.766   2.107
14522WAT     H143808   4.827   2.688   2.169
14522WAT     H243809   4.745   2.814   2.107
14523WAT      O43810   7.805   6.960   3.446
14523WAT     H143811   7.885   6.963   3.507
14523WAT     H243812   7.726   6.998   3.493
14524WAT      O43813   9.541   9.818   6.262
14524WAT     H143814   9.582   9.740   6.308
14524WAT     H243815   9.503   9.881   6.330
14525WAT      O43816   0.863   6.252   0.617
14525WAT     H143817   0.823   6.217   0.532
14525WAT     H243818   0.838   6.348   0.628
14526WAT      O43819   3.984   9.455   6.310
14526WAT     H143820   4.074   9.436   6.269
14526WAT     H243821   3.993   9.531   6.375
14527WAT      O43822   0.183   1.745   7.739
14527WAT     H143823   0.203   1.777   7.831
14527WAT     H243824   0.247   1.672   7.714
14528WAT      O43825   7.742   7.408   1.783
14528WAT     H143826   7.734   7.501   1.748
14528WAT     H243827   7.784   7.349   1.714
14529WAT      O43828   4.968   9.799   0.601
14529WAT     H143829   5.049   9.830   0.651
14529WAT     H243830   4.995   9.765   0.511
14530WAT      O43831   3.142   1.073   5.137
14530WAT     H143832   3.149   1.001   5.206
14530WAT     H243833   3.108   1.156   5.180
14531WAT      O43834   7.423   0.684   7.721
14531WAT     H143835   7.349   0.623   7.751
14531WAT     H243836   7.486   0.699   7.796
14532WAT      O43837   1.307   8.060   5.281
14532WAT     H143838   1.267   7.981   5.233
14532WAT     H243839   1.239   8.133   5.286
14533WAT      O43840   4.568   7.312   0.609
14533WAT     H143841   4.622   7.333   0.527
14533WAT     H243842   4.589   7.219   0.640
14534WAT      O43843   2.234   3.106   8.552
14534WAT     H143844   2.277   3.081   8.639
14534WAT     H243845   2.302   3.146   8.491
14535WAT      O43846   1.942   4.865   1.412
14535WAT     H143847   2.004   4.791   1.388
14535WAT     H243848   1.898   4.845   1.499
14536WAT      O43849   5.068   7.974   5.920
14536WAT     H143850   4.989   7.925   5.884
14536WAT     H243851   5.037   8.058   5.966
14537WAT      O43852   6.436   1.107   7.030
14537WAT     H143853   6.398   1.039   7.092
14537WAT     H243854   6.523   1.140   7.066
14538WAT      O43855   8.336   5.724   7.174
14538WAT     H143856   8.301   5.803   7.223
14538WAT     H243857   8.373   5.658   7.240
14539WAT      O43858   3.176   3.155   8.406
14539WAT     H143859   3.108   3.088   8.436
14539WAT     H243860   3.263   3.136   8.450
14540WAT      O43861   3.789   8.140   3.585
14540WAT     H143862   3.860   8.070   3.584
14540WAT     H243863   3.782   8.180   3.677
14541WAT      O43864   5.399   2.216   0.191
14541WAT     H143865   5.431   2.289   0.252
14541WAT     H243866   5.390   2.252   0.098
14542WAT      O43867   2.176   9.602   2.138
14542WAT     H143868   2.207   9.611   2.043
14542WAT     H243869   2.174   9.693   2.181
14543WAT      O43870   0.939   2.198   7.418
14543WAT     H143871   0.989   2.117   7.449
14543WAT     H243872   0.850   2.201   7.463
14544WAT      O43873   2.382   5.038   3.499
14544WAT     H143874   2.417   5.107   3.436
14544WAT     H243875   2.455   5.009   3.562
14545WAT      O43876   2.060   8.242   2.426
14545WAT     H143877   2.070   8.186   2.508
14545WAT     H243878   2.125   8.318   2.429
14546WAT      O43879   0.363   7.364   7.451
14546WAT     H143880   0.336   7.448   7.405
14546WAT     H243881   0.449   7.330   7.412
14547WAT      O43882   7.693   5.892   2.040
14547WAT     H143883   7.603   5.927   2.013
14547WAT     H243884   7.747   5.872   1.958
14548WAT      O43885   7.298   6.669   9.887
14548WAT     H143886   7.315   6.571   9.897
14548WAT     H243887   7.247   6.686   9.803
14549WAT      O43888   1.369   2.379   6.391
14549WAT     H143889   1.330   2.409   6.478
14549WAT     H243890   1.330   2.434   6.317
14550WAT      O43891   1.364   5.578   5.122
14550WAT     H143892   1.337   5.580   5.218
14550WAT     H243893   1.392   5.486   5.097
14551WAT      O43894   8.034   1.163   5.962
14551WAT     H143895   8.084   1.082   5.992
14551WAT     H243896   8.043   1.173   5.863
14552WAT      O43897   5.711   2.271   7.645
14552WAT     H143898   5.669   2.181   7.657
14552WAT     H243899   5.745   2.303   7.733
14553WAT      O43900   1.879   7.164   4.183
14553WAT     H143901   1.977   7.143   4.178
14553WAT     H243902   1.859   7.240   4.122
14554WAT      O43903   1.898   6.938   9.123
14554WAT     H143904   1.980   6.993   9.107
14554WAT     H243905   1.903   6.854   9.068
14555WAT      O43906   5.085   7.186   3.855
14555WAT     H143907   4.995   7.143   3.852
14555WAT     H243908   5.111   7.202   3.950
14556WAT      O43909   0.011   2.156   8.047
14556WAT     H143910   0.035   2.060   8.030
14556WAT     H243911   0.017   2.174   8.145
14557WAT      O43912   6.197   9.302   9.375
14557WAT     H143913   6.193   9.266   9.282
14557WAT     H243914   6.267   9.373   9.381
14558WAT      O43915   3.072   3.077   9.621
14558WAT     H143916   3.149   3.131   9.588
14558WAT     H243917   3.007   3.136   9.669
14559WAT      O43918   2.052   8.425   6.635
14559WAT     H143919   1.984   8.357   6.663
14559WAT     H243920   2.040   8.445   6.538
14560WAT      O43921   1.529   1.453   2.325
14560WAT     H143922   1.551   1.546   2.297
14560WAT     H243923   1.465   1.455   2.401
14561WAT      O43924   8.876   1.417   7.173
14561WAT     H143925   8.816   1.391   7.098
14561WAT     H243926   8.962   1.454   7.137
14562WAT      O43927   9.697   6.475   2.069
14562WAT     H143928   9.729   6.418   1.994
14562WAT     H243929   9.753   6.457   2.150
14563WAT      O43930   7.283   2.040   7.534
14563WAT     H143931   7.377   2.007   7.546
14563WAT     H243932   7.220   1.981   7.585
14564WAT      O43933   0.669   8.264   1.481
14564WAT     H143934   0.767   8.285   1.476
14564WAT     H243935   0.624   8.330   1.541
14565WAT      O43936   3.251   7.779   8.045
14565WAT     H143937   3.333   7.738   8.086
14565WAT     H243938   3.179   7.786   8.114
14566WAT      O43939   1.434   7.796   7.932
14566WAT     H143940   1.343   7.824   7.902
14566WAT     H243941   1.492   7.781   7.852
14567WAT      O43942   4.528   8.858   6.028
14567WAT     H143943   4.563   8.857   5.934
14567WAT     H243944   4.587   8.800   6.086
14568WAT      O43945   6.100   9.839   7.630
14568WAT     H143946   6.042   9.760   7.615
14568WAT     H243947   6.113   9.854   7.728
14569WAT      O43948   1.193   3.338   7.494
14569WAT     H143949   1.169   3.419   7.547
14569WAT     H243950   1.120   3.318   7.430
14570WAT      O43951   3.720   3.090   1.311
14570WAT     H143952   3.711   3.053   1.404
14570WAT     H243953   3.806   3.058   1.271
14571WAT      O43954   2.302   2.930   1.714
14571WAT     H143955   2.278   2.997   1.644
14571WAT     H243956   2.361   2.974   1.782
14572WAT      O43957   3.390   7.665   2.357
14572WAT     H143958   3.336   7.706   2.284
14572WAT     H243959   3.337   7.665   2.442
14573WAT      O43960   4.109   6.839   2.592
14573WAT     H143961   4.042   6.764   2.585
14573WAT     H243962   4.141   6.845   2.686
14574WAT      O43963   8.541   5.294   7.411
14574WAT     H143964   8.541   5.201   7.374
14574WAT     H243965   8.617   5.306   7.474
14575WAT      O43966   4.628   6.600   4.038
14575WAT     H143967   4.719   6.587   4.077
14575WAT     H243968   4.575   6.662   4.096
14576WAT      O43969   6.175   2.368   6.772
14576WAT     H143970   6.184   2.463   6.743
14576WAT     H243971   6.081   2.349   6.799
14577WAT      O43972   8.452   2.765   0.442
14577WAT     H143973   8.434   2.773   0.344
14577WAT     H243974   8.548   2.742   0.456
14578WAT      O43975   6.421   4.630   5.107
14578WAT     H143976   6.379   4.685   5.035
14578WAT     H243977   6.358   4.557   5.134
14579WAT      O43978   9.399   8.553   7.783
14579WAT     H143979   9.388   8.546   7.684
14579WAT     H243980   9.351   8.477   7.827
14580WAT      O43981   6.711   3.627   6.770
14580WAT     H143982   6.685   3.637   6.866
14580WAT     H243983   6.731   3.531   6.750
14581WAT      O43984   8.483   7.385   9.583
14581WAT     H143985   8.458   7.336   9.499
14581WAT     H243986   8.564   7.441   9.565
14582WAT      O43987   5.887   0.886   0.605
14582WAT     H143988   5.979   0.848   0.620
14582WAT     H243989   5.862   0.877   0.509
14583WAT      O43990   7.360   7.037   1.226
14583WAT     H143991   7.313   7.001   1.145
14583WAT     H243992   7.356   6.969   1.299
14584WAT      O43993   2.881   1.072   0.710
14584WAT     H143994   2.890   1.043   0.615
14584WAT     H243995   2.916   1.001   0.771
14585WAT      O43996   7.789   6.127   9.583
14585WAT     H143997   7.822   6.052   9.642
14585WAT     H243998   7.847   6.207   9.597
14586WAT      O43999   0.302   8.774   5.953
14586WAT     H144000   0.395   8.806   5.933
14586WAT     H244001   0.277   8.799   6.046
14587WAT      O44002   5.940   5.019   0.493
14587WAT     H144003   5.873   4.983   0.558
14587WAT     H244004   6.031   5.020   0.535
14588WAT      O44005   9.813   8.555   9.020
14588WAT     H144006   9.778   8.647   9.040
14588WAT     H244007   9.855   8.517   9.103
14589WAT      O44008   1.924   1.882   8.986
14589WAT     H144009   1.828   1.865   8.966
14589WAT     H244010   1.965   1.801   9.027
14590WAT      O44011   8.457   9.234   6.586
14590WAT     H144012   8.376   9.187   6.622
14590WAT     H244013   8.531   9.229   6.653
14591WAT      O44014   4.160   1.452   4.680
14591WAT     H144015   4.179   1.368   4.630
14591WAT     H244016   4.140   1.526   4.616
14592WAT      O44017   8.298   2.151   9.363
14592WAT     H144018   8.392   2.171   9.388
14592WAT     H244019   8.257   2.231   9.320
14593WAT      O44020   9.775   0.445   9.747
14593WAT     H144021   9.720   0.516   9.790
14593WAT     H244022   9.798   0.374   9.814
14594WAT      O44023   0.355   8.789   3.495
14594WAT     H144024   0.431   8.815   3.555
14594WAT     H244025   0.328   8.869   3.440
14595WAT      O44026   1.101   6.898   3.719
14595WAT     H144027   1.082   6.994   3.738
14595WAT     H244028   1.151   6.858   3.796
14596WAT      O44029   0.249   7.005   7.803
14596WAT     H144030   0.205   6.964   7.722
14596WAT     H244031   0.236   6.945   7.882
14597WAT      O44032   4.702   5.924   1.625
14597WAT     H144033   4.656   5.858   1.684
14597WAT     H244034   4.670   5.912   1.531
14598WAT      O44035   8.650   2.734   5.779
14598WAT     H144036   8.639   2.654   5.837
14598WAT     H244037   8.612   2.715   5.689
14599WAT      O44038   8.209   1.969   3.812
14599WAT     H144039   8.271   2.022   3.754
14599WAT     H244040   8.136   1.930   3.755
14600WAT      O44041   2.705   7.375   1.758
14600WAT     H144042   2.751   7.321   1.688
14600WAT     H244043   2.667   7.314   1.828
14601WAT      O44044   7.589   7.859   6.425
14601WAT     H144045   7.657   7.889   6.358
14601WAT     H244046   7.562   7.765   6.404
14602WAT      O44047   6.960   3.087   9.435
14602WAT     H144048   6.891   3.159   9.433
14602WAT     H244049   7.018   3.094   9.354
14603WAT      O44050   3.606   4.691   1.186
14603WAT     H144051   3.571   4.774   1.143
14603WAT     H244052   3.541   4.659   1.254
14604WAT      O44053   8.242   9.788   6.745
14604WAT     H144054   8.203   9.762   6.834
14604WAT     H244055   8.300   9.868   6.756
14605WAT      O44056   2.302   6.263   2.669
14605WAT     H144057   2.308   6.210   2.753
14605WAT     H244058   2.352   6.216   2.596
14606WAT      O44059   6.105   3.125   8.597
14606WAT     H144060   6.050   3.188   8.651
14606WAT     H244061   6.187   3.099   8.649
14607WAT      O44062   4.160   7.840   4.137
14607WAT     H144063   4.087   7.787   4.095
14607WAT     H244064   4.183   7.918   4.078
14608WAT      O44065   0.533   9.827   9.885
14608WAT     H144066   0.567   9.890   9.814
14608WAT     H244067   0.605   9.812   9.953
14609WAT      O44068   3.022   6.155   5.432
14609WAT     H144069   3.004   6.097   5.512
14609WAT     H244070   3.113   6.195   5.440
14610WAT      O44071   6.309   3.491   3.054
14610WAT     H144072   6.261   3.404   3.046
14610WAT     H244073   6.361   3.508   2.970
14611WAT      O44074   5.436   0.330   6.500
14611WAT     H144075   5.472   0.378   6.580
14611WAT     H244076   5.388   0.247   6.528
14612WAT      O44077   1.352   7.270   5.901
14612WAT     H144078   1.269   7.240   5.853
14612WAT     H244079   1.348   7.241   5.996
14613WAT      O44080   5.524   3.210   9.095
14613WAT     H144081   5.539   3.293   9.041
14613WAT     H244082   5.441   3.220   9.150
14614WAT      O44083   2.400   5.924   1.304
14614WAT     H144084   2.495   5.916   1.272
14614WAT     H244085   2.359   6.006   1.263
14615WAT      O44086   3.933   8.291   3.267
14615WAT     H144087   3.898   8.209   3.222
14615WAT     H244088   4.025   8.274   3.301
14616WAT      O44089   5.189   0.577   1.001
14616WAT     H144090   5.187   0.595   1.099
14616WAT     H244091   5.111   0.520   0.976
14617WAT      O44092   7.657   4.179   3.240
14617WAT     H144093   7.606   4.161   3.323
14617WAT     H244094   7.643   4.274   3.212
14618WAT      O44095   0.622   8.807   4.872
14618WAT     H144096   0.568   8.883   4.906
14618WAT     H244097   0.672   8.835   4.790
14619WAT      O44098   0.246   0.797   5.362
14619WAT     H144099   0.193   0.876   5.332
14619WAT     H244100   0.263   0.737   5.284
14620WAT      O44101   1.707   7.561   1.406
14620WAT     H144102   1.631   7.525   1.352
14620WAT     H244103   1.731   7.652   1.372
14621WAT      O44104   0.922   6.963   8.503
14621WAT     H144105   0.972   6.992   8.585
14621WAT     H244106   0.973   6.988   8.421
14622WAT      O44107   1.219   9.381   9.735
14622WAT     H144108   1.194   9.398   9.830
14622WAT     H244109   1.200   9.285   9.712
14623WAT      O44110   7.498   3.929   6.236
14623WAT     H144111   7.521   4.014   6.188
14623WAT     H244112   7.401   3.930   6.261
14624WAT      O44113   3.489   4.063   2.601
14624WAT     H144114   3.443   4.135   2.651
14624WAT     H244115   3.464   4.068   2.504
14625WAT      O44116   1.886   7.778   2.361
14625WAT     H144117   1.889   7.767   2.261
14625WAT     H244118   1.824   7.710   2.400
14626WAT      O44119   2.057   5.904   2.288
14626WAT     H144120   2.104   5.865   2.367
14626WAT     H244121   1.976   5.849   2.267
14627WAT      O44122   8.031   9.508   3.790
14627WAT     H144123   8.077   9.420   3.806
14627WAT     H244124   7.956   9.495   3.725
14628WAT      O44125   0.872   2.860   8.100
14628WAT     H144126   0.821   2.943   8.076
14628WAT     H244127   0.964   2.886   8.130
14629WAT      O44128   9.688   2.808   3.992
14629WAT     H144129   9.711   2.713   3.973
14629WAT     H244130   9.767   2.866   3.974
14630WAT      O44131   7.219   7.328   6.091
14630WAT     H144132   7.120   7.346   6.096
14630WAT     H244133   7.262   7.356   6.176
14631WAT      O44134   7.865   7.470   3.000
14631WAT     H144135   7.834   7.486   3.094
14631WAT     H244136   7.930   7.395   2.999
14632WAT      O44137   7.344   5.095   4.506
14632WAT     H144138   7.414   5.033   4.471
14632WAT     H244139   7.378   5.139   4.590
14633WAT      O44140   3.361   0.339   1.504
14633WAT     H144141   3.367   0.416   1.568
14633WAT     H244142   3.282   0.283   1.527
14634WAT      O44143   5.698   8.691   8.275
14634WAT     H144144   5.699   8.739   8.187
14634WAT     H244145   5.746   8.746   8.343
14635WAT      O44146   8.851   6.691   2.278
14635WAT     H144147   8.862   6.601   2.236
14635WAT     H244148   8.938   6.721   2.317
14636WAT      O44149   1.602   5.439   3.473
14636WAT     H144150   1.530   5.507   3.485
14636WAT     H244151   1.690   5.484   3.458
14637WAT      O44152   9.699   5.663   2.118
14637WAT     H144153   9.769   5.734   2.117
14637WAT     H244154   9.731   5.584   2.066
14638WAT      O44155   9.856   3.930   8.243
14638WAT     H144156   9.843   3.949   8.146
14638WAT     H244157   9.894   3.839   8.254
14639WAT      O44158   5.539   4.083   1.298
14639WAT     H144159   5.557   4.055   1.204
14639WAT     H244160   5.452   4.132   1.302
14640WAT      O44161   0.074   4.615   0.752
14640WAT     H144162   0.072   4.617   0.652
14640WAT     H244163   0.138   4.545   0.783
14641WAT      O44164   7.613   3.181   7.023
14641WAT     H144165   7.697   3.134   6.993
14641WAT     H244166   7.614   3.190   7.123
14642WAT      O44167   3.186   8.405   1.451
14642WAT     H144168   3.272   8.418   1.402
14642WAT     H244169   3.135   8.328   1.411
14643WAT      O44170   5.899   5.428   9.416
14643WAT     H144171   5.986   5.389   9.445
14643WAT     H244172   5.906   5.528   9.415
14644WAT      O44173   7.681   2.097   2.507
14644WAT     H144174   7.761   2.046   2.475
14644WAT     H244175   7.698   2.195   2.494
14645WAT      O44176   0.241   5.863   7.375
14645WAT     H144177   0.325   5.812   7.391
14645WAT     H244178   0.235   5.938   7.440
14646WAT      O44179   8.841   6.364   1.676
14646WAT     H144180   8.825   6.265   1.681
14646WAT     H244181   8.821   6.396   1.584
14647WAT      O44182   2.819   0.354   9.888
14647WAT     H144183   2.801   0.354   9.986
14647WAT     H244184   2.734   0.337   9.838
14648WAT      O44185   6.802   5.034   5.055
14648WAT     H144186   6.765   5.009   5.144
14648WAT     H244187   6.822   4.951   5.003
14649WAT      O44188   1.773   7.049   8.757
14649WAT     H144189   1.728   7.083   8.674
14649WAT     H244190   1.826   6.967   8.734
14650WAT      O44191   7.160   9.518   4.365
14650WAT     H144192   7.182   9.603   4.317
14650WAT     H244193   7.067   9.524   4.402
14651WAT      O44194   2.233   8.440   7.679
14651WAT     H144195   2.279   8.413   7.764
14651WAT     H244196   2.144   8.479   7.700
14652WAT      O44197   1.674   4.624   5.120
14652WAT     H144198   1.595   4.611   5.059
14652WAT     H244199   1.726   4.539   5.124
14653WAT      O44200   6.161   2.664   1.894
14653WAT     H144201   6.188   2.638   1.986
14653WAT     H244202   6.150   2.764   1.890
14654WAT      O44203   1.456   7.813   3.962
14654WAT     H144204   1.473   7.715   3.971
14654WAT     H244205   1.430   7.850   4.051
14655WAT      O44206   0.894   4.785   9.842
14655WAT     H144207   0.846   4.764   9.928
14655WAT     H244208   0.983   4.826   9.863
14656WAT      O44209   8.511   2.323   5.721
14656WAT     H144210   8.414   2.301   5.706
14656WAT     H244211   8.561   2.239   5.739
14657WAT      O44212   9.135   9.360   5.524
14657WAT     H144213   9.211   9.385   5.465
14657WAT     H244214   9.130   9.260   5.531
14658WAT      O44215   7.733   6.304   2.134
14658WAT     H144216   7.800   6.236   2.105
14658WAT     H244217   7.778   6.393   2.145
14659WAT      O44218   6.060   8.899   1.861
14659WAT     H144219   6.091   8.878   1.954
14659WAT     H244220   6.025   8.815   1.818
14660WAT      O44221   0.888   0.139   3.158
14660WAT     H144222   0.881   0.052   3.208
14660WAT     H244223   0.977   0.181   3.176
14661WAT      O44224   0.191   6.566   5.607
14661WAT     H144225   0.264   6.538   5.670
14661WAT     H244226   0.195   6.511   5.524
14662WAT      O44227   3.486   5.223   9.366
14662WAT     H144228   3.477   5.276   9.450
14662WAT     H244229   3.420   5.148   9.367
14663WAT      O44230   3.031   9.790   7.226
14663WAT     H144231   3.025   9.693   7.248
14663WAT     H244232   3.046   9.843   7.310
14664WAT      O44233   2.635   2.810   0.472
14664WAT     H144234   2.622   2.795   0.570
14664WAT     H244235   2.565   2.874   0.439
14665WAT      O44236   2.800   1.076   2.544
14665WAT     H144237   2.822   1.146   2.476
14665WAT     H244238   2.879   1.017   2.558
14666WAT      O44239   1.128   9.558   4.942
14666WAT     H144240   1.194   9.626   4.911
14666WAT     H244241   1.077   9.521   4.864
14667WAT      O44242   2.580   0.174   3.992
14667WAT     H144243   2.491   0.149   4.030
14667WAT     H244244   2.616   0.099   3.937
14668WAT      O44245   4.220   4.888   2.959
14668WAT     H144246   4.261   4.945   3.031
14668WAT     H244247   4.291   4.865   2.892
14669WAT      O44248   5.550   6.721   2.568
14669WAT     H144249   5.565   6.630   2.607
14669WAT     H244250   5.603   6.789   2.620
14670WAT      O44251   0.119   5.473   7.131
14670WAT     H144252   0.082   5.399   7.075
14670WAT     H244253   0.195   5.516   7.083
14671WAT      O44254   0.662   1.339   0.391
14671WAT     H144255   0.642   1.415   0.329
14671WAT     H244256   0.589   1.333   0.459
14672WAT      O44257   9.374   9.157   5.321
14672WAT     H144258   9.324   9.188   5.240
14672WAT     H244259   9.426   9.075   5.299
14673WAT      O44260   5.371   3.485   1.500
14673WAT     H144261   5.395   3.521   1.410
14673WAT     H244262   5.382   3.557   1.569
14674WAT      O44263   1.940   6.231   4.987
14674WAT     H144264   1.919   6.193   4.897
14674WAT     H244265   2.030   6.197   5.017
14675WAT      O44266   3.343   6.368   2.002
14675WAT     H144267   3.286   6.419   1.937
14675WAT     H244268   3.437   6.364   1.968
14676WAT      O44269   8.000   6.459   0.655
14676WAT     H144270   7.930   6.410   0.707
14676WAT     H244271   8.064   6.503   0.717
14677WAT      O44272   7.642   4.403   7.790
14677WAT     H144273   7.739   4.425   7.790
14677WAT     H244274   7.627   4.318   7.738
14678WAT      O44275   5.685   0.784   3.723
14678WAT     H144276   5.613   0.796   3.654
14678WAT     H244277   5.750   0.860   3.716
14679WAT      O44278   5.884   6.490   6.553
14679WAT     H144279   5.951   6.470   6.625
14679WAT     H244280   5.816   6.417   6.549
14680WAT      O44281   0.808   9.683   3.972
14680WAT     H144282   0.796   9.762   3.911
14680WAT     H244283   0.775   9.601   3.926
14681WAT      O44284   5.780   3.595   9.689
14681WAT     H144285   5.747   3.536   9.615
14681WAT     H244286   5.711   3.599   9.761
14682WAT      O44287   4.811   9.257   1.401
14682WAT     H144288   4.772   9.174   1.442
14682WAT     H244289   4.901   9.237   1.363
14683WAT      O44290   7.094   7.332   2.822
14683WAT     H144291   7.159   7.408   2.820
14683WAT     H244292   7.140   7.250   2.856
14684WAT      O44293   5.988   8.399   8.134
14684WAT     H144294   6.070   8.375   8.083
14684WAT     H244295   5.942   8.316   8.164
14685WAT      O44296   9.284   1.327   3.120
14685WAT     H144297   9.277   1.360   3.214
14685WAT     H244298   9.207   1.266   3.100
14686WAT      O44299   5.621   1.048   7.906
14686WAT     H144300   5.673   1.095   7.835
14686WAT     H244301   5.548   0.994   7.864
14687WAT      O44302   4.166   6.667   6.612
14687WAT     H144303   4.226   6.677   6.692
14687WAT     H244304   4.172   6.749   6.555
14688WAT      O44305   9.581   5.224   2.178
14688WAT     H144306   9.577   5.229   2.278
14688WAT     H244307   9.494   5.252   2.140
14689WAT      O44308   8.790   3.253   2.510
14689WAT     H144309   8.724   3.328   2.514
14689WAT     H244310   8.871   3.277   2.563
14690WAT      O44311   0.632   0.815   0.251
14690WAT     H144312   0.612   0.750   0.325
14690WAT     H244313   0.560   0.809   0.181
14691WAT      O44314   4.368   6.359   2.050
14691WAT     H144315   4.412   6.427   2.108
14691WAT     H244316   4.314   6.297   2.107
14692WAT      O44317   9.563   5.953   6.620
14692WAT     H144318   9.504   5.965   6.540
14692WAT     H244319   9.593   5.858   6.625
14693WAT      O44320   2.626   4.325   8.592
14693WAT     H144321   2.560   4.363   8.527
14693WAT     H244322   2.705   4.289   8.543
14694WAT      O44323   4.351   8.013   3.726
14694WAT     H144324   4.335   8.100   3.773
14694WAT     H244325   4.446   7.987   3.738
14695WAT      O44326   4.142   5.518   0.531
14695WAT     H144327   4.144   5.614   0.562
14695WAT     H244328   4.073   5.468   0.584
14696WAT      O44329   7.840   1.166   1.186
14696WAT     H144330   7.850   1.176   1.086
14696WAT     H244331   7.812   1.254   1.225
14697WAT      O44332   0.034   5.908   0.336
14697WAT     H144333  -0.030   5.945   0.404
14697WAT     H244334  -0.013   5.843   0.277
14698WAT      O44335   9.199   7.944   2.979
14698WAT     H144336   9.133   7.977   3.046
14698WAT     H244337   9.290   7.939   3.021
14699WAT      O44338   4.448   2.056   2.569
14699WAT     H144339   4.489   2.125   2.629
14699WAT     H244340   4.372   2.011   2.616
14700WAT      O44341   9.151   5.381   3.756
14700WAT     H144342   9.115   5.314   3.822
14700WAT     H244343   9.156   5.340   3.666
14701WAT      O44344   4.168   0.750   0.359
14701WAT     H144345   4.168   0.708   0.450
14701WAT     H244346   4.263   0.760   0.328
14702WAT      O44347   6.680   2.947   3.459
14702WAT     H144348   6.755   2.986   3.406
14702WAT     H244349   6.601   2.932   3.399
14703WAT      O44350   6.669   0.505   0.014
14703WAT     H144351   6.663   0.553  -0.073
14703WAT     H244352   6.738   0.433   0.008
14704WAT      O44353   7.948   9.509   4.740
14704WAT     H144354   7.865   9.457   4.761
14704WAT     H244355   7.999   9.462   4.668
14705WAT      O44356   7.723   6.509   7.405
14705WAT     H144357   7.632   6.535   7.437
14705WAT     H244358   7.719   6.418   7.364
14706WAT      O44359   0.654   7.155   3.359
14706WAT     H144360   0.634   7.149   3.457
14706WAT     H244361   0.656   7.063   3.320
14707WAT      O44362   8.273   9.566   2.523
14707WAT     H144363   8.354   9.576   2.466
14707WAT     H244364   8.196   9.538   2.466
14708WAT      O44365   6.716   6.916   0.573
14708WAT     H144366   6.752   6.933   0.664
14708WAT     H244367   6.649   6.987   0.550
14709WAT      O44368   3.989   7.132   4.787
14709WAT     H144369   3.949   7.069   4.719
14709WAT     H244370   3.993   7.086   4.876
14710WAT      O44371   8.415   8.577   1.660
14710WAT     H144372   8.360   8.559   1.578
14710WAT     H244373   8.512   8.577   1.636
14711WAT      O44374   7.239   3.963   9.797
14711WAT     H144375   7.193   3.975   9.709
14711WAT     H244376   7.200   4.027   9.863
14712WAT      O44377   7.129   1.993   5.444
14712WAT     H144378   7.216   2.041   5.437
14712WAT     H244379   7.090   2.007   5.535
14713WAT      O44380   3.569   6.195   1.658
14713WAT     H144381   3.615   6.219   1.573
14713WAT     H244382   3.538   6.278   1.704
14714WAT      O44383   1.213   0.229   7.530
14714WAT     H144384   1.300   0.279   7.539
14714WAT     H244385   1.230   0.131   7.536
14715WAT      O44386   2.182   1.141   2.119
14715WAT     H144387   2.275   1.162   2.151
14715WAT     H244388   2.133   1.090   2.190
14716WAT      O44389   2.545   0.308   1.531
14716WAT     H144390   2.559   0.316   1.432
14716WAT     H244391   2.583   0.221   1.563
14717WAT      O44392   0.797   4.308   7.612
14717WAT     H144393   0.707   4.264   7.616
14717WAT     H244394   0.857   4.268   7.682
14718WAT      O44395   2.215   9.622   4.580
14718WAT     H144396   2.194   9.678   4.660
14718WAT     H244397   2.295   9.566   4.599
14719WAT      O44398   9.103   1.734   5.433
14719WAT     H144399   9.174   1.665   5.451
14719WAT     H244400   9.133   1.823   5.467
14720WAT      O44401   3.500   9.347   7.682
14720WAT     H144402   3.441   9.267   7.694
14720WAT     H244403   3.517   9.361   7.584
14721WAT      O44404   8.634   1.296   4.836
14721WAT     H144405   8.702   1.273   4.905
14721WAT     H244406   8.578   1.216   4.816
14722WAT      O44407   4.506   3.901   8.333
14722WAT     H144408   4.587   3.951   8.304
14722WAT     H244409   4.450   3.879   8.253
14723WAT      O44410   0.407   8.476   6.024
14723WAT     H144411   0.391   8.575   6.024
14723WAT     H244412   0.463   8.451   6.102
14724WAT      O44413   4.414   0.773   6.181
14724WAT     H144414   4.324   0.771   6.225
14724WAT     H244415   4.436   0.867   6.156
14725WAT      O44416   1.700   6.502   4.310
14725WAT     H144417   1.789   6.496   4.263
14725WAT     H244418   1.650   6.582   4.276
14726WAT      O44419   6.047   7.249   0.148
14726WAT     H144420   6.076   7.256   0.053
14726WAT     H244421   5.959   7.294   0.160
14727WAT      O44422   5.036   0.262   0.776
14727WAT     H144423   4.998   0.309   0.856
14727WAT     H244424   5.079   0.328   0.715
14728WAT      O44425   1.631   0.679   0.969
14728WAT     H144426   1.706   0.715   1.024
14728WAT     H244427   1.568   0.628   1.028
14729WAT      O44428   5.286   7.629   4.698
14729WAT     H144429   5.350   7.608   4.625
14729WAT     H244430   5.336   7.657   4.780
14730WAT      O44431   9.244   2.213   0.275
14730WAT     H144432   9.281   2.123   0.300
14730WAT     H244433   9.226   2.215   0.177
14731WAT      O44434   8.350   8.113   8.417
14731WAT     H144435   8.414   8.185   8.388
14731WAT     H244436   8.277   8.105   8.350
14732WAT      O44437   1.264   8.397   9.370
14732WAT     H144438   1.255   8.305   9.334
14732WAT     H244439   1.361   8.421   9.378
14733WAT      O44440   8.348   8.919   3.495
14733WAT     H144441   8.421   8.986   3.481
14733WAT     H244442   8.322   8.879   3.407
14734WAT      O44443   2.479   3.049   1.898
14734WAT     H144444   2.534   2.968   1.920
14734WAT     H244445   2.537   3.130   1.898
14735WAT      O44446   3.968   7.707   3.982
14735WAT     H144447   3.918   7.651   4.049
14735WAT     H244448   3.923   7.796   3.973
14736WAT      O44449   8.993   2.908   0.556
14736WAT     H144450   8.995   2.837   0.627
14736WAT     H244451   9.003   2.998   0.599
14737WAT      O44452   9.573   0.127   2.139
14737WAT     H144453   9.612   0.211   2.101
14737WAT     H244454   9.499   0.095   2.081
14738WAT      O44455   5.251   9.283   0.077
14738WAT     H144456   5.175   9.301   0.139
14738WAT     H244457   5.226   9.211   0.013
14739WAT      O44458   0.897   7.725   1.337
14739WAT     H144459   0.984   7.729   1.386
14739WAT     H244460   0.832   7.671   1.390
14740WAT      O44461   9.689   1.681   3.375
14740WAT     H144462   9.747   1.696   3.455
14740WAT     H244463   9.641   1.766   3.352
14741WAT      O44464   5.011   4.777   4.983
14741WAT     H144465   5.028   4.875   4.984
14741WAT     H244466   5.043   4.739   4.896
14742WAT      O44467   2.948   6.595   2.117
14742WAT     H144468   3.038   6.619   2.154
14742WAT     H244469   2.897   6.542   2.185
14743WAT      O44470   4.710   3.663   2.376
14743WAT     H144471   4.711   3.697   2.282
14743WAT     H244472   4.671   3.571   2.378
14744WAT      O44473   7.311   8.071   7.519
14744WAT     H144474   7.228   8.022   7.495
14744WAT     H244475   7.314   8.158   7.469
14745WAT      O44476   9.057   0.171   5.164
14745WAT     H144477   8.973   0.134   5.124
14745WAT     H244478   9.110   0.218   5.094
14746WAT      O44479   2.651   7.008   8.463
14746WAT     H144480   2.605   6.988   8.376
14746WAT     H244481   2.725   6.943   8.478
14747WAT      O44482   0.458   1.865   4.968
14747WAT     H144483   0.381   1.927   4.955
14747WAT     H244484   0.429   1.786   5.023
14748WAT      O44485   7.851   4.808   0.814
14748WAT     H144486   7.828   4.745   0.889
14748WAT     H244487   7.822   4.768   0.727
14749WAT      O44488   2.157   7.053   5.460
14749WAT     H144489   2.093   7.059   5.384
14749WAT     H244490   2.241   7.007   5.429
14750WAT      O44491   1.544   2.812   3.521
14750WAT     H144492   1.489   2.890   3.491
14750WAT     H244493   1.487   2.731   3.527
14751WAT      O44494   1.173   8.144   2.297
14751WAT     H144495   1.250   8.091   2.332
14751WAT     H244496   1.115   8.173   2.374
14752WAT      O44497   8.909   5.334   1.518
14752WAT     H144498   8.928   5.291   1.430
14752WAT     H244499   8.909   5.265   1.590
14753WAT      O44500   5.151   5.520   7.178
14753WAT     H144501   5.182   5.557   7.090
14753WAT     H244502   5.068   5.467   7.164
14754WAT      O44503   7.548   7.062   9.585
14754WAT     H144504   7.527   7.100   9.676
14754WAT     H244505   7.464   7.031   9.542
14755WAT      O44506   4.632   8.907   0.806
14755WAT     H144507   4.706   8.973   0.817
14755WAT     H244508   4.645   8.855   0.722
14756WAT      O44509   3.416   6.888   1.833
14756WAT     H144510   3.486   6.869   1.763
14756WAT     H244511   3.343   6.943   1.792
14757WAT      O44512   7.319   2.028   4.826
14757WAT     H144513   7.331   2.106   4.887
14757WAT     H244514   7.334   1.943   4.878
14758WAT      O44515   6.831   0.270   6.594
14758WAT     H144516   6.919   0.313   6.615
14758WAT     H244517   6.844   0.203   6.521
14759WAT      O44518   1.065   6.861   4.621
14759WAT     H144519   1.128   6.919   4.570
14759WAT     H244520   1.071   6.883   4.718
14760WAT      O44521   4.061   3.506   0.975
14760WAT     H144522   4.133   3.460   0.923
14760WAT     H244523   3.973   3.467   0.951
14761WAT      O44524   0.921   9.020   3.857
14761WAT     H144525   0.990   9.063   3.916
14761WAT     H244526   0.965   8.952   3.798
14762WAT      O44527   6.812   5.125   7.070
14762WAT     H144528   6.780   5.198   7.010
14762WAT     H244529   6.876   5.067   7.019
14763WAT      O44530   3.539   4.221   1.772
14763WAT     H144531   3.486   4.208   1.857
14763WAT     H244532   3.564   4.317   1.763
14764WAT      O44533   6.199   9.319   0.447
14764WAT     H144534   6.266   9.379   0.492
14764WAT     H244535   6.247   9.242   0.405
14765WAT      O44536   8.716   5.859   5.342
14765WAT     H144537   8.651   5.785   5.360
14765WAT     H244538   8.777   5.832   5.268
14766WAT      O44539   8.723   4.583   1.805
14766WAT     H144540   8.666   4.659   1.838
14766WAT     H244541   8.774   4.613   1.725
14767WAT      O44542   5.561   3.803   3.999
14767WAT     H144543   5.486   3.853   3.957
14767WAT     H244544   5.540   3.705   3.998
14768WAT      O44545   1.394   6.786   8.204
14768WAT     H144546   1.346   6.722   8.264
14768WAT     H244547   1.431   6.862   8.258
14769WAT      O44548   3.388   5.709   4.580
14769WAT     H144549   3.376   5.708   4.481
14769WAT     H244550   3.437   5.792   4.607
14770WAT      O44551   1.083   9.478   4.469
14770WAT     H144552   0.986   9.490   4.493
14770WAT     H244553   1.102   9.381   4.454
14771WAT      O44554   5.701   1.175   5.738
14771WAT     H144555   5.707   1.084   5.697
14771WAT     H244556   5.789   1.198   5.780
14772WAT      O44557   8.580   0.676   1.682
14772WAT     H144558   8.483   0.670   1.704
14772WAT     H244559   8.594   0.658   1.584
14773WAT      O44560   5.666   6.777   2.118
14773WAT     H144561   5.648   6.685   2.083
14773WAT     H244562   5.596   6.802   2.185
14774WAT      O44563   6.433   3.917   3.924
14774WAT     H144564   6.437   3.980   3.846
14774WAT     H244565   6.519   3.867   3.931
14775WAT      O44566   6.002   4.037   9.876
14775WAT     H144567   5.948   3.961   9.840
14775WAT     H244568   6.096   4.030   9.841
14776WAT      O44569   2.458   7.826   0.784
14776WAT     H144570   2.358   7.828   0.782
14776WAT     H244571   2.494   7.912   0.749
14777WAT      O44572   4.614   0.565   3.480
14777WAT     H144573   4.544   0.534   3.416
14777WAT     H244574   4.572   0.586   3.568
14778WAT      O44575   5.575   6.676   4.891
14778WAT     H144576   5.652   6.626   4.931
14778WAT     H244577   5.609   6.754   4.840
14779WAT      O44578   4.552   0.113   6.958
14779WAT     H144579   4.618   0.155   7.021
14779WAT     H244580   4.473   0.080   7.009
14780WAT      O44581   6.592   6.610   1.728
14780WAT     H144582   6.632   6.540   1.669
14780WAT     H244583   6.545   6.678   1.673
14781WAT      O44584   4.540   8.085   4.599
14781WAT     H144585   4.595   8.096   4.517
14781WAT     H244586   4.512   8.175   4.633
14782WAT      O44587   4.552   8.623   7.793
14782WAT     H144588   4.594   8.549   7.847
14782WAT     H244589   4.457   8.598   7.771
14783WAT      O44590   3.245   6.807   1.231
14783WAT     H144591   3.267   6.904   1.244
14783WAT     H244592   3.164   6.799   1.173
14784WAT      O44593   1.269   6.861   0.966
14784WAT     H144594   1.184   6.908   0.993
14784WAT     H244595   1.260   6.763   0.984
14785WAT      O44596   5.867   8.606   8.015
14785WAT     H144597   5.770   8.585   8.028
14785WAT     H244598   5.923   8.528   8.045
14786WAT      O44599   2.898   8.551   9.154
14786WAT     H144600   2.989   8.575   9.120
14786WAT     H244601   2.872   8.461   9.119
14787WAT      O44602   4.749   4.872   5.185
14787WAT     H144603   4.795   4.784   5.178
14787WAT     H244604   4.725   4.905   5.094
14788WAT      O44605   9.792   2.301   8.962
14788WAT     H144606   9.795   2.298   8.862
14788WAT     H244607   9.877   2.340   8.996
14789WAT      O44608   6.937   8.691   3.628
14789WAT     H144609   7.030   8.699   3.662
14789WAT     H244610   6.922   8.759   3.556
14790WAT      O44611   1.444   9.502   5.744
14790WAT     H144612   1.529   9.469   5.785
14790WAT     H244613   1.463   9.537   5.652
14791WAT      O44614   4.708   9.187   4.583
14791WAT     H144615   4.628   9.245   4.567
14791WAT     H244616   4.764   9.227   4.656
14792WAT      O44617   1.915   1.684   7.011
14792WAT     H144618   1.839   1.677   7.075
14792WAT     H244619   1.976   1.605   7.021
14793WAT      O44620   5.465   8.096   3.302
14793WAT     H144621   5.398   8.062   3.236
14793WAT     H244622   5.426   8.173   3.352
14794WAT      O44623   0.489   7.648   0.288
14794WAT     H144624   0.404   7.596   0.277
14794WAT     H244625   0.567   7.591   0.263
14795WAT      O44626   9.722   7.023   4.086
14795WAT     H144627   9.756   7.001   3.995
14795WAT     H244628   9.676   6.942   4.124
14796WAT      O44629   6.952   8.654   0.483
14796WAT     H144630   7.050   8.648   0.464
14796WAT     H244631   6.902   8.591   0.423
14797WAT      O44632   6.806   0.561   7.567
14797WAT     H144633   6.710   0.585   7.553
14797WAT     H244634   6.863   0.613   7.503
14798WAT      O44635   4.345   0.714   7.868
14798WAT     H144636   4.285   0.790   7.842
14798WAT     H244637   4.291   0.631   7.878
14799WAT      O44638   8.091   1.614   3.861
14799WAT     H144639   8.172   1.668   3.881
14799WAT     H244640   8.020   1.672   3.821
14800WAT      O44641   1.016   9.379   2.483
14800WAT     H144642   1.094   9.324   2.512
14800WAT     H244643   1.049   9.453   2.423
14801WAT      O44644   4.925   4.615   8.720
14801WAT     H144645   4.984   4.535   8.731
14801WAT     H244646   4.881   4.637   8.807
14802WAT      O44647   0.655   6.573   1.288
14802WAT     H144648   0.710   6.563   1.205
14802WAT     H244649   0.589   6.646   1.276
14803WAT      O44650   9.844   9.278   8.146
14803WAT     H144651   9.879   9.244   8.058
14803WAT     H244652   9.895   9.361   8.171
14804WAT      O44653   7.073   6.892   9.484
14804WAT     H144654   7.047   6.913   9.389
14804WAT     H244655   6.992   6.898   9.542
14805WAT      O44656   2.048   0.847   9.456
14805WAT     H144657   2.138   0.866   9.496
14805WAT     H244658   2.057   0.778   9.385
14806WAT      O44659   8.661   6.446   0.760
14806WAT     H144660   8.703   6.534   0.741
14806WAT     H244661   8.580   6.434   0.702
14807WAT      O44662   4.978   8.935   7.077
14807WAT     H144663   5.037   8.928   7.158
14807WAT     H244664   4.885   8.905   7.101
14808WAT      O44665   7.085   4.970   0.323
14808WAT     H144666   7.146   4.982   0.244
14808WAT     H244667   7.039   5.057   0.342
14809WAT      O44668   8.936   1.478   6.672
14809WAT     H144669   8.893   1.389   6.655
14809WAT     H244670   9.025   1.482   6.625
14810WAT      O44671   9.599   3.409   9.561
14810WAT     H144672   9.603   3.313   9.535
14810WAT     H244673   9.620   3.418   9.659
14811WAT      O44674   2.571   6.099   7.913
14811WAT     H144675   2.635   6.067   7.983
14811WAT     H244676   2.494   6.144   7.957
14812WAT      O44677   2.071   1.341   3.032
14812WAT     H144678   2.065   1.242   3.019
14812WAT     H244679   1.985   1.375   3.069
14813WAT      O44680   9.183   4.119   2.995
14813WAT     H144681   9.118   4.192   3.017
14813WAT     H244682   9.263   4.128   3.054
14814WAT      O44683   5.620   9.715   1.305
14814WAT     H144684   5.654   9.796   1.257
14814WAT     H244685   5.689   9.685   1.371
14815WAT      O44686   4.233   1.647   8.063
14815WAT     H144687   4.322   1.692   8.065
14815WAT     H244688   4.173   1.687   8.133
14816WAT      O44689   7.535   2.985   0.813
14816WAT     H144690   7.629   2.970   0.841
14816WAT     H244691   7.509   3.080   0.832
14817WAT      O44692   6.118   5.251   3.413
14817WAT     H144693   6.111   5.342   3.371
14817WAT     H244694   6.212   5.236   3.442
14818WAT      O44695   7.316   3.107   6.092
14818WAT     H144696   7.221   3.124   6.065
14818WAT     H244697   7.377   3.158   6.032
14819WAT      O44698   3.161   6.816   2.813
14819WAT     H144699   3.115   6.900   2.843
14819WAT     H244700   3.260   6.828   2.821
14820WAT      O44701   1.535   8.232   5.872
14820WAT     H144702   1.630   8.213   5.897
14820WAT     H244703   1.487   8.271   5.951
14821WAT      O44704   3.060   6.626   9.148
14821WAT     H144705   2.991   6.651   9.216
14821WAT     H244706   3.072   6.701   9.083
14822WAT      O44707   2.827   8.330   5.626
14822WAT     H144708   2.748   8.357   5.571
14822WAT     H244709   2.877   8.257   5.579
14823WAT      O44710   8.487   3.511   6.601
14823WAT     H144711   8.471   3.604   6.570
14823WAT     H244712   8.413   3.451   6.569
14824WAT      O44713   4.596   5.593   8.105
14824WAT     H144714   4.608   5.580   8.007
14824WAT     H244715   4.499   5.593   8.127
14825WAT      O44716   0.290   5.903   0.679
14825WAT     H144717   0.305   5.843   0.600
14825WAT     H244718   0.266   5.994   0.647
14826WAT      O44719   7.602   6.933   6.465
14826WAT     H144720   7.660   6.884   6.400
14826WAT     H244721   7.510   6.943   6.427
14827WAT      O44722   0.799   5.916   7.680
14827WAT     H144723   0.811   5.871   7.769
14827WAT     H244724   0.712   5.966   7.679
14828WAT      O44725   7.267   5.380   4.911
14828WAT     H144726   7.303   5.467   4.944
14828WAT     H244727   7.172   5.370   4.940
14829WAT      O44728   4.924   2.102   9.170
14829WAT     H144729   4.978   2.181   9.141
14829WAT     H244730   4.929   2.031   9.099
14830WAT      O44731   0.638   6.700   8.330
14830WAT     H144732   0.633   6.787   8.379
14830WAT     H244733   0.590   6.630   8.384
14831WAT      O44734   8.394   3.450   1.118
14831WAT     H144735   8.400   3.502   1.204
14831WAT     H244736   8.461   3.486   1.053
14832WAT      O44737   8.922   1.149   6.560
14832WAT     H144738   9.016   1.115   6.547
14832WAT     H244739   8.910   1.233   6.508
14833WAT      O44740   3.810   2.396   6.358
14833WAT     H144741   3.782   2.386   6.454
14833WAT     H244742   3.825   2.305   6.318
14834WAT      O44743   0.437   8.594   3.779
14834WAT     H144744   0.529   8.586   3.740
14834WAT     H244745   0.393   8.504   3.777
14835WAT      O44746   9.806   1.276   3.265
14835WAT     H144747   9.768   1.251   3.354
14835WAT     H244748   9.878   1.211   3.240
14836WAT      O44749   5.978   8.867   2.324
14836WAT     H144750   5.918   8.914   2.260
14836WAT     H244751   5.923   8.818   2.392
14837WAT      O44752   7.146   2.691   2.274
14837WAT     H144753   7.055   2.699   2.314
14837WAT     H244754   7.168   2.594   2.262
14838WAT      O44755   0.130   1.888   8.017
14838WAT     H144756   0.073   1.806   8.016
14838WAT     H244757   0.204   1.875   8.083
14839WAT      O44758   8.094   9.085   7.146
14839WAT     H144759   8.000   9.060   7.169
14839WAT     H244760   8.141   9.120   7.227
14840WAT      O44761   7.708   2.873   1.445
14840WAT     H144762   7.727   2.801   1.378
14840WAT     H244763   7.622   2.918   1.421
14841WAT      O44764   7.339   2.496   3.004
14841WAT     H144765   7.335   2.439   2.921
14841WAT     H244766   7.382   2.583   2.982
14842WAT      O44767   7.419   3.161   6.693
14842WAT     H144768   7.361   3.241   6.711
14842WAT     H244769   7.399   3.126   6.602
14843WAT      O44770   5.355   8.971   8.438
14843WAT     H144771   5.372   8.885   8.389
14843WAT     H244772   5.278   9.018   8.396
14844WAT      O44773   6.196   7.503   4.269
14844WAT     H144774   6.128   7.440   4.308
14844WAT     H244775   6.217   7.575   4.334
14845WAT      O44776   0.602   8.643   6.489
14845WAT     H144777   0.601   8.652   6.588
14845WAT     H244778   0.642   8.555   6.463
14846WAT      O44779   8.463   2.156   0.747
14846WAT     H144780   8.427   2.087   0.685
14846WAT     H244781   8.557   2.134   0.771
14847WAT      O44782   1.813   1.838   5.914
14847WAT     H144783   1.850   1.746   5.905
14847WAT     H244784   1.843   1.879   6.000
14848WAT      O44785   1.932   0.449   2.261
14848WAT     H144786   1.835   0.428   2.258
14848WAT     H244787   1.944   0.547   2.276
14849WAT      O44788   1.617   8.463   2.194
14849WAT     H144789   1.613   8.505   2.284
14849WAT     H244790   1.688   8.392   2.194
14850WAT      O44791   4.968   1.567   7.184
14850WAT     H144792   4.951   1.504   7.108
14850WAT     H244793   4.883   1.578   7.237
14851WAT      O44794   9.878   0.772   8.201
14851WAT     H144795   9.875   0.856   8.146
14851WAT     H244796   9.807   0.775   8.271
14852WAT      O44797   1.432   5.781   5.897
14852WAT     H144798   1.370   5.720   5.946
14852WAT     H244799   1.511   5.729   5.864
14853WAT      O44800   1.043   7.942   2.180
14853WAT     H144801   1.011   7.884   2.255
14853WAT     H244802   1.073   8.030   2.216
14854WAT      O44803   9.203   8.975   2.771
14854WAT     H144804   9.168   8.991   2.678
14854WAT     H244805   9.135   9.004   2.838
14855WAT      O44806   9.463   7.191   9.050
14855WAT     H144807   9.468   7.269   8.988
14855WAT     H244808   9.489   7.219   9.142
14856WAT      O44809   2.342   3.764   5.832
14856WAT     H144810   2.352   3.669   5.863
14856WAT     H244811   2.369   3.770   5.736
14857WAT      O44812   6.310   9.830   9.387
14857WAT     H144813   6.240   9.855   9.455
14857WAT     H244814   6.291   9.878   9.301
14858WAT      O44815   0.444   5.075   7.492
14858WAT     H144816   0.360   5.031   7.461
14858WAT     H244817   0.518   5.058   7.427
14859WAT      O44818   2.608   7.096   6.852
14859WAT     H144819   2.705   7.104   6.876
14859WAT     H244820   2.567   7.187   6.848
14860WAT      O44821   7.454   4.583   1.234
14860WAT     H144822   7.420   4.558   1.144
14860WAT     H244823   7.376   4.600   1.295
14861WAT      O44824   6.557   5.166   4.209
14861WAT     H144825   6.527   5.073   4.230
14861WAT     H244826   6.493   5.207   4.144
14862WAT      O44827   1.955   6.833   8.705
14862WAT     H144828   2.016   6.809   8.780
14862WAT     H244829   2.009   6.850   8.622
14863WAT      O44830   8.120   6.195   5.138
14863WAT     H144831   8.059   6.257   5.088
14863WAT     H244832   8.106   6.207   5.236
14864WAT      O44833   2.059   6.217   5.486
14864WAT     H144834   2.026   6.303   5.448
14864WAT     H244835   1.988   6.176   5.543
14865WAT      O44836   7.885   7.543   0.210
14865WAT     H144837   7.919   7.619   0.267
14865WAT     H244838   7.937   7.460   0.231
14866WAT      O44839   8.986   4.490   7.202
14866WAT     H144840   9.047   4.549   7.149
14866WAT     H244841   8.964   4.536   7.289
14867WAT      O44842   3.222   0.368   6.595
14867WAT     H144843   3.316   0.343   6.572
14867WAT     H244844   3.166   0.369   6.511
14868WAT      O44845   3.584   8.528   2.689
14868WAT     H144846   3.501   8.474   2.672
14868WAT     H244847   3.596   8.540   2.788
14869WAT      O44848   9.286   6.453   4.668
14869WAT     H144849   9.224   6.400   4.725
14869WAT     H244850   9.325   6.394   4.597
14870WAT      O44851   5.185   8.917   8.631
14870WAT     H144852   5.260   8.934   8.568
14870WAT     H244853   5.166   9.000   8.683
14871WAT      O44854   1.899   6.971   9.545
14871WAT     H144855   1.915   7.018   9.632
14871WAT     H244856   1.902   7.037   9.471
14872WAT      O44857   2.450   5.951   6.143
14872WAT     H144858   2.367   5.923   6.191
14872WAT     H244859   2.447   6.050   6.127
14873WAT      O44860   0.328   0.633   7.488
14873WAT     H144861   0.409   0.692   7.497
14873WAT     H244862   0.341   0.569   7.412
14874WAT      O44863   3.225   3.441   7.734
14874WAT     H144864   3.242   3.463   7.830
14874WAT     H244865   3.271   3.508   7.676
14875WAT      O44866   9.823   3.965   1.260
14875WAT     H144867   9.791   4.049   1.306
14875WAT     H244868   9.870   3.907   1.327
14876WAT      O44869   9.266   0.696   5.328
14876WAT     H144870   9.204   0.618   5.337
14876WAT     H244871   9.337   0.675   5.261
14877WAT      O44872   8.770   8.152   3.035
14877WAT     H144873   8.833   8.209   2.981
14877WAT     H244874   8.701   8.211   3.078
14878WAT      O44875   9.846   1.418   9.013
14878WAT     H144876   9.784   1.388   8.940
14878WAT     H244877   9.940   1.397   8.986
14879WAT      O44878   9.573   5.257   1.162
14879WAT     H144879   9.512   5.243   1.240
14879WAT     H244880   9.596   5.354   1.154
14880WAT      O44881   2.422   6.390   5.799
14880WAT     H144882   2.417   6.320   5.727
14880WAT     H244883   2.359   6.366   5.873
14881WAT      O44884   6.302   1.013   3.018
14881WAT     H144885   6.325   1.050   2.928
14881WAT     H244886   6.290   0.914   3.011
14882WAT      O44887   9.698   0.215   1.048
14882WAT     H144888   9.767   0.142   1.040
14882WAT     H244889   9.704   0.256   1.139
14883WAT      O44890   0.249   6.926   7.308
14883WAT     H144891   0.334   6.977   7.298
14883WAT     H244892   0.174   6.977   7.264
14884WAT      O44893   0.161   7.978   7.238
14884WAT     H144894   0.185   8.061   7.187
14884WAT     H244895   0.065   7.982   7.265
14885WAT      O44896   5.519   1.656   3.921
14885WAT     H144897   5.492   1.705   4.004
14885WAT     H244898   5.552   1.722   3.853
14886WAT      O44899   4.389   7.734   3.892
14886WAT     H144900   4.301   7.707   3.929
14886WAT     H244901   4.385   7.734   3.792
14887WAT      O44902   4.578   0.124   1.037
14887WAT     H144903   4.521   0.134   1.119
14887WAT     H244904   4.666   0.083   1.062
14888WAT      O44905   2.068   0.855   0.228
14888WAT     H144906   2.033   0.925   0.291
14888WAT     H244907   2.021   0.768   0.246
14889WAT      O44908   6.565   1.581   8.044
14889WAT     H144909   6.564   1.506   7.979
14889WAT     H244910   6.657   1.622   8.047
14890WAT      O44911   8.444   6.717   8.190
14890WAT     H144912   8.502   6.790   8.154
14890WAT     H244913   8.355   6.720   8.145
14891WAT      O44914   8.458   6.348   3.837
14891WAT     H144915   8.387   6.362   3.906
14891WAT     H244916   8.477   6.251   3.827
14892WAT      O44917   0.074   5.074   6.425
14892WAT     H144918   0.054   5.033   6.514
14892WAT     H244919   0.123   5.161   6.440
14893WAT      O44920   1.936   8.500   0.950
14893WAT     H144921   1.960   8.407   0.922
14893WAT     H244922   1.902   8.499   1.044
14894WAT      O44923   3.436   1.348   1.573
14894WAT     H144924   3.343   1.318   1.551
14894WAT     H244925   3.447   1.350   1.672
14895WAT      O44926   3.527   4.546   6.842
14895WAT     H144927   3.534   4.617   6.912
14895WAT     H244928   3.434   4.544   6.805
14896WAT      O44929   9.638   7.904   8.096
14896WAT     H144930   9.551   7.946   8.123
14896WAT     H244931   9.706   7.920   8.168
14897WAT      O44932   1.614   0.760   4.743
14897WAT     H144933   1.618   0.722   4.651
14897WAT     H244934   1.618   0.860   4.738
14898WAT      O44935   3.725   3.750   8.836
14898WAT     H144936   3.690   3.815   8.769
14898WAT     H244937   3.817   3.777   8.864
14899WAT      O44938   9.467   1.141   0.120
14899WAT     H144939   9.468   1.048   0.083
14899WAT     H244940   9.552   1.188   0.095
14900WAT      O44941   6.398   8.243   7.518
14900WAT     H144942   6.432   8.237   7.612
14900WAT     H244943   6.301   8.268   7.520
14901WAT      O44944   1.280   1.985   1.866
14901WAT     H144945   1.360   2.004   1.922
14901WAT     H244946   1.285   2.039   1.782
14902WAT      O44947   6.147   3.673   8.344
14902WAT     H144948   6.054   3.639   8.329
14902WAT     H244949   6.150   3.772   8.326
14903WAT      O44950   8.586   2.814   9.376
14903WAT     H144951   8.522   2.885   9.346
14903WAT     H244952   8.662   2.808   9.312
14904WAT      O44953   2.954   6.494   6.423
14904WAT     H144954   2.971   6.531   6.332
14904WAT     H244955   3.041   6.470   6.467
14905WAT      O44956   4.330   7.282   0.484
14905WAT     H144957   4.415   7.296   0.535
14905WAT     H244958   4.305   7.186   0.485
14906WAT      O44959   4.765   9.359   7.190
14906WAT     H144960   4.839   9.321   7.246
14906WAT     H244961   4.750   9.301   7.111
14907WAT      O44962   3.734   8.093   0.641
14907WAT     H144963   3.800   8.040   0.694
14907WAT     H244964   3.668   8.136   0.703
14908WAT      O44965   7.511   6.613   6.398
14908WAT     H144966   7.466   6.543   6.343
14908WAT     H244967   7.505   6.701   6.351
14909WAT      O44968   5.919   9.376   9.597
14909WAT     H144969   5.961   9.287   9.619
14909WAT     H244970   5.986   9.449   9.611
14910WAT      O44971   2.876   8.953   2.365
14910WAT     H144972   2.829   8.950   2.277
14910WAT     H244973   2.817   8.999   2.432
14911WAT      O44974   3.462   5.789   0.453
14911WAT     H144975   3.525   5.847   0.505
14911WAT     H244976   3.513   5.733   0.388
14912WAT      O44977   4.052   4.561   8.689
14912WAT     H144978   4.095   4.548   8.778
14912WAT     H244979   4.121   4.548   8.617
14913WAT      O44980   9.528   6.370   1.662
14913WAT     H144981   9.585   6.328   1.592
14913WAT     H244982   9.462   6.432   1.619
14914WAT      O44983   2.884   5.614   5.908
14914WAT     H144984   2.941   5.594   5.828
14914WAT     H244985   2.894   5.541   5.975
14915WAT      O44986   2.187   2.142   4.305
14915WAT     H144987   2.261   2.116   4.366
14915WAT     H244988   2.103   2.154   4.357
14916WAT      O44989   6.664   3.521   8.873
14916WAT     H144990   6.602   3.445   8.891
14916WAT     H244991   6.742   3.488   8.819
14917WAT      O44992   8.018   2.955   5.962
14917WAT     H144993   7.998   2.857   5.954
14917WAT     H244994   7.964   3.006   5.896
14918WAT      O44995   9.461   1.406   8.465
14918WAT     H144996   9.385   1.464   8.435
14918WAT     H244997   9.512   1.453   8.537
14919WAT      O44998   1.431   5.665   0.103
14919WAT     H144999   1.384   5.746   0.068
14919WAT     H245000   1.365   5.605   0.149
14920WAT      O45001   5.511   8.595   5.951
14920WAT     H145002   5.573   8.673   5.952
14920WAT     H245003   5.480   8.578   5.858
14921WAT      O45004   1.623   8.492   2.843
14921WAT     H145005   1.686   8.415   2.832
14921WAT     H245006   1.655   8.569   2.788
14922WAT      O45007   0.720   1.061   2.595
14922WAT     H145008   0.634   1.020   2.625
14922WAT     H245009   0.710   1.096   2.502
14923WAT      O45010   5.651   1.188   1.721
14923WAT     H145011   5.705   1.138   1.653
14923WAT     H245012   5.588   1.249   1.674
14924WAT      O45013   3.232   4.088   1.532
14924WAT     H145014   3.216   4.184   1.556
14924WAT     H245015   3.328   4.066   1.545
14925WAT      O45016   9.666   0.508   4.600
14925WAT     H145017   9.662   0.408   4.608
14925WAT     H245018   9.693   0.533   4.507
14926WAT      O45019   8.218   8.327   2.602
14926WAT     H145020   8.201   8.274   2.685
14926WAT     H245021   8.135   8.374   2.574
14927WAT      O45022   4.323   9.020   8.306
14927WAT     H145023   4.370   9.053   8.224
14927WAT     H245024   4.318   8.921   8.303
14928WAT      O45025   7.102   1.245   1.627
14928WAT     H145026   7.159   1.170   1.662
14928WAT     H245027   7.049   1.285   1.702
14929WAT      O45028   5.492   4.862   8.074
14929WAT     H145029   5.532   4.907   7.995
14929WAT     H245030   5.440   4.928   8.129
14930WAT      O45031   0.851   0.492   0.390
14930WAT     H145032   0.951   0.487   0.400
14930WAT     H245033   0.807   0.441   0.463
14931WAT      O45034   7.184   3.853   8.421
14931WAT     H145035   7.142   3.927   8.473
14931WAT     H245036   7.278   3.839   8.452
14932WAT      O45037   9.157   4.083   8.933
14932WAT     H145038   9.095   4.161   8.922
14932WAT     H245039   9.104   3.999   8.935
14933WAT      O45040   0.603   6.486   5.228
14933WAT     H145041   0.540   6.551   5.185
14933WAT     H245042   0.687   6.479   5.174
14934WAT      O45043   8.038   1.577   8.817
14934WAT     H145044   8.074   1.583   8.910
14934WAT     H245045   8.106   1.609   8.752
14935WAT      O45046   7.449   5.307   7.288
14935WAT     H145047   7.424   5.403   7.302
14935WAT     H245048   7.442   5.285   7.191
14936WAT      O45049   2.414   8.184   0.081
14936WAT     H145050   2.382   8.167   0.174
14936WAT     H245051   2.433   8.281   0.069
14937WAT      O45052   2.675   4.822   0.244
14937WAT     H145053   2.673   4.921   0.241
14937WAT     H245054   2.622   4.789   0.323
14938WAT      O45055   7.165   6.123   8.091
14938WAT     H145056   7.135   6.103   8.184
14938WAT     H245057   7.229   6.200   8.091
14939WAT      O45058   8.525   8.953   5.068
14939WAT     H145059   8.502   8.858   5.086
14939WAT     H245060   8.450   8.997   5.018
14940WAT      O45061   1.814   3.921   5.520
14940WAT     H145062   1.785   4.010   5.486
14940WAT     H245063   1.857   3.869   5.445
14941WAT      O45064   6.031   9.116   3.003
14941WAT     H145065   6.130   9.129   2.995
14941WAT     H245066   6.006   9.026   2.967
14942WAT      O45067   4.802   0.717   3.797
14942WAT     H145068   4.793   0.710   3.897
14942WAT     H245069   4.899   0.709   3.772
14943WAT      O45070   6.606   8.226   8.825
14943WAT     H145071   6.566   8.303   8.776
14943WAT     H245072   6.682   8.188   8.772
14944WAT      O45073   7.131   5.461   0.473
14944WAT     H145074   7.056   5.521   0.503
14944WAT     H245075   7.177   5.424   0.553
14945WAT      O45076   7.298   1.618   0.534
14945WAT     H145077   7.376   1.636   0.594
14945WAT     H245078   7.255   1.531   0.561
14946WAT      O45079   7.508   2.838   9.648
14946WAT     H145080   7.595   2.799   9.677
14946WAT     H245081   7.524   2.913   9.584
14947WAT      O45082   4.044   1.880   6.512
14947WAT     H145083   4.062   1.782   6.499
14947WAT     H245084   4.124   1.923   6.554
14948WAT      O45085   8.939   4.819   3.846
14948WAT     H145086   8.909   4.752   3.779
14948WAT     H245087   9.032   4.850   3.825
14949WAT      O45088   0.334   4.628   8.300
14949WAT     H145089   0.257   4.689   8.282
14949WAT     H245090   0.374   4.598   8.213
14950WAT      O45091   7.014   3.706   4.152
14950WAT     H145092   6.968   3.734   4.067
14950WAT     H245093   7.016   3.783   4.215
14951WAT      O45094   8.013   0.130   7.595
14951WAT     H145095   8.076   0.054   7.608
14951WAT     H245096   8.024   0.196   7.670
14952WAT      O45097   7.167   1.462   5.296
14952WAT     H145098   7.119   1.507   5.371
14952WAT     H245099   7.101   1.434   5.226
14953WAT      O45100   3.829   6.943   5.469
14953WAT     H145101   3.843   7.038   5.441
14953WAT     H245102   3.752   6.938   5.531
14954WAT      O45103   2.934   0.100   7.737
14954WAT     H145104   2.953   0.193   7.768
14954WAT     H245105   2.837   0.090   7.718
14955WAT      O45106   7.010   9.451   6.373
14955WAT     H145107   6.919   9.419   6.345
14955WAT     H245108   7.055   9.380   6.427
14956WAT      O45109   8.708   2.677   0.515
14956WAT     H145110   8.753   2.671   0.604
14956WAT     H245111   8.663   2.590   0.494
14957WAT      O45112   2.088   6.260   3.598
14957WAT     H145113   2.136   6.187   3.647
14957WAT     H245114   2.039   6.220   3.520
14958WAT      O45115   5.017   5.196   7.865
14958WAT     H145116   4.940   5.238   7.913
14958WAT     H245117   5.085   5.164   7.931
14959WAT      O45118   1.011   0.899   1.335
14959WAT     H145119   0.984   0.806   1.307
14959WAT     H245120   0.985   0.913   1.430
14960WAT      O45121   9.530   2.511   5.672
14960WAT     H145122   9.608   2.460   5.637
14960WAT     H245123   9.478   2.454   5.736
14961WAT      O45124   9.689   1.207   5.862
14961WAT     H145125   9.609   1.264   5.882
14961WAT     H245126   9.772   1.255   5.892
14962WAT      O45127   6.392   5.180   3.498
14962WAT     H145128   6.437   5.223   3.576
14962WAT     H245129   6.393   5.081   3.508
14963WAT      O45130   9.123   7.393   9.710
14963WAT     H145131   9.046   7.439   9.666
14963WAT     H245132   9.206   7.449   9.701
14964WAT      O45133   2.749   6.806   6.737
14964WAT     H145134   2.758   6.815   6.836
14964WAT     H245135   2.710   6.717   6.714
14965WAT      O45136   5.369   6.482   0.676
14965WAT     H145137   5.464   6.510   0.674
14965WAT     H245138   5.336   6.467   0.583
14966WAT      O45139   2.607   4.091   8.731
14966WAT     H145140   2.571   4.093   8.824
14966WAT     H245141   2.626   4.184   8.701
14967WAT      O45142   0.595   8.129   6.869
14967WAT     H145143   0.541   8.197   6.820
14967WAT     H245144   0.692   8.141   6.847
14968WAT      O45145   8.643   4.999   6.923
14968WAT     H145146   8.579   5.056   6.975
14968WAT     H245147   8.731   5.046   6.916
14969WAT      O45148   8.850   4.100   4.086
14969WAT     H145149   8.776   4.154   4.128
14969WAT     H245150   8.811   4.038   4.019
14970WAT      O45151   6.255   3.247   3.363
14970WAT     H145152   6.280   3.343   3.351
14970WAT     H245153   6.332   3.197   3.404
14971WAT      O45154   8.510   4.602   6.359
14971WAT     H145155   8.434   4.548   6.323
14971WAT     H245156   8.474   4.677   6.414
14972WAT      O45157   7.654   3.240   3.372
14972WAT     H145158   7.626   3.323   3.421
14972WAT     H245159   7.592   3.165   3.397
14973WAT      O45160   1.742   9.073   2.041
14973WAT     H145161   1.728   9.119   2.129
14973WAT     H245162   1.664   9.092   1.981
14974WAT      O45163   4.035   7.970   8.136
14974WAT     H145164   3.948   7.923   8.139
14974WAT     H245165   4.109   7.905   8.154
14975WAT      O45166   0.200   1.290   0.136
14975WAT     H145167   0.195   1.223   0.211
14975WAT     H245168   0.124   1.354   0.145
14976WAT      O45169   6.708   6.710   0.173
14976WAT     H145170   6.748   6.718   0.265
14976WAT     H245171   6.639   6.781   0.161
14977WAT      O45172   0.020   0.377   7.653
14977WAT     H145173  -0.054   0.441   7.674
14977WAT     H245174   0.007   0.339   7.561
14978WAT      O45175   0.280   6.498   8.672
14978WAT     H145176   0.231   6.417   8.640
14978WAT     H245177   0.221   6.551   8.733
14979WAT      O45178   4.773   4.620   0.439
14979WAT     H145179   4.825   4.645   0.520
14979WAT     H245180   4.748   4.703   0.389
14980WAT      O45181   0.519   6.600   8.942
14980WAT     H145182   0.588   6.586   8.872
14980WAT     H245183   0.428   6.590   8.902
14981WAT      O45184   6.795   5.756   0.711
14981WAT     H145185   6.869   5.781   0.773
14981WAT     H245186   6.767   5.662   0.728
14982WAT      O45187   1.547   3.607   2.283
14982WAT     H145188   1.560   3.558   2.197
14982WAT     H245189   1.636   3.626   2.325
14983WAT      O45190   8.064   6.063   6.526
14983WAT     H145191   8.068   5.976   6.477
14983WAT     H245192   7.988   6.061   6.591
14984WAT      O45193   5.333   3.922   1.511
14984WAT     H145194   5.411   3.879   1.466
14984WAT     H245195   5.343   3.914   1.610
14985WAT      O45196   9.387   6.853   5.092
14985WAT     H145197   9.387   6.753   5.092
14985WAT     H245198   9.439   6.886   5.013
14986WAT      O45199   0.041   5.691   7.773
14986WAT     H145200   0.022   5.687   7.674
14986WAT     H245201  -0.028   5.638   7.822
14987WAT      O45202   2.417   1.562   8.537
14987WAT     H145203   2.372   1.619   8.605
14987WAT     H245204   2.378   1.469   8.540
14988WAT      O45205   3.028   9.393   0.899
14988WAT     H145206   3.125   9.392   0.874
14988WAT     H245207   2.978   9.329   0.842
14989WAT      O45208   0.256   4.252   5.081
14989WAT     H145209   0.339   4.196   5.083
14989WAT     H245210   0.216   4.255   5.172
14990WAT      O45211   7.996   5.609   7.734
14990WAT     H145212   7.957   5.683   7.789
14990WAT     H245213   8.012   5.643   7.641
14991WAT      O45214   8.660   8.214   6.830
14991WAT     H145215   8.592   8.253   6.767
14991WAT     H245216   8.710   8.141   6.784
14992WAT      O45217   9.386   4.915   4.940
14992WAT     H145218   9.342   4.826   4.955
14992WAT     H245219   9.485   4.904   4.940
14993WAT      O45220   8.416   8.416   0.944
14993WAT     H145221   8.488   8.398   0.877
14993WAT     H245222   8.404   8.336   1.003
14994WAT      O45223   3.332   8.083   0.124
14994WAT     H145224   3.427   8.075   0.093
14994WAT     H245225   3.330   8.112   0.219
14995WAT      O45226   3.449   4.889   7.445
14995WAT     H145227   3.544   4.864   7.427
14995WAT     H245228   3.439   4.917   7.540
14996WAT      O45229   9.480   3.899   7.501
14996WAT     H145230   9.456   3.850   7.585
14996WAT     H245231   9.536   3.979   7.524
14997WAT      O45232   1.278   1.659   6.546
14997WAT     H145233   1.291   1.751   6.508
14997WAT     H245234   1.326   1.593   6.489
14998WAT      O45235   8.549   5.358   8.330
14998WAT     H145236   8.450   5.372   8.331
14998WAT     H245237   8.583   5.351   8.423
14999WAT      O45238   7.985   3.582   6.376
14999WAT     H145239   8.017   3.589   6.471
14999WAT     H245240   8.057   3.614   6.315
15000WAT      O45241   8.063   3.853   3.285
15000WAT     H145242   8.099   3.773   3.331
15000WAT     H245243   8.112   3.935   3.316
15001WAT      O45244   4.035   3.142   3.895
15001WAT     H145245   4.116   3.097   3.857
15001WAT     H245246   4.063   3.226   3.941
15002WAT      O45247   9.220   2.423   4.434
15002WAT     H145248   9.241   2.444   4.338
15002WAT     H245249   9.120   2.423   4.447
15003WAT      O45250   1.438   3.997   8.796
15003WAT     H145251   1.378   3.979   8.718
15003WAT     H245252   1.508   3.925   8.801
15004WAT      O45253   3.427   2.643   8.437
15004WAT     H145254   3.360   2.573   8.461
15004WAT     H245255   3.517   2.600   8.429
15005WAT      O45256   0.162   4.875   5.776
15005WAT     H145257   0.155   4.921   5.688
15005WAT     H245258   0.119   4.931   5.847
15006WAT      O45259   1.325   1.907   9.170
15006WAT     H145260   1.377   1.823   9.188
15006WAT     H245261   1.238   1.884   9.127
15007WAT      O45262   6.783   6.898   9.071
15007WAT     H145263   6.736   6.986   9.076
15007WAT     H245264   6.715   6.824   9.063
15008WAT      O45265   9.857   0.465   2.720
15008WAT     H145266   9.857   0.366   2.705
15008WAT     H245267   9.767   0.494   2.753
15009WAT      O45268   9.692   9.401   1.770
15009WAT     H145269   9.634   9.459   1.712
15009WAT     H245270   9.638   9.361   1.843
15010WAT      O45271   8.555   5.102   1.497
15010WAT     H145272   8.476   5.042   1.509
15010WAT     H245273   8.594   5.087   1.406
15011WAT      O45274   3.687   6.224   1.097
15011WAT     H145275   3.651   6.242   1.189
15011WAT     H245276   3.773   6.273   1.085
15012WAT      O45277   5.169   9.648   4.535
15012WAT     H145278   5.163   9.583   4.460
15012WAT     H245279   5.217   9.730   4.505
15013WAT      O45280   8.076   4.024   3.534
15013WAT     H145281   8.168   4.045   3.566
15013WAT     H245282   8.048   4.092   3.466
15014WAT      O45283   2.353   1.475   3.499
15014WAT     H145284   2.440   1.521   3.519
15014WAT     H245285   2.279   1.542   3.497
15015WAT      O45286   7.745   6.142   0.246
15015WAT     H145287   7.659   6.103   0.211
15015WAT     H245288   7.754   6.235   0.213
15016WAT      O45289   2.235   0.215   9.393
15016WAT     H145290   2.194   0.239   9.480
15016WAT     H245291   2.175   0.244   9.318
15017WAT      O45292   1.094   9.584   5.209
15017WAT     H145293   1.083   9.588   5.110
15017WAT     H245294   1.050   9.501   5.244
15018WAT      O45295   7.006   9.275   0.924
15018WAT     H145296   7.017   9.289   0.825
15018WAT     H245297   7.045   9.353   0.972
15019WAT      O45298   6.640   4.595   4.765
15019WAT     H145299   6.592   4.519   4.807
15019WAT     H245300   6.651   4.577   4.667
15020WAT      O45301   8.742   1.369   2.823
15020WAT     H145302   8.750   1.421   2.908
15020WAT     H245303   8.712   1.276   2.845
15021WAT      O45304   0.480   9.087   6.579
15021WAT     H145305   0.520   9.085   6.671
15021WAT     H245306   0.463   9.182   6.553
15022WAT      O45307   5.983   7.665   8.787
15022WAT     H145308   6.028   7.653   8.875
15022WAT     H245309   5.888   7.693   8.801
15023WAT      O45310   7.873   4.403   0.091
15023WAT     H145311   7.864   4.390  -0.008
15023WAT     H245312   7.970   4.401   0.116
15024WAT      O45313   7.643   4.554   7.188
15024WAT     H145314   7.707   4.478   7.202
15024WAT     H245315   7.600   4.546   7.098
15025WAT      O45316   0.481   0.600   0.978
15025WAT     H145317   0.561   0.659   0.966
15025WAT     H245318   0.403   0.639   0.930
15026WAT      O45319   0.412   5.481   5.571
15026WAT     H145320   0.480   5.412   5.548
15026WAT     H245321   0.438   5.527   5.656
15027WAT      O45322   1.741   6.193   3.131
15027WAT     H145323   1.719   6.102   3.097
15027WAT     H245324   1.729   6.260   3.057
15028WAT      O45325   3.194   8.966   4.404
15028WAT     H145326   3.114   8.906   4.407
15028WAT     H245327   3.182   9.033   4.331
15029WAT      O45328   6.459   7.702   6.471
15029WAT     H145329   6.447   7.778   6.408
15029WAT     H245330   6.400   7.716   6.551
15030WAT      O45331   9.154   4.464   4.118
15030WAT     H145332   9.128   4.477   4.023
15030WAT     H245333   9.129   4.373   4.149
15031WAT      O45334   5.896   7.722   9.836
15031WAT     H145335   5.840   7.648   9.873
15031WAT     H245336   5.843   7.807   9.834
15032WAT      O45337   0.532   9.319   9.682
15032WAT     H145338   0.570   9.287   9.595
15032WAT     H245339   0.575   9.406   9.707
15033WAT      O45340   6.391   1.467   5.987
15033WAT     H145341   6.452   1.508   6.055
15033WAT     H245342   6.445   1.417   5.919
15034WAT      O45343   5.087   0.662   8.959
15034WAT     H145344   5.109   0.586   9.020
15034WAT     H245345   5.121   0.641   8.867
15035WAT      O45346   3.056   9.398   7.629
15035WAT     H145347   3.022   9.359   7.715
15035WAT     H245348   2.984   9.393   7.560
15036WAT      O45349   0.715   2.980   3.122
15036WAT     H145350   0.695   3.038   3.201
15036WAT     H245351   0.668   2.893   3.132
15037WAT      O45352   4.250   3.249   4.789
15037WAT     H145353   4.273   3.201   4.874
15037WAT     H245354   4.335   3.269   4.739
15038WAT      O45355   4.308   2.464   6.463
15038WAT     H145356   4.357   2.550   6.477
15038WAT     H245357   4.245   2.449   6.538
15039WAT      O45358   4.633   2.959   2.151
15039WAT     H145359   4.645   2.947   2.250
15039WAT     H245360   4.536   2.957   2.128
15040WAT      O45361   9.094   2.231   8.119
15040WAT     H145362   9.045   2.282   8.048
15040WAT     H245363   9.083   2.133   8.104
15041WAT      O45364   6.082   7.699   5.156
15041WAT     H145365   6.156   7.671   5.218
15041WAT     H245366   6.001   7.721   5.210
15042WAT      O45367   7.822   2.038   7.401
15042WAT     H145368   7.843   2.078   7.489
15042WAT     H245369   7.905   2.032   7.345
15043WAT      O45370   3.600   1.354   8.272
15043WAT     H145371   3.693   1.320   8.285
15043WAT     H245372   3.593   1.398   8.183
15044WAT      O45373   3.160   1.367   6.545
15044WAT     H145374   3.091   1.378   6.617
15044WAT     H245375   3.223   1.295   6.571
15045WAT      O45376   0.596   4.082   3.389
15045WAT     H145377   0.645   4.045   3.468
15045WAT     H245378   0.653   4.074   3.307
15046WAT      O45379   4.224   4.067   1.265
15046WAT     H145380   4.286   4.026   1.333
15046WAT     H245381   4.277   4.101   1.188
15047WAT      O45382   6.598   2.226   5.523
15047WAT     H145383   6.543   2.292   5.472
15047WAT     H245384   6.570   2.227   5.619
15048WAT      O45385   9.400   7.905   0.842
15048WAT     H145386   9.476   7.914   0.778
15048WAT     H245387   9.386   7.992   0.889
15049WAT      O45388   2.049   8.930   1.455
15049WAT     H145389   2.101   9.002   1.500
15049WAT     H245390   2.110   8.852   1.436
15050WAT      O45391   4.875   7.842   3.957
15050WAT     H145392   4.948   7.894   3.912
15050WAT     H245393   4.852   7.886   4.044
15051WAT      O45394   1.373   9.273   4.393
15051WAT     H145395   1.407   9.338   4.461
15051WAT     H245396   1.359   9.321   4.306
15052WAT      O45397   7.928   9.316   9.149
15052WAT     H145398   7.829   9.300   9.140
15052WAT     H245399   7.972   9.232   9.179
15053WAT      O45400   3.470   1.369   1.827
15053WAT     H145401   3.453   1.298   1.895
15053WAT     H245402   3.557   1.413   1.846
15054WAT      O45403   7.624   2.264   9.378
15054WAT     H145404   7.616   2.190   9.310
15054WAT     H245405   7.533   2.287   9.412
15055WAT      O45406   0.697   4.997   6.782
15055WAT     H145407   0.744   4.915   6.749
15055WAT     H245408   0.609   4.971   6.823
15056WAT      O45409   1.674   7.235   2.464
15056WAT     H145410   1.744   7.299   2.495
15056WAT     H245411   1.700   7.142   2.489
15057WAT      O45412   2.939   1.958   6.097
15057WAT     H145413   2.912   2.051   6.071
15057WAT     H245414   2.904   1.893   6.030
15058WAT      O45415   5.709   8.996   4.273
15058WAT     H145416   5.728   8.898   4.277
15058WAT     H245417   5.640   9.015   4.203
15059WAT      O45418   8.052   1.704   0.155
15059WAT     H145419   8.056   1.604   0.150
15059WAT     H245420   8.135   1.742   0.115
15060WAT      O45421   0.438   2.226   4.237
15060WAT     H145422   0.352   2.277   4.233
15060WAT     H245423   0.505   2.269   4.177
15061WAT      O45424   2.617   8.994   5.288
15061WAT     H145425   2.591   8.958   5.199
15061WAT     H245426   2.573   8.941   5.360
15062WAT      O45427   0.632   3.216   3.272
15062WAT     H145428   0.646   3.215   3.173
15062WAT     H245429   0.634   3.310   3.306
15063WAT      O45430   5.394   7.089   1.291
15063WAT     H145431   5.390   7.021   1.219
15063WAT     H245432   5.307   7.138   1.296
15064WAT      O45433   4.854   9.604   2.513
15064WAT     H145434   4.781   9.542   2.543
15064WAT     H245435   4.943   9.564   2.534
15065WAT      O45436   4.105   8.495   1.619
15065WAT     H145437   4.131   8.460   1.709
15065WAT     H245438   4.020   8.547   1.626
15066WAT      O45439   8.562   8.261   8.331
15066WAT     H145440   8.546   8.241   8.234
15066WAT     H245441   8.653   8.228   8.357
15067WAT      O45442   9.676   9.360   9.808
15067WAT     H145443   9.602   9.418   9.774
15067WAT     H245444   9.680   9.276   9.753
15068WAT      O45445   7.478   0.264   6.605
15068WAT     H145446   7.425   0.204   6.665
15068WAT     H245447   7.530   0.329   6.660
15069WAT      O45448   4.250   3.972   8.462
15069WAT     H145449   4.340   3.969   8.418
15069WAT     H245450   4.179   3.957   8.394
15070WAT      O45451   3.315   3.785   4.036
15070WAT     H145452   3.260   3.818   4.113
15070WAT     H245453   3.255   3.767   3.958
15071WAT      O45454   2.576   2.094   4.175
15071WAT     H145455   2.492   2.042   4.169
15071WAT     H245456   2.655   2.032   4.172
15072WAT      O45457   5.456   0.964   4.688
15072WAT     H145458   5.383   1.022   4.653
15072WAT     H245459   5.500   0.915   4.612
15073WAT      O45460   8.877   1.381   6.421
15073WAT     H145461   8.924   1.448   6.364
15073WAT     H245462   8.782   1.410   6.435
15074WAT      O45463   5.081   3.043   0.709
15074WAT     H145464   5.133   3.087   0.636
15074WAT     H245465   5.065   3.109   0.783
15075WAT      O45466   5.796   3.379   0.406
15075WAT     H145467   5.790   3.332   0.494
15075WAT     H245468   5.880   3.352   0.360
15076WAT      O45469   0.349   0.440   1.493
15076WAT     H145470   0.388   0.523   1.532
15076WAT     H245471   0.250   0.444   1.497
15077WAT      O45472   6.345   4.198   7.311
15077WAT     H145473   6.303   4.284   7.281
15077WAT     H245474   6.441   4.197   7.282
15078WAT      O45475   2.154   3.496   0.463
15078WAT     H145476   2.229   3.431   0.475
15078WAT     H245477   2.066   3.449   0.471
15079WAT      O45478   9.539   4.267   2.082
15079WAT     H145479   9.634   4.256   2.056
15079WAT     H245480   9.495   4.335   2.023
15080WAT      O45481   9.655   1.476   3.199
15080WAT     H145482   9.660   1.530   3.283
15080WAT     H245483   9.695   1.386   3.215
15081WAT      O45484   3.290   0.607   8.434
15081WAT     H145485   3.346   0.606   8.517
15081WAT     H245486   3.348   0.629   8.356
15082WAT      O45487   3.012   4.848   2.531
15082WAT     H145488   2.946   4.921   2.513
15082WAT     H245489   3.090   4.885   2.582
15083WAT      O45490   9.510   0.517   6.374
15083WAT     H145491   9.421   0.492   6.413
15083WAT     H245492   9.583   0.473   6.426
15084WAT      O45493   8.558   3.281   7.526
15084WAT     H145494   8.568   3.233   7.438
15084WAT     H245495   8.506   3.225   7.589
15085WAT      O45496   2.981   6.636   4.435
15085WAT     H145497   2.884   6.660   4.445
15085WAT     H245498   2.993   6.582   4.353
15086WAT      O45499   6.897   2.409   1.335
15086WAT     H145500   6.817   2.422   1.392
15086WAT     H245501   6.977   2.393   1.392
15087WAT      O45502   5.930   4.008   0.627
15087WAT     H145503   6.009   4.056   0.591
15087WAT     H245504   5.867   3.985   0.553
15088WAT      O45505   6.557   4.010   6.218
15088WAT     H145506   6.656   3.999   6.211
15088WAT     H245507   6.524   4.071   6.146
15089WAT      O45508   8.539   7.731   0.186
15089WAT     H145509   8.444   7.720   0.217
15089WAT     H245510   8.575   7.642   0.158
15090WAT      O45511   0.144   3.379   2.531
15090WAT     H145512   0.171   3.365   2.435
15090WAT     H245513   0.188   3.309   2.588
15091WAT      O45514   7.557   4.229   4.870
15091WAT     H145515   7.484   4.266   4.928
15091WAT     H245516   7.549   4.266   4.778
15092WAT      O45517   4.182   1.499   5.826
15092WAT     H145518   4.093   1.497   5.780
15092WAT     H245519   4.182   1.570   5.896
15093WAT      O45520   7.378   0.669   3.564
15093WAT     H145521   7.282   0.694   3.570
15093WAT     H245522   7.402   0.609   3.640
15094WAT      O45523   2.205   1.394   8.854
15094WAT     H145524   2.304   1.403   8.861
15094WAT     H245525   2.182   1.324   8.787
15095WAT      O45526   3.568   6.605   0.474
15095WAT     H145527   3.522   6.694   0.476
15095WAT     H245528   3.520   6.542   0.535
15096WAT      O45529   5.544   1.993   2.034
15096WAT     H145530   5.476   2.035   1.974
15096WAT     H245531   5.513   1.902   2.062
15097WAT      O45532   2.344   9.225   5.107
15097WAT     H145533   2.331   9.166   5.187
15097WAT     H245534   2.256   9.237   5.060
15098WAT      O45535   7.798   2.999   4.226
15098WAT     H145536   7.803   3.048   4.313
15098WAT     H245537   7.886   3.003   4.180
15099WAT      O45538   6.051   4.059   4.545
15099WAT     H145539   6.022   4.057   4.450
15099WAT     H245540   5.978   4.096   4.602
15100WAT      O45541   0.907   8.085   5.080
15100WAT     H145542   0.864   8.146   5.013
15100WAT     H245543   0.967   8.020   5.033
15101WAT      O45544   8.064   9.008   8.690
15101WAT     H145545   7.969   9.019   8.663
15101WAT     H245546   8.076   9.040   8.784
15102WAT      O45547   8.375   5.550   3.308
15102WAT     H145548   8.452   5.508   3.260
15102WAT     H245549   8.385   5.650   3.308
15103WAT      O45550   1.964   2.288   7.867
15103WAT     H145551   2.017   2.203   7.867
15103WAT     H245552   2.011   2.356   7.924
15104WAT      O45553   2.626   0.960   1.960
15104WAT     H145554   2.595   0.950   1.866
15104WAT     H245555   2.712   0.911   1.972
15105WAT      O45556   2.821   0.747   1.899
15105WAT     H145557   2.833   0.747   1.800
15105WAT     H245558   2.890   0.690   1.942
15106WAT      O45559   8.011   9.628   8.680
15106WAT     H145560   8.106   9.656   8.665
15106WAT     H245561   8.009   9.553   8.746
15107WAT      O45562   1.283   9.235   0.745
15107WAT     H145563   1.345   9.208   0.671
15107WAT     H245564   1.247   9.327   0.727
15108WAT      O45565   7.690   1.385   7.474
15108WAT     H145566   7.709   1.412   7.569
15108WAT     H245567   7.604   1.334   7.470
15109WAT      O45568   5.631   6.550   1.702
15109WAT     H145569   5.726   6.522   1.685
15109WAT     H245570   5.614   6.551   1.800
15110WAT      O45571   3.894   7.201   5.412
15110WAT     H145572   3.839   7.269   5.459
15110WAT     H245573   3.991   7.225   5.419
15111WAT      O45574   1.242   4.062   5.072
15111WAT     H145575   1.271   4.101   4.985
15111WAT     H245576   1.227   4.135   5.138
15112WAT      O45577   5.156   9.130   6.985
15112WAT     H145578   5.100   9.056   7.023
15112WAT     H245579   5.104   9.178   6.915
15113WAT      O45580   9.692   7.546   4.330
15113WAT     H145581   9.696   7.635   4.375
15113WAT     H245582   9.605   7.502   4.351
15114WAT      O45583   3.762   5.050   0.889
15114WAT     H145584   3.782   5.076   0.794
15114WAT     H245585   3.737   5.132   0.941
15115WAT      O45586   7.981   2.117   8.392
15115WAT     H145587   7.961   2.206   8.353
15115WAT     H245588   8.018   2.057   8.321
15116WAT      O45589   6.434   0.234   8.735
15116WAT     H145590   6.534   0.226   8.731
15116WAT     H245591   6.393   0.181   8.661
15117WAT      O45592   6.125   3.037   9.070
15117WAT     H145593   6.147   3.104   8.999
15117WAT     H245594   6.143   2.945   9.035
15118WAT      O45595   4.418   3.976   5.719
15118WAT     H145596   4.399   3.994   5.816
15118WAT     H245597   4.338   3.932   5.677
15119WAT      O45598   8.186   9.797   1.005
15119WAT     H145599   8.269   9.798   1.061
15119WAT     H245600   8.143   9.707   1.010
15120WAT      O45601   9.887   5.122   2.958
15120WAT     H145602   9.896   5.190   3.031
15120WAT     H245603   9.796   5.126   2.919
15121WAT      O45604   8.565   3.859   8.756
15121WAT     H145605   8.658   3.826   8.767
15121WAT     H245606   8.542   3.919   8.832
15122WAT      O45607   3.844   5.369   9.880
15122WAT     H145608   3.755   5.410   9.859
15122WAT     H245609   3.837   5.270   9.871
15123WAT      O45610   5.225   1.817   3.999
15123WAT     H145611   5.269   1.886   3.941
15123WAT     H245612   5.139   1.788   3.957
15124WAT      O45613   3.468   9.754   7.934
15124WAT     H145614   3.497   9.730   7.842
15124WAT     H245615   3.422   9.675   7.976
15125WAT      O45616   3.651   5.831   9.892
15125WAT     H145617   3.727   5.886   9.927
15125WAT     H245618   3.634   5.855   9.796
15126WAT      O45619   7.589   3.134   2.577
15126WAT     H145620   7.560   3.039   2.587
15126WAT     H245621   7.509   3.193   2.571
15127WAT      O45622   3.097   3.717   5.812
15127WAT     H145623   3.100   3.713   5.713
15127WAT     H245624   3.008   3.752   5.841
15128WAT      O45625   8.208   4.543   2.852
15128WAT     H145626   8.113   4.567   2.832
15128WAT     H245627   8.215   4.510   2.947
15129WAT      O45628   1.672   8.377   0.710
15129WAT     H145629   1.616   8.295   0.720
15129WAT     H245630   1.616   8.453   0.676
15130WAT      O45631   2.810   7.919   7.923
15130WAT     H145632   2.863   7.967   7.853
15130WAT     H245633   2.869   7.894   7.999
15131WAT      O45634   0.903   7.518   8.183
15131WAT     H145635   0.975   7.450   8.198
15131WAT     H245636   0.874   7.515   8.088
15132WAT      O45637   8.859   9.507   0.930
15132WAT     H145638   8.770   9.506   0.885
15132WAT     H245639   8.855   9.455   1.015
15133WAT      O45640   4.145   6.225   8.206
15133WAT     H145641   4.232   6.177   8.195
15133WAT     H245642   4.096   6.187   8.284
15134WAT      O45643   2.004   1.730   6.274
15134WAT     H145644   2.047   1.762   6.358
15134WAT     H245645   2.046   1.644   6.245
15135WAT      O45646   9.081   0.208   3.546
15135WAT     H145647   9.134   0.160   3.476
15135WAT     H245648   9.003   0.254   3.504
15136WAT      O45649   1.740   9.469   9.878
15136WAT     H145650   1.702   9.392   9.826
15136WAT     H245651   1.810   9.514   9.823
15137WAT      O45652   3.846   8.985   4.142
15137WAT     H145653   3.873   9.077   4.171
15137WAT     H245654   3.916   8.919   4.173
15138WAT      O45655   4.631   1.435   8.453
15138WAT     H145656   4.595   1.345   8.430
15138WAT     H245657   4.721   1.425   8.497
15139WAT      O45658   7.125   0.394   2.685
15139WAT     H145659   7.126   0.317   2.622
15139WAT     H245660   7.044   0.388   2.744
15140WAT      O45661   4.874   4.094   8.955
15140WAT     H145662   4.808   4.105   9.029
15140WAT     H245663   4.960   4.138   8.980
15141WAT      O45664   8.440   3.785   6.476
15141WAT     H145665   8.481   3.831   6.397
15141WAT     H245666   8.366   3.726   6.446
15142WAT      O45667   7.383   5.992   3.926
15142WAT     H145668   7.441   6.067   3.958
15142WAT     H245669   7.372   5.925   3.999
15143WAT      O45670   3.633   7.429   8.441
15143WAT     H145671   3.643   7.526   8.462
15143WAT     H245672   3.695   7.376   8.498
15144WAT      O45673   8.865   4.674   1.260
15144WAT     H145674   8.881   4.688   1.358
15144WAT     H245675   8.951   4.682   1.211
15145WAT      O45676   8.059   3.875   6.547
15145WAT     H145677   8.105   3.925   6.620
15145WAT     H245678   8.098   3.784   6.539
15146WAT      O45679   4.542   1.926   1.664
15146WAT     H145680   4.632   1.942   1.624
15146WAT     H245681   4.526   1.827   1.670
15147WAT      O45682   7.763   4.627   5.600
15147WAT     H145683   7.770   4.527   5.607
15147WAT     H245684   7.854   4.665   5.581
15148WAT      O45685   3.994   5.374   8.061
15148WAT     H145686   3.942   5.299   8.020
15148WAT     H245687   4.063   5.406   7.996
15149WAT      O45688   8.659   0.503   6.728
15149WAT     H145689   8.731   0.467   6.787
15149WAT     H245690   8.620   0.429   6.673
15150WAT      O45691   9.298   1.367   3.631
15150WAT     H145692   9.367   1.370   3.702
15150WAT     H245693   9.207   1.375   3.672
15151WAT      O45694   3.459   4.805   6.295
15151WAT     H145695   3.386   4.853   6.248
15151WAT     H245696   3.531   4.871   6.321
15152WAT      O45697   1.337   2.928   3.076
15152WAT     H145698   1.375   2.838   3.053
15152WAT     H245699   1.254   2.916   3.131
15153WAT      O45700   6.967   0.318   8.527
15153WAT     H145701   7.043   0.383   8.528
15153WAT     H245702   6.964   0.271   8.439
15154WAT      O45703   1.646   6.638   8.290
15154WAT     H145704   1.704   6.559   8.269
15154WAT     H245705   1.589   6.660   8.211
15155WAT      O45706   4.343   5.940   2.075
15155WAT     H145707   4.260   5.894   2.043
15155WAT     H245708   4.400   5.875   2.125
15156WAT      O45709   6.239   1.171   9.323
15156WAT     H145710   6.329   1.187   9.363
15156WAT     H245711   6.171   1.230   9.368
15157WAT      O45712   4.241   0.921   5.850
15157WAT     H145713   4.255   0.920   5.751
15157WAT     H245714   4.326   0.897   5.896
15158WAT      O45715   0.088   2.368   3.575
15158WAT     H145716   0.081   2.457   3.620
15158WAT     H245717   0.177   2.327   3.596
15159WAT      O45718   9.460   9.234   1.430
15159WAT     H145719   9.552   9.204   1.452
15159WAT     H245720   9.396   9.200   1.499
15160WAT      O45721   8.655   8.861   8.359
15160WAT     H145722   8.710   8.938   8.327
15160WAT     H245723   8.605   8.821   8.282
15161WAT      O45724   3.037   2.615   1.425
15161WAT     H145725   2.991   2.543   1.373
15161WAT     H245726   2.968   2.674   1.468
15162WAT      O45727   7.947   3.260   4.465
15162WAT     H145728   8.015   3.251   4.538
15162WAT     H245729   7.993   3.282   4.379
15163WAT      O45730   0.159   4.220   8.323
15163WAT     H145731   0.217   4.264   8.392
15163WAT     H245732   0.100   4.152   8.367
15164WAT      O45733   7.776   9.048   3.806
15164WAT     H145734   7.755   8.951   3.816
15164WAT     H245735   7.694   9.102   3.825
15165WAT      O45736   7.678   6.971   5.045
15165WAT     H145737   7.767   6.925   5.041
15165WAT     H245738   7.687   7.056   5.096
15166WAT      O45739   4.623   2.261   8.364
15166WAT     H145740   4.678   2.300   8.437
15166WAT     H245741   4.663   2.285   8.275
15167WAT      O45742   6.998   6.370   7.247
15167WAT     H145743   7.051   6.319   7.315
15167WAT     H245744   7.055   6.388   7.167
15168WAT      O45745   1.809   3.191   3.499
15168WAT     H145746   1.815   3.287   3.526
15168WAT     H245747   1.751   3.182   3.418
15169WAT      O45748   0.051   9.253   7.893
15169WAT     H145749  -0.028   9.302   7.855
15169WAT     H245750   0.059   9.164   7.849
15170WAT      O45751   5.840   0.590   5.317
15170WAT     H145752   5.837   0.500   5.274
15170WAT     H245753   5.752   0.608   5.362
15171WAT      O45754   9.300   8.164   0.913
15171WAT     H145755   9.203   8.145   0.904
15171WAT     H245756   9.317   8.215   0.998
15172WAT      O45757   8.802   7.627   4.018
15172WAT     H145758   8.886   7.572   4.023
15172WAT     H245759   8.769   7.647   4.110
15173WAT      O45760   0.882   3.618   0.083
15173WAT     H145761   0.867   3.568  -0.003
15173WAT     H245762   0.980   3.625   0.101
15174WAT      O45763   4.300   3.264   0.219
15174WAT     H145764   4.313   3.167   0.240
15174WAT     H245765   4.320   3.319   0.300
15175WAT      O45766   8.069   5.936   5.088
15175WAT     H145767   8.105   6.026   5.111
15175WAT     H245768   7.975   5.928   5.122
15176WAT      O45769   5.588   7.051   7.458
15176WAT     H145770   5.510   7.112   7.457
15176WAT     H245771   5.573   6.976   7.393
15177WAT      O45772   7.306   6.092   9.306
15177WAT     H145773   7.301   6.097   9.405
15177WAT     H245774   7.214   6.094   9.268
15178WAT      O45775   8.194   5.293   1.745
15178WAT     H145776   8.182   5.227   1.671
15178WAT     H245777   8.281   5.275   1.792
15179WAT      O45778   0.691   8.115   5.251
15179WAT     H145779   0.771   8.075   5.205
15179WAT     H245780   0.616   8.049   5.252
15180WAT      O45781   2.986   2.479   4.933
15180WAT     H145782   2.889   2.468   4.912
15180WAT     H245783   3.038   2.406   4.890
15181WAT      O45784   6.861   5.430   1.759
15181WAT     H145785   6.874   5.501   1.690
15181WAT     H245786   6.866   5.471   1.850
15182WAT      O45787   6.765   7.148   6.681
15182WAT     H145788   6.786   7.245   6.688
15182WAT     H245789   6.765   7.107   6.772
15183WAT      O45790   6.833   6.133   7.196
15183WAT     H145791   6.904   6.164   7.259
15183WAT     H245792   6.767   6.207   7.182
15184WAT      O45793   3.991   6.743   0.733
15184WAT     H145794   3.996   6.766   0.636
15184WAT     H245795   4.071   6.689   0.759
15185WAT      O45796   2.637   1.456   0.163
15185WAT     H145797   2.582   1.386   0.209
15185WAT     H245798   2.696   1.501   0.230
15186WAT      O45799   6.638   0.575   1.185
15186WAT     H145800   6.580   0.496   1.164
15186WAT     H245801   6.657   0.627   1.102
15187WAT      O45802   1.145   0.118   3.270
15187WAT     H145803   1.100   0.083   3.351
15187WAT     H245804   1.221   0.178   3.297
15188WAT      O45805   9.416   6.667   1.310
15188WAT     H145806   9.431   6.636   1.216
15188WAT     H245807   9.490   6.730   1.337
15189WAT      O45808   6.398   4.910   8.729
15189WAT     H145809   6.397   4.831   8.667
15189WAT     H245810   6.308   4.920   8.772
15190WAT      O45811   8.533   8.021   1.842
15190WAT     H145812   8.588   8.078   1.904
15190WAT     H245813   8.451   7.990   1.889
15191WAT      O45814   6.581   4.123   4.028
15191WAT     H145815   6.652   4.142   3.960
15191WAT     H245816   6.505   4.076   3.984
15192WAT      O45817   6.550   4.657   1.032
15192WAT     H145818   6.553   4.684   1.128
15192WAT     H245819   6.601   4.572   1.019
15193WAT      O45820   0.495   1.303   9.382
15193WAT     H145821   0.556   1.373   9.420
15193WAT     H245822   0.408   1.345   9.355
15194WAT      O45823   9.811   3.074   8.528
15194WAT     H145824   9.819   2.983   8.569
15194WAT     H245825   9.857   3.141   8.585
15195WAT      O45826   6.208   0.149   0.140
15195WAT     H145827   6.262   0.233   0.134
15195WAT     H245828   6.268   0.070   0.125
15196WAT      O45829   7.505   9.732   2.173
15196WAT     H145830   7.461   9.642   2.166
15196WAT     H245831   7.466   9.794   2.105
15197WAT      O45832   8.296   3.069   8.539
15197WAT     H145833   8.253   3.137   8.598
15197WAT     H245834   8.304   2.982   8.589
15198WAT      O45835   5.345   2.979   5.052
15198WAT     H145836   5.281   3.036   5.102
15198WAT     H245837   5.359   2.893   5.102
15199WAT      O45838   1.711   7.653   5.495
15199WAT     H145839   1.622   7.680   5.531
15199WAT     H245840   1.711   7.554   5.477
15200WAT      O45841   2.591   5.232   2.172
15200WAT     H145842   2.635   5.258   2.086
15200WAT     H245843   2.556   5.313   2.218
15201WAT      O45844   5.456   5.046   5.500
15201WAT     H145845   5.398   5.030   5.579
15201WAT     H245846   5.399   5.053   5.418
15202WAT      O45847   7.897   7.208   2.216
15202WAT     H145848   7.932   7.146   2.146
15202WAT     H245849   7.816   7.255   2.180
15203WAT      O45850   1.273   8.821   6.677
15203WAT     H145851   1.267   8.726   6.647
15203WAT     H245852   1.286   8.824   6.776
15204WAT      O45853   5.023   9.603   2.219
15204WAT     H145854   5.032   9.666   2.142
15204WAT     H245855   4.996   9.654   2.301
15205WAT      O45856   5.435   1.713   7.020
15205WAT     H145857   5.367   1.643   6.999
15205WAT     H245858   5.499   1.722   6.944
15206WAT      O45859   4.634   1.225   0.917
15206WAT     H145860   4.692   1.294   0.873
15206WAT     H245861   4.674   1.134   0.903
15207WAT      O45862   0.217   0.224   0.714
15207WAT     H145863   0.220   0.295   0.643
15207WAT     H245864   0.123   0.196   0.730
15208WAT      O45865   4.528   2.911   8.671
15208WAT     H145866   4.491   2.858   8.594
15208WAT     H245867   4.570   2.849   8.737
15209WAT      O45868   2.436   6.207   6.089
15209WAT     H145869   2.505   6.273   6.120
15209WAT     H245870   2.350   6.255   6.071
15210WAT      O45871   2.434   8.242   7.818
15210WAT     H145872   2.474   8.333   7.825
15210WAT     H245873   2.498   8.182   7.770
15211WAT      O45874   0.318   0.705   8.932
15211WAT     H145875   0.244   0.690   8.997
15211WAT     H245876   0.294   0.782   8.872
15212WAT      O45877   0.351   2.556   6.772
15212WAT     H145878   0.337   2.541   6.869
15212WAT     H245879   0.268   2.595   6.732
15213WAT      O45880   8.046   7.676   2.974
15213WAT     H145881   7.964   7.637   3.015
15213WAT     H245882   8.085   7.611   2.909
15214WAT      O45883   1.511   8.536   6.791
15214WAT     H145884   1.434   8.506   6.734
15214WAT     H245885   1.491   8.515   6.887
15215WAT      O45886   1.169   4.658   7.563
15215WAT     H145887   1.154   4.567   7.524
15215WAT     H245888   1.254   4.696   7.529
15216WAT      O45889   0.649   3.449   3.419
15216WAT     H145890   0.565   3.483   3.462
15216WAT     H245891   0.693   3.525   3.370
15217WAT      O45892   3.627   2.687   1.183
15217WAT     H145893   3.596   2.603   1.229
15217WAT     H245894   3.724   2.702   1.202
15218WAT      O45895   2.472   3.441   4.115
15218WAT     H145896   2.468   3.502   4.036
15218WAT     H245897   2.430   3.485   4.194
15219WAT      O45898   7.937   7.045   1.298
15219WAT     H145899   7.842   7.030   1.273
15219WAT     H245900   7.942   7.080   1.392
15220WAT      O45901   8.422   4.814   6.511
15220WAT     H145902   8.476   4.757   6.573
15220WAT     H245903   8.327   4.815   6.542
15221WAT      O45904   5.932   6.595   6.049
15221WAT     H145905   5.865   6.667   6.032
15221WAT     H245906   6.008   6.604   5.984
15222WAT      O45907   3.436   8.726   1.242
15222WAT     H145908   3.484   8.813   1.228
15222WAT     H245909   3.350   8.743   1.289
15223WAT      O45910   0.142   8.077   4.350
15223WAT     H145911   0.153   8.061   4.448
15223WAT     H245912   0.046   8.098   4.331
15224WAT      O45913   5.004   6.210   1.566
15224WAT     H145914   5.017   6.299   1.609
15224WAT     H245915   5.091   6.178   1.529
15225WAT      O45916   2.689   0.442   0.751
15225WAT     H145917   2.767   0.387   0.781
15225WAT     H245918   2.629   0.459   0.829
15226WAT      O45919   5.185   5.565   6.158
15226WAT     H145920   5.255   5.587   6.089
15226WAT     H245921   5.147   5.650   6.194
15227WAT      O45922   5.016   6.197   8.059
15227WAT     H145923   5.031   6.103   8.026
15227WAT     H245924   5.081   6.259   8.016
15228WAT      O45925   9.431   5.975   8.165
15228WAT     H145926   9.334   5.989   8.188
15228WAT     H245927   9.464   5.892   8.211
15229WAT      O45928   2.734   3.477   2.969
15229WAT     H145929   2.799   3.494   3.043
15229WAT     H245930   2.701   3.564   2.933
15230WAT      O45931   8.203   7.263   6.652
15230WAT     H145932   8.213   7.337   6.718
15230WAT     H245933   8.290   7.247   6.605
15231WAT      O45934   0.356   8.032   4.152
15231WAT     H145935   0.285   8.049   4.221
15231WAT     H245936   0.431   8.096   4.166
15232WAT      O45937   7.480   1.442   4.862
15232WAT     H145938   7.437   1.517   4.812
15232WAT     H245939   7.505   1.369   4.799
15233WAT      O45940   3.723   6.097   5.462
15233WAT     H145941   3.736   6.000   5.478
15233WAT     H245942   3.787   6.129   5.392
15234WAT      O45943   0.932   3.042   9.603
15234WAT     H145944   0.927   3.141   9.594
15234WAT     H245945   0.933   2.999   9.513
15235WAT      O45946   9.776   8.730   5.575
15235WAT     H145947   9.762   8.829   5.587
15235WAT     H245948   9.874   8.710   5.574
15236WAT      O45949   6.908   5.818   7.864
15236WAT     H145950   7.007   5.801   7.871
15236WAT     H245951   6.859   5.732   7.871
15237WAT      O45952   2.449   9.802   7.781
15237WAT     H145953   2.501   9.792   7.865
15237WAT     H245954   2.375   9.734   7.780
15238WAT      O45955   3.361   7.956   0.644
15238WAT     H145956   3.336   7.948   0.740
15238WAT     H245957   3.382   8.051   0.622
15239WAT      O45958   2.823   6.726   8.787
15239WAT     H145959   2.911   6.744   8.829
15239WAT     H245960   2.826   6.638   8.739
15240WAT      O45961   4.796   7.723   0.047
15240WAT     H145962   4.830   7.718  -0.047
15240WAT     H245963   4.785   7.818   0.074
15241WAT      O45964   4.930   4.484   9.204
15241WAT     H145965   4.986   4.566   9.218
15241WAT     H245966   4.966   4.409   9.259
15242WAT      O45967   5.531   5.769   4.549
15242WAT     H145968   5.596   5.783   4.624
15242WAT     H245969   5.527   5.851   4.492
15243WAT      O45970   5.698   2.691   2.404
15243WAT     H145971   5.638   2.682   2.324
15243WAT     H245972   5.702   2.787   2.431
15244WAT      O45973   3.005   1.190   8.391
15244WAT     H145974   2.947   1.225   8.317
15244WAT     H245975   3.099   1.178   8.358
15245WAT      O45976   9.514   0.524   0.041
15245WAT     H145977   9.580   0.597   0.059
15245WAT     H245978   9.422   0.559   0.055
15246WAT      O45979   1.304   8.852   5.586
15246WAT     H145980   1.288   8.838   5.488
15246WAT     H245981   1.300   8.950   5.606
15247WAT      O45982   4.378   7.972   3.341
15247WAT     H145983   4.450   8.034   3.370
15247WAT     H245984   4.308   7.968   3.413
15248WAT      O45985   6.726   3.811   4.301
15248WAT     H145986   6.754   3.716   4.307
15248WAT     H245987   6.805   3.868   4.278
15249WAT      O45988   6.400   7.382   0.629
15249WAT     H145989   6.374   7.328   0.550
15249WAT     H245990   6.468   7.451   0.603
15250WAT      O45991   9.345   3.783   0.551
15250WAT     H145992   9.353   3.787   0.451
15250WAT     H245993   9.429   3.746   0.589
15251WAT      O45994   9.445   3.404   0.865
15251WAT     H145995   9.482   3.384   0.956
15251WAT     H245996   9.496   3.352   0.796
15252WAT      O45997   2.484   5.430   3.400
15252WAT     H145998   2.431   5.419   3.484
15252WAT     H245999   2.469   5.350   3.342
15253WAT      O46000   9.030   8.229   6.146
15253WAT     H146001   9.115   8.223   6.199
15253WAT     H246002   8.954   8.193   6.201
15254WAT      O46003   1.040   1.995   1.369
15254WAT     H146004   1.099   1.924   1.407
15254WAT     H246005   0.993   1.960   1.288
15255WAT      O46006   7.940   4.667   6.331
15255WAT     H146007   7.969   4.761   6.352
15255WAT     H246008   8.020   4.612   6.306
15256WAT      O46009   0.911   9.255   9.218
15256WAT     H146010   0.880   9.257   9.313
15256WAT     H246011   0.969   9.174   9.203
15257WAT      O46012   9.521   2.731   4.880
15257WAT     H146013   9.544   2.664   4.809
15257WAT     H246014   9.579   2.812   4.871
15258WAT      O46015   8.596   3.432   2.407
15258WAT     H146016   8.537   3.477   2.340
15258WAT     H246017   8.623   3.498   2.477
15259WAT      O46018   7.846   3.148   6.414
15259WAT     H146019   7.927   3.101   6.449
15259WAT     H246020   7.806   3.094   6.340
15260WAT      O46021   5.444   2.811   9.315
15260WAT     H146022   5.469   2.770   9.402
15260WAT     H246023   5.388   2.747   9.263
15261WAT      O46024   9.612   2.470   2.001
15261WAT     H146025   9.559   2.480   2.085
15261WAT     H246026   9.555   2.496   1.923
15262WAT      O46027   2.523   1.843   1.753
15262WAT     H146028   2.463   1.766   1.735
15262WAT     H246029   2.497   1.887   1.839
15263WAT      O46030   9.696   3.748   9.048
15263WAT     H146031   9.637   3.829   9.040
15263WAT     H246032   9.692   3.695   8.964
15264WAT      O46033   0.272   6.095   0.354
15264WAT     H146034   0.218   6.016   0.326
15264WAT     H246035   0.256   6.114   0.450
15265WAT      O46036   2.606   8.409   0.563
15265WAT     H146037   2.518   8.364   0.576
15265WAT     H246038   2.672   8.371   0.628
15266WAT      O46039   8.844   5.819   3.958
15266WAT     H146040   8.839   5.918   3.970
15266WAT     H246041   8.914   5.796   3.892
15267WAT      O46042   9.149   2.518   5.509
15267WAT     H146043   9.176   2.608   5.544
15267WAT     H246044   9.053   2.520   5.483
15268WAT      O46045   1.635   9.800   3.995
15268WAT     H146046   1.568   9.827   3.926
15268WAT     H246047   1.631   9.863   4.072
15269WAT      O46048   2.120   1.897   3.988
15269WAT     H146049   2.203   1.856   4.028
15269WAT     H246050   2.089   1.972   4.046
15270WAT      O46051   6.857   4.142   1.011
15270WAT     H146052   6.955   4.141   1.034
15270WAT     H246053   6.807   4.085   1.077
15271WAT      O46054   7.891   7.085   0.061
15271WAT     H146055   7.876   7.002   0.114
15271WAT     H246056   7.862   7.072  -0.033
15272WAT      O46057   0.572   3.748   6.571
15272WAT     H146058   0.509   3.720   6.643
15272WAT     H246059   0.664   3.716   6.594
15273WAT      O46060   5.328   5.621   0.359
15273WAT     H146061   5.363   5.675   0.436
15273WAT     H246062   5.335   5.523   0.382
15274WAT      O46063   4.732   8.202   5.339
15274WAT     H146064   4.820   8.235   5.375
15274WAT     H246065   4.708   8.117   5.384
15275WAT      O46066   8.534   5.803   7.375
15275WAT     H146067   8.545   5.709   7.343
15275WAT     H246068   8.494   5.803   7.467
15276WAT      O46069   9.196   0.626   3.095
15276WAT     H146070   9.252   0.592   3.171
15276WAT     H246071   9.104   0.646   3.128
15277WAT      O46072   6.622   7.286   5.093
15277WAT     H146073   6.663   7.367   5.049
15277WAT     H246074   6.552   7.247   5.033
15278WAT      O46075   2.378   4.547   8.585
15278WAT     H146076   2.367   4.459   8.539
15278WAT     H246077   2.316   4.552   8.663
15279WAT      O46078   0.566   5.811   9.162
15279WAT     H146079   0.531   5.824   9.069
15279WAT     H246080   0.619   5.727   9.166
15280WAT      O46081   7.397   0.175   1.339
15280WAT     H146082   7.372   0.256   1.286
15280WAT     H246083   7.319   0.114   1.346
15281WAT      O46084   9.653   3.259   6.761
15281WAT     H146085   9.732   3.291   6.814
15281WAT     H246086   9.679   3.253   6.664
15282WAT      O46087   3.895   2.161   5.063
15282WAT     H146088   3.891   2.259   5.080
15282WAT     H246089   3.860   2.112   5.143
15283WAT      O46090   9.712   4.883   7.457
15283WAT     H146091   9.792   4.937   7.429
15283WAT     H246092   9.709   4.876   7.556
15284WAT      O46093   5.579   4.413   7.930
15284WAT     H146094   5.543   4.413   7.837
15284WAT     H246095   5.675   4.443   7.928
15285WAT      O46096   4.158   8.931   5.243
15285WAT     H146097   4.110   9.013   5.272
15285WAT     H246098   4.240   8.919   5.299
15286WAT      O46099   8.939   2.481   8.332
15286WAT     H146100   9.020   2.425   8.345
15286WAT     H246101   8.929   2.545   8.408
15287WAT      O46102   0.990   0.967   1.611
15287WAT     H146103   1.069   0.958   1.672
15287WAT     H246104   0.906   0.973   1.665
15288WAT      O46105   0.838   9.039   8.900
15288WAT     H146106   0.821   9.105   8.974
15288WAT     H246107   0.932   9.006   8.906
15289WAT      O46108   2.531   7.746   6.669
15289WAT     H146109   2.503   7.773   6.576
15289WAT     H246110   2.590   7.665   6.664
15290WAT      O46111   9.862   3.421   4.926
15290WAT     H146112   9.922   3.500   4.927
15290WAT     H246113   9.782   3.439   4.982
15291WAT      O46114   3.803   8.733   7.687
15291WAT     H146115   3.793   8.786   7.603
15291WAT     H246116   3.733   8.662   7.691
15292WAT      O46117   3.826   6.516   9.851
15292WAT     H146118   3.814   6.482   9.945
15292WAT     H246119   3.923   6.528   9.833
15293WAT      O46120   1.931   0.177   0.912
15293WAT     H146121   1.956   0.257   0.856
15293WAT     H246122   1.988   0.174   0.994
15294WAT      O46123   0.903   0.655   1.327
15294WAT     H146124   0.919   0.628   1.422
15294WAT     H246125   0.855   0.581   1.279
15295WAT      O46126   8.382   9.796   2.159
15295WAT     H146127   8.305   9.819   2.218
15295WAT     H246128   8.349   9.745   2.079
15296WAT      O46129   8.208   2.636   4.511
15296WAT     H146130   8.243   2.546   4.487
15296WAT     H246131   8.114   2.646   4.478
15297WAT      O46132   3.342   1.712   6.955
15297WAT     H146133   3.344   1.741   7.051
15297WAT     H246134   3.295   1.624   6.948
15298WAT      O46135   4.191   5.365   5.471
15298WAT     H146136   4.111   5.393   5.525
15298WAT     H246137   4.239   5.291   5.519
15299WAT      O46138   7.929   6.969   0.408
15299WAT     H146139   7.915   6.870   0.415
15299WAT     H246140   7.841   7.013   0.390
15300WAT      O46141   0.674   7.905   5.456
15300WAT     H146142   0.716   7.955   5.532
15300WAT     H246143   0.740   7.896   5.382
15301WAT      O46144   4.968   3.628   1.467
15301WAT     H146145   5.017   3.711   1.440
15301WAT     H246146   5.025   3.548   1.450
15302WAT      O46147   1.908   2.574   5.795
15302WAT     H146148   1.877   2.633   5.720
15302WAT     H246149   1.903   2.478   5.766
15303WAT      O46150   5.199   1.799   0.295
15303WAT     H146151   5.281   1.856   0.289
15303WAT     H246152   5.219   1.709   0.256
15304WAT      O46153   9.879   6.993   1.718
15304WAT     H146154   9.903   7.007   1.814
15304WAT     H246155   9.845   6.900   1.705
15305WAT      O46156   8.040   0.212   6.660
15305WAT     H146157   8.082   0.295   6.621
15305WAT     H246158   8.075   0.132   6.612
15306WAT      O46159   3.685   7.245   0.442
15306WAT     H146160   3.603   7.271   0.493
15306WAT     H246161   3.760   7.306   0.466
15307WAT      O46162   0.031   2.025   4.839
15307WAT     H146163   0.037   1.927   4.858
15307WAT     H246164  -0.055   2.061   4.874
15308WAT      O46165   8.032   3.975   3.038
15308WAT     H146166   8.018   3.942   3.132
15308WAT     H246167   8.008   3.903   2.974
15309WAT      O46168   8.441   8.435   4.297
15309WAT     H146169   8.462   8.379   4.217
15309WAT     H246170   8.524   8.480   4.329
15310WAT      O46171   7.486   6.901   2.794
15310WAT     H146172   7.437   6.815   2.809
15310WAT     H246173   7.520   6.937   2.881
15311WAT      O46174   5.253   2.767   2.172
15311WAT     H146175   5.213   2.687   2.217
15311WAT     H246176   5.223   2.771   2.077
15312WAT      O46177   4.490   7.244   8.521
15312WAT     H146178   4.465   7.227   8.426
15312WAT     H246179   4.443   7.179   8.581
15313WAT      O46180   5.015   7.418   9.445
15313WAT     H146181   5.022   7.502   9.392
15313WAT     H246182   4.919   7.401   9.468
15314WAT      O46183   1.289   2.712   0.873
15314WAT     H146184   1.302   2.621   0.912
15314WAT     H246185   1.377   2.760   0.870
15315WAT      O46186   3.082   5.034   8.750
15315WAT     H146187   3.078   4.981   8.665
15315WAT     H246188   3.167   5.086   8.752
15316WAT      O46189   5.401   5.194   7.875
15316WAT     H146190   5.367   5.202   7.969
15316WAT     H246191   5.425   5.285   7.841
15317WAT      O46192   5.283   0.988   1.427
15317WAT     H146193   5.334   0.909   1.462
15317WAT     H246194   5.341   1.069   1.431
15318WAT      O46195   4.570   4.879   5.884
15318WAT     H146196   4.470   4.880   5.890
15318WAT     H246197   4.603   4.969   5.857
15319WAT      O46198   7.580   3.979   6.791
15319WAT     H146199   7.594   3.908   6.861
15319WAT     H246200   7.564   3.935   6.702
15320WAT      O46201   7.554   5.659   4.889
15320WAT     H146202   7.584   5.594   4.959
15320WAT     H246203   7.621   5.733   4.882
15321WAT      O46204   4.977   4.096   2.430
15321WAT     H146205   4.889   4.053   2.451
15321WAT     H246206   5.003   4.075   2.336
15322WAT      O46207   3.637   0.062   6.833
15322WAT     H146208   3.539   0.057   6.851
15322WAT     H246209   3.673   0.148   6.870
15323WAT      O46210   0.039   4.314   2.638
15323WAT     H146211   0.031   4.217   2.661
15323WAT     H246212  -0.006   4.331   2.550
15324WAT      O46213   6.771   6.008   4.806
15324WAT     H146214   6.822   5.931   4.768
15324WAT     H246215   6.698   5.973   4.865
15325WAT      O46216   2.354   8.125   9.307
15325WAT     H146217   2.285   8.056   9.327
15325WAT     H246218   2.442   8.097   9.345
15326WAT      O46219   9.504   3.037   0.524
15326WAT     H146220   9.581   3.006   0.469
15326WAT     H246221   9.487   2.972   0.598
15327WAT      O46222   1.296   5.391   6.793
15327WAT     H146223   1.309   5.342   6.707
15327WAT     H246224   1.379   5.387   6.848
15328WAT      O46225   4.303   2.963   9.561
15328WAT     H146226   4.275   3.056   9.585
15328WAT     H246227   4.388   2.940   9.608
15329WAT      O46228   2.634   1.116   9.019
15329WAT     H146229   2.674   1.184   9.081
15329WAT     H246230   2.691   1.109   8.937
15330WAT      O46231   2.670   1.155   9.883
15330WAT     H146232   2.749   1.135   9.941
15330WAT     H246233   2.614   1.072   9.875
15331WAT      O46234   1.772   3.974   7.903
15331WAT     H146235   1.866   3.950   7.927
15331WAT     H246236   1.715   3.892   7.908
15332WAT      O46237   2.405   8.648   3.273
15332WAT     H146238   2.445   8.716   3.335
15332WAT     H246239   2.421   8.556   3.310
15333WAT      O46240   9.238   9.038   4.771
15333WAT     H146241   9.283   9.063   4.685
15333WAT     H246242   9.141   9.024   4.755
15334WAT      O46243   9.606   5.239   2.453
15334WAT     H146244   9.573   5.190   2.534
15334WAT     H246245   9.548   5.319   2.438
15335WAT      O46246   4.102   2.537   7.539
15335WAT     H146247   4.171   2.476   7.579
15335WAT     H246248   4.095   2.619   7.595
15336WAT      O46249   0.901   9.789   9.670
15336WAT     H146250   0.886   9.733   9.588
15336WAT     H246251   0.966   9.744   9.730
15337WAT      O46252   7.946   7.294   1.197
15337WAT     H146253   7.964   7.216   1.257
15337WAT     H246254   7.965   7.268   1.103
15338WAT      O46255   2.460   2.901   4.123
15338WAT     H146256   2.521   2.970   4.085
15338WAT     H246257   2.514   2.834   4.175
15339WAT      O46258   7.276   0.239   1.041
15339WAT     H146259   7.344   0.243   0.968
15339WAT     H246260   7.194   0.192   1.008
15340WAT      O46261   1.201   6.941   2.691
15340WAT     H146262   1.165   6.851   2.719
15340WAT     H246263   1.194   6.950   2.592
15341WAT      O46264   2.111   3.237   3.937
15341WAT     H146265   2.104   3.163   3.870
15341WAT     H246266   2.123   3.198   4.029
15342WAT      O46267   4.943   5.334   4.936
15342WAT     H146268   4.946   5.409   4.870
15342WAT     H246269   4.963   5.368   5.027
15343WAT      O46270   1.402   6.563   9.504
15343WAT     H146271   1.322   6.504   9.490
15343WAT     H246272   1.376   6.659   9.493
15344WAT      O46273   8.153   6.529   0.853
15344WAT     H146274   8.234   6.587   0.855
15344WAT     H246275   8.132   6.496   0.945
15345WAT      O46276   0.516   0.177   3.961
15345WAT     H146277   0.615   0.173   3.953
15345WAT     H246278   0.476   0.087   3.944
15346WAT      O46279   0.216   6.749   9.128
15346WAT     H146280   0.159   6.826   9.098
15346WAT     H246281   0.185   6.666   9.081
15347WAT      O46282   6.811   8.599   5.036
15347WAT     H146283   6.870   8.525   5.003
15347WAT     H246284   6.854   8.643   5.115
15348WAT      O46285   5.798   1.417   9.846
15348WAT     H146286   5.719   1.438   9.904
15348WAT     H246287   5.816   1.492   9.783
15349WAT      O46288   5.574   9.307   2.199
15349WAT     H146289   5.600   9.215   2.167
15349WAT     H246290   5.477   9.307   2.223
15350WAT      O46291   7.077   2.315   5.124
15350WAT     H146292   7.023   2.248   5.176
15350WAT     H246293   7.055   2.307   5.027
15351WAT      O46294   2.229   8.287   8.721
15351WAT     H146295   2.297   8.317   8.654
15351WAT     H246296   2.271   8.222   8.784
15352WAT      O46297   9.544   1.679   1.716
15352WAT     H146298   9.505   1.672   1.624
15352WAT     H246299   9.489   1.625   1.779
15353WAT      O46300   7.822   2.210   9.015
15353WAT     H146301   7.816   2.129   8.957
15353WAT     H246302   7.731   2.234   9.049
15354WAT      O46303   4.298   9.614   1.894
15354WAT     H146304   4.305   9.592   1.796
15354WAT     H246305   4.352   9.548   1.946
15355WAT      O46306   2.050   6.806   6.044
15355WAT     H146307   2.134   6.852   6.072
15355WAT     H246308   2.009   6.855   5.967
15356WAT      O46309   5.798   9.035   7.488
15356WAT     H146310   5.843   8.966   7.545
15356WAT     H246311   5.865   9.077   7.427
15357WAT      O46312   5.645   8.115   3.888
15357WAT     H146313   5.575   8.072   3.946
15357WAT     H246314   5.601   8.180   3.826
15358WAT      O46315   7.893   4.759   4.776
15358WAT     H146316   7.920   4.836   4.834
15358WAT     H246317   7.794   4.764   4.759
15359WAT      O46318   4.063   6.896   7.978
15359WAT     H146319   4.159   6.920   7.984
15359WAT     H246320   4.053   6.809   7.929
15360WAT      O46321   0.994   8.085   4.479
15360WAT     H146322   1.080   8.126   4.512
15360WAT     H246323   0.924   8.155   4.473
15361WAT      O46324   8.611   3.846   7.640
15361WAT     H146325   8.658   3.903   7.573
15361WAT     H246326   8.611   3.751   7.609
15362WAT      O46327   3.152   0.099   4.998
15362WAT     H146328   3.119   0.029   4.934
15362WAT     H246329   3.130   0.071   5.091
15363WAT      O46330   7.659   4.420   5.835
15363WAT     H146331   7.647   4.377   5.746
15363WAT     H246332   7.670   4.350   5.905
15364WAT      O46333   9.763   2.271   8.688
15364WAT     H146334   9.795   2.192   8.635
15364WAT     H246335   9.663   2.272   8.689
15365WAT      O46336   0.496   3.622   4.308
15365WAT     H146337   0.487   3.610   4.407
15365WAT     H246338   0.405   3.629   4.267
15366WAT      O46339   3.599   6.960   0.857
15366WAT     H146340   3.637   7.036   0.805
15366WAT     H246341   3.623   6.874   0.814
15367WAT      O46342   6.627   8.605   3.139
15367WAT     H146343   6.620   8.512   3.175
15367WAT     H246344   6.701   8.653   3.187
15368WAT      O46345   7.107   7.972   4.283
15368WAT     H146346   7.186   7.915   4.263
15368WAT     H246347   7.023   7.917   4.276
15369WAT      O46348   3.732   1.513   1.916
15369WAT     H146349   3.771   1.605   1.928
15369WAT     H246350   3.735   1.464   2.003
15370WAT      O46351   4.579   2.042   5.152
15370WAT     H146352   4.585   2.140   5.170
15370WAT     H246353   4.566   2.027   5.053
15371WAT      O46354   6.095   8.070   5.990
15371WAT     H146355   6.053   7.980   5.976
15371WAT     H246356   6.029   8.131   6.034
15372WAT      O46357   6.306   2.098   2.046
15372WAT     H146358   6.268   2.066   1.959
15372WAT     H246359   6.405   2.098   2.042
15373WAT      O46360   0.677   4.911   5.216
15373WAT     H146361   0.769   4.921   5.254
15373WAT     H246362   0.673   4.827   5.161
15374WAT      O46363   0.689   5.423   4.678
15374WAT     H146364   0.653   5.331   4.668
15374WAT     H246365   0.788   5.422   4.665
15375WAT      O46366   1.569   8.662   1.809
15375WAT     H146367   1.565   8.676   1.710
15375WAT     H246368   1.663   8.677   1.841
15376WAT      O46369   5.762   5.001   7.645
15376WAT     H146370   5.846   5.044   7.679
15376WAT     H246371   5.770   4.986   7.547
15377WAT      O46372   9.371   9.816   0.386
15377WAT     H146373   9.358   9.717   0.393
15377WAT     H246374   9.455   9.835   0.335
15378WAT      O46375   2.960   8.456   5.998
15378WAT     H146376   2.931   8.369   5.960
15378WAT     H246377   2.902   8.529   5.963
15379WAT      O46378   1.716   5.578   9.602
15379WAT     H146379   1.751   5.670   9.583
15379WAT     H246380   1.791   5.512   9.597
15380WAT      O46381   7.216   9.610   5.424
15380WAT     H146382   7.254   9.522   5.395
15380WAT     H246383   7.118   9.610   5.409
15381WAT      O46384   8.193   5.069   2.096
15381WAT     H146385   8.180   4.976   2.061
15381WAT     H246386   8.289   5.095   2.091
15382WAT      O46387   5.554   6.771   0.795
15382WAT     H146388   5.561   6.701   0.866
15382WAT     H246389   5.642   6.815   0.782
15383WAT      O46390   1.241   9.224   7.302
15383WAT     H146391   1.143   9.204   7.306
15383WAT     H246392   1.289   9.172   7.374
15384WAT      O46393   6.004   7.726   7.986
15384WAT     H146394   6.072   7.692   8.050
15384WAT     H246395   5.912   7.705   8.020
15385WAT      O46396   1.674   1.125   3.890
15385WAT     H146397   1.741   1.194   3.917
15385WAT     H246398   1.693   1.040   3.939
15386WAT      O46399   1.833   0.405   5.664
15386WAT     H146400   1.923   0.390   5.705
15386WAT     H246401   1.844   0.429   5.567
15387WAT      O46402   2.673   2.378   4.721
15387WAT     H146403   2.664   2.465   4.770
15387WAT     H246404   2.596   2.366   4.658
15388WAT      O46405   2.651   6.289   4.505
15388WAT     H146406   2.742   6.268   4.468
15388WAT     H246407   2.661   6.325   4.598
15389WAT      O46408   4.512   2.976   3.517
15389WAT     H146409   4.436   2.912   3.531
15389WAT     H246410   4.497   3.027   3.433
15390WAT      O46411   8.525   7.038   7.207
15390WAT     H146412   8.459   7.087   7.264
15390WAT     H246413   8.492   6.945   7.190
15391WAT      O46414   2.182   0.281   1.869
15391WAT     H146415   2.112   0.282   1.940
15391WAT     H246416   2.250   0.352   1.888
15392WAT      O46417   4.466   3.588   8.261
15392WAT     H146418   4.446   3.685   8.248
15392WAT     H246419   4.381   3.535   8.256
15393WAT      O46420   2.458   1.044   8.352
15393WAT     H146421   2.430   1.127   8.304
15393WAT     H246422   2.526   1.066   8.422
15394WAT      O46423   9.325   1.219   8.865
15394WAT     H146424   9.263   1.291   8.833
15394WAT     H246425   9.280   1.162   8.932
15395WAT      O46426   0.983   1.576   5.025
15395WAT     H146427   1.039   1.654   4.999
15395WAT     H246428   0.963   1.580   5.123
15396WAT      O46429   1.095   5.817   2.326
15396WAT     H146430   1.040   5.864   2.395
15396WAT     H246431   1.045   5.737   2.293
15397WAT      O46432   3.277   9.670   0.536
15397WAT     H146433   3.277   9.680   0.436
15397WAT     H246434   3.347   9.604   0.562
15398WAT      O46435   5.352   4.577   2.652
15398WAT     H146436   5.276   4.535   2.700
15398WAT     H246437   5.354   4.675   2.672
15399WAT      O46438   3.677   5.559   7.188
15399WAT     H146439   3.707   5.465   7.204
15399WAT     H246440   3.649   5.601   7.275
15400WAT      O46441   2.405   0.158   1.986
15400WAT     H146442   2.309   0.168   1.959
15400WAT     H246443   2.447   0.249   1.993
15401WAT      O46444   5.059   3.643   9.604
15401WAT     H146445   4.984   3.700   9.571
15401WAT     H246446   5.109   3.604   9.527
15402WAT      O46447   8.766   6.754   0.237
15402WAT     H146448   8.809   6.795   0.157
15402WAT     H246449   8.717   6.825   0.288
15403WAT      O46450   8.001   7.301   0.328
15403WAT     H146451   7.997   7.212   0.282
15403WAT     H246452   7.934   7.302   0.402
15404WAT      O46453   6.875   8.300   7.137
15404WAT     H146454   6.892   8.337   7.228
15404WAT     H246455   6.962   8.284   7.091
15405WAT      O46456   7.071   9.519   3.832
15405WAT     H146457   7.142   9.581   3.800
15405WAT     H246458   6.982   9.550   3.798
15406WAT      O46459   4.547   7.087   9.632
15406WAT     H146460   4.520   7.020   9.702
15406WAT     H246461   4.496   7.069   9.548
15407WAT      O46462   2.692   8.562   5.755
15407WAT     H146463   2.687   8.588   5.851
15407WAT     H246464   2.787   8.571   5.724
15408WAT      O46465   2.047   3.405   1.973
15408WAT     H146466   2.084   3.318   2.006
15408WAT     H246467   1.992   3.388   1.891
15409WAT      O46468   7.662   0.892   2.417
15409WAT     H146469   7.738   0.955   2.432
15409WAT     H246470   7.698   0.804   2.384
15410WAT      O46471   1.753   2.102   8.451
15410WAT     H146472   1.774   2.177   8.389
15410WAT     H246473   1.792   2.017   8.416
15411WAT      O46474   8.822   2.851   9.208
15411WAT     H146475   8.898   2.912   9.230
15411WAT     H246476   8.850   2.756   9.220
15412WAT      O46477   0.512   1.365   6.532
15412WAT     H146478   0.427   1.358   6.480
15412WAT     H246479   0.524   1.458   6.565
15413WAT      O46480   2.880   5.238   2.051
15413WAT     H146481   2.838   5.234   1.960
15413WAT     H246482   2.977   5.260   2.042
15414WAT      O46483   8.773   9.701   7.722
15414WAT     H146484   8.737   9.608   7.727
15414WAT     H246485   8.700   9.763   7.694
15415WAT      O46486   1.297   3.177   7.197
15415WAT     H146487   1.199   3.191   7.209
15415WAT     H246488   1.315   3.080   7.178
15416WAT      O46489   0.236   2.252   7.927
15416WAT     H146490   0.320   2.261   7.980
15416WAT     H246491   0.165   2.210   7.984
15417WAT      O46492   5.403   1.372   7.882
15417WAT     H146493   5.431   1.406   7.792
15417WAT     H246494   5.484   1.341   7.932
15418WAT      O46495   4.516   6.765   0.208
15418WAT     H146496   4.448   6.698   0.181
15418WAT     H246497   4.477   6.829   0.274
15419WAT      O46498   3.057   6.892   7.303
15419WAT     H146499   2.977   6.914   7.359
15419WAT     H246500   3.103   6.812   7.340
15420WAT      O46501   6.145   1.430   4.201
15420WAT     H146502   6.060   1.396   4.241
15420WAT     H246503   6.175   1.512   4.250
15421WAT      O46504   6.700   3.828   0.934
15421WAT     H146505   6.637   3.865   0.865
15421WAT     H246506   6.695   3.884   1.016
15422WAT      O46507   2.116   6.884   5.656
15422WAT     H146508   2.058   6.907   5.733
15422WAT     H246509   2.127   6.964   5.597
15423WAT      O46510   5.328   3.368   9.741
15423WAT     H146511   5.341   3.385   9.643
15423WAT     H246512   5.230   3.366   9.762
15424WAT      O46513   5.821   9.834   1.102
15424WAT     H146514   5.836   9.921   1.147
15424WAT     H246515   5.896   9.771   1.123
15425WAT      O46516   3.904   3.347   9.803
15425WAT     H146517   3.983   3.293   9.832
15425WAT     H246518   3.911   3.364   9.704
15426WAT      O46519   3.218   4.971   4.566
15426WAT     H146520   3.300   4.968   4.508
15426WAT     H246521   3.163   4.889   4.551
15427WAT      O46522   9.069   6.910   7.445
15427WAT     H146523   9.074   6.913   7.545
15427WAT     H246524   9.128   6.982   7.407
15428WAT      O46525   8.117   3.280   5.508
15428WAT     H146526   8.206   3.323   5.494
15428WAT     H246527   8.125   3.207   5.575
15429WAT      O46528   0.915   3.771   2.732
15429WAT     H146529   0.852   3.838   2.694
15429WAT     H246530   0.964   3.725   2.658
15430WAT      O46531   2.365   3.956   5.350
15430WAT     H146532   2.355   3.986   5.445
15430WAT     H246533   2.461   3.936   5.331
15431WAT      O46534   2.602   3.530   1.259
15431WAT     H146535   2.582   3.460   1.328
15431WAT     H246536   2.626   3.486   1.173
15432WAT      O46537   9.039   4.352   1.782
15432WAT     H146538   8.982   4.391   1.855
15432WAT     H246539   9.093   4.277   1.819
15433WAT      O46540   6.572   0.300   3.506
15433WAT     H146541   6.639   0.254   3.447
15433WAT     H246542   6.604   0.298   3.601
15434WAT      O46543   7.498   4.802   0.774
15434WAT     H146544   7.562   4.822   0.699
15434WAT     H246545   7.411   4.771   0.736
15435WAT      O46546   9.766   7.715   3.224
15435WAT     H146547   9.776   7.617   3.207
15435WAT     H246548   9.675   7.732   3.263
15436WAT      O46549   3.069   2.180   0.247
15436WAT     H146550   3.048   2.083   0.259
15436WAT     H246551   3.049   2.229   0.332
15437WAT      O46552   4.445   0.405   1.855
15437WAT     H146553   4.450   0.471   1.780
15437WAT     H246554   4.355   0.410   1.898
15438WAT      O46555   1.656   3.578   5.077
15438WAT     H146556   1.652   3.625   5.165
15438WAT     H246557   1.731   3.512   5.078
15439WAT      O46558   5.806   2.912   3.798
15439WAT     H146559   5.874   2.926   3.870
15439WAT     H246560   5.715   2.934   3.833
15440WAT      O46561   0.235   2.054   7.057
15440WAT     H146562   0.237   2.084   6.961
15440WAT     H246563   0.329   2.049   7.091
15441WAT      O46564   0.213   8.639   7.723
15441WAT     H146565   0.228   8.641   7.822
15441WAT     H246566   0.250   8.722   7.681
15442WAT      O46567   9.123   2.493   8.913
15442WAT     H146568   9.177   2.564   8.959
15442WAT     H246569   9.045   2.469   8.970
15443WAT      O46570   3.261   7.660   9.055
15443WAT     H146571   3.241   7.573   9.009
15443WAT     H246572   3.193   7.676   9.127
15444WAT      O46573   1.205   6.963   0.610
15444WAT     H146574   1.167   7.002   0.525
15444WAT     H246575   1.146   6.988   0.687
15445WAT      O46576   3.561   7.529   5.845
15445WAT     H146577   3.545   7.441   5.799
15445WAT     H246578   3.656   7.557   5.832
15446WAT      O46579   2.400   8.758   7.912
15446WAT     H146580   2.430   8.845   7.950
15446WAT     H246581   2.330   8.774   7.842
15447WAT      O46582   5.851   0.696   0.852
15447WAT     H146583   5.786   0.741   0.792
15447WAT     H246584   5.928   0.757   0.870
15448WAT      O46585   3.411   0.012   3.051
15448WAT     H146586   3.388   0.069   3.130
15448WAT     H246587   3.392   0.062   2.967
15449WAT      O46588   1.776   2.795   5.232
15449WAT     H146589   1.860   2.832   5.193
15449WAT     H246590   1.699   2.853   5.208
15450WAT      O46591   1.785   3.398   0.868
15450WAT     H146592   1.756   3.487   0.904
15450WAT     H246593   1.707   3.353   0.825
15451WAT      O46594   6.592   6.434   2.965
15451WAT     H146595   6.539   6.436   3.050
15451WAT     H246596   6.538   6.476   2.891
15452WAT      O46597   9.244   0.822   1.141
15452WAT     H146598   9.234   0.856   1.047
15452WAT     H246599   9.262   0.723   1.139
15453WAT      O46600   2.560   3.296   4.516
15453WAT     H146601   2.610   3.316   4.432
15453WAT     H246602   2.462   3.297   4.497
15454WAT      O46603   6.656   6.253   0.686
15454WAT     H146604   6.622   6.161   0.668
15454WAT     H246605   6.745   6.266   0.641
15455WAT      O46606   7.175   8.537   7.033
15455WAT     H146607   7.214   8.445   7.035
15455WAT     H246608   7.181   8.573   6.940
15456WAT      O46609   8.364   4.996   7.681
15456WAT     H146610   8.323   4.985   7.772
15456WAT     H246611   8.429   5.071   7.683
15457WAT      O46612   1.304   2.702   9.188
15457WAT     H146613   1.234   2.648   9.142
15457WAT     H246614   1.259   2.770   9.247
15458WAT      O46615   6.133   0.327   2.917
15458WAT     H146616   6.061   0.317   2.848
15458WAT     H246617   6.218   0.288   2.882
15459WAT      O46618   4.313   3.500   1.611
15459WAT     H146619   4.388   3.439   1.586
15459WAT     H246620   4.226   3.460   1.582
15460WAT      O46621   9.714   1.040   0.564
15460WAT     H146622   9.725   1.052   0.465
15460WAT     H246623   9.779   0.971   0.597
15461WAT      O46624   3.896   8.246   5.132
15461WAT     H146625   3.824   8.228   5.064
15461WAT     H246626   3.982   8.205   5.101
15462WAT      O46627   7.935   2.467   2.174
15462WAT     H146628   7.988   2.463   2.259
15462WAT     H246629   7.981   2.527   2.109
15463WAT      O46630   4.204   8.116   4.087
15463WAT     H146631   4.109   8.138   4.064
15463WAT     H246632   4.266   8.164   4.025
15464WAT      O46633   6.866   0.781   9.058
15464WAT     H146634   6.960   0.793   9.027
15464WAT     H246635   6.826   0.871   9.078
15465WAT      O46636   6.160   1.358   5.543
15465WAT     H146637   6.086   1.292   5.536
15465WAT     H246638   6.145   1.417   5.622
15466WAT      O46639   7.147   6.694   7.512
15466WAT     H146640   7.183   6.604   7.492
15466WAT     H246641   7.083   6.722   7.441
15467WAT      O46642   3.921   1.749   5.514
15467WAT     H146643   3.931   1.692   5.433
15467WAT     H246644   3.991   1.820   5.513
15468WAT      O46645   7.787   3.702   0.107
15468WAT     H146646   7.765   3.620   0.161
15468WAT     H246647   7.761   3.687   0.012
15469WAT      O46648   0.248   3.701   9.403
15469WAT     H146649   0.181   3.705   9.329
15469WAT     H246650   0.216   3.756   9.480
15470WAT      O46651   1.711   5.949   5.772
15470WAT     H146652   1.709   5.875   5.705
15470WAT     H246653   1.621   5.957   5.815
15471WAT      O46654   9.748   7.667   0.892
15471WAT     H146655   9.763   7.646   0.796
15471WAT     H246656   9.793   7.753   0.915
15472WAT      O46657   9.680   3.555   8.847
15472WAT     H146658   9.696   3.472   8.900
15472WAT     H246659   9.710   3.541   8.753
15473WAT      O46660   0.658   9.425   5.493
15473WAT     H146661   0.599   9.344   5.498
15473WAT     H246662   0.604   9.507   5.512
15474WAT      O46663   1.748   9.052   4.138
15474WAT     H146664   1.714   9.109   4.063
15474WAT     H246665   1.706   9.081   4.224
15475WAT      O46666   8.651   0.571   4.174
15475WAT     H146667   8.631   0.669   4.174
15475WAT     H246668   8.672   0.542   4.081
15476WAT      O46669   9.803   4.330   0.576
15476WAT     H146670   9.755   4.251   0.614
15476WAT     H246671   9.756   4.361   0.493
15477WAT      O46672   5.003   3.811   7.530
15477WAT     H146673   5.059   3.816   7.447
15477WAT     H246674   4.974   3.903   7.556
15478WAT      O46675   5.429   4.977   0.602
15478WAT     H146676   5.461   5.048   0.664
15478WAT     H246677   5.343   4.939   0.635
15479WAT      O46678   2.794   0.747   7.225
15479WAT     H146679   2.785   0.649   7.245
15479WAT     H246680   2.715   0.778   7.171
15480WAT      O46681   4.080   2.176   9.199
15480WAT     H146682   4.033   2.233   9.131
15480WAT     H246683   4.177   2.171   9.177
15481WAT      O46684   5.326   3.010   4.783
15481WAT     H146685   5.314   3.015   4.882
15481WAT     H246686   5.423   3.022   4.760
15482WAT      O46687   4.424   5.934   2.570
15482WAT     H146688   4.501   5.878   2.601
15482WAT     H246689   4.342   5.877   2.561
15483WAT      O46690   3.171   0.669   2.652
15483WAT     H146691   3.190   0.728   2.574
15483WAT     H246692   3.103   0.600   2.625
15484WAT      O46693   8.678   9.638   7.053
15484WAT     H146694   8.584   9.614   7.028
15484WAT     H246695   8.734   9.556   7.053
15485WAT      O46696   3.776   4.238   6.067
15485WAT     H146697   3.700   4.173   6.067
15485WAT     H246698   3.751   4.317   6.011
15486WAT      O46699   6.162   8.545   6.077
15486WAT     H146700   6.064   8.528   6.093
15486WAT     H246701   6.216   8.495   6.145
15487WAT      O46702   3.852   6.941   7.140
15487WAT     H146703   3.857   6.884   7.057
15487WAT     H246704   3.943   6.946   7.182
15488WAT      O46705   5.774   1.379   3.406
15488WAT     H146706   5.775   1.378   3.306
15488WAT     H246707   5.757   1.287   3.441
15489WAT      O46708   0.856   8.375   4.218
15489WAT     H146709   0.812   8.431   4.148
15489WAT     H246710   0.900   8.296   4.176
15490WAT      O46711   7.916   1.985   4.047
15490WAT     H146712   8.015   1.972   4.049
15490WAT     H246713   7.871   1.902   4.079
15491WAT      O46714   6.593   0.307   5.157
15491WAT     H146715   6.644   0.344   5.080
15491WAT     H246716   6.594   0.372   5.233
15492WAT      O46717   2.428   1.058   3.531
15492WAT     H146718   2.389   1.113   3.457
15492WAT     H246719   2.359   1.046   3.603
15493WAT      O46720   7.302   7.207   6.353
15493WAT     H146721   7.296   7.107   6.359
15493WAT     H246722   7.297   7.246   6.445
15494WAT      O46723   7.303   2.858   7.373
15494WAT     H146724   7.296   2.920   7.294
15494WAT     H246725   7.307   2.764   7.341
15495WAT      O46726   6.870   3.367   3.400
15495WAT     H146727   6.828   3.360   3.490
15495WAT     H246728   6.901   3.461   3.385
15496WAT      O46729   3.052   2.768   6.386
15496WAT     H146730   3.096   2.811   6.307
15496WAT     H246731   3.104   2.687   6.413
15497WAT      O46732   5.099   1.963   8.390
15497WAT     H146733   5.061   1.870   8.383
15497WAT     H246734   5.163   1.978   8.314
15498WAT      O46735   0.767   1.743   0.115
15498WAT     H146736   0.803   1.749   0.022
15498WAT     H246737   0.732   1.832   0.144
15499WAT      O46738   4.142   4.512   0.755
15499WAT     H146739   4.123   4.447   0.829
15499WAT     H246740   4.055   4.544   0.717
15500WAT      O46741   2.486   9.565   1.995
15500WAT     H146742   2.506   9.583   2.091
15500WAT     H246743   2.498   9.467   1.976
15501WAT      O46744   2.160   4.827   2.006
15501WAT     H146745   2.143   4.780   1.919
15501WAT     H246746   2.167   4.926   1.990
15502WAT      O46747   6.344   4.976   6.148
15502WAT     H146748   6.286   5.021   6.216
15502WAT     H246749   6.431   5.026   6.141
15503WAT      O46750   4.258   0.017   2.008
15503WAT     H146751   4.260  -0.080   1.983
15503WAT     H246752   4.211   0.029   2.095
15504WAT      O46753   0.770   3.953   2.606
15504WAT     H146754   0.782   4.044   2.566
15504WAT     H246755   0.675   3.925   2.596
15505WAT      O46756   7.350   8.759   2.905
15505WAT     H146757   7.284   8.787   2.976
15505WAT     H246758   7.428   8.715   2.948
15506WAT      O46759   9.464   4.801   4.583
15506WAT     H146760   9.385   4.858   4.604
15506WAT     H246761   9.474   4.794   4.483
15507WAT      O46762   5.687   1.195   7.312
15507WAT     H146763   5.678   1.189   7.213
15507WAT     H246764   5.684   1.103   7.352
15508WAT      O46765   2.726   2.904   7.439
15508WAT     H146766   2.747   2.941   7.530
15508WAT     H246767   2.708   2.806   7.446
15509WAT      O46768   2.318   8.866   9.072
15509WAT     H146769   2.387   8.801   9.106
15509WAT     H246770   2.354   8.959   9.079
15510WAT      O46771   8.110   8.597   7.994
15510WAT     H146772   8.092   8.686   7.953
15510WAT     H246773   8.109   8.527   7.923
15511WAT      O46774   0.546   8.877   5.786
15511WAT     H146775   0.517   8.890   5.691
15511WAT     H246776   0.593   8.959   5.818
15512WAT      O46777   5.533   7.516   6.388
15512WAT     H146778   5.513   7.594   6.329
15512WAT     H246779   5.540   7.433   6.334
15513WAT      O46780   4.929   0.539   4.130
15513WAT     H146781   4.867   0.475   4.084
15513WAT     H246782   5.016   0.494   4.149
15514WAT      O46783   2.408   1.203   2.275
15514WAT     H146784   2.430   1.225   2.370
15514WAT     H246785   2.450   1.115   2.251
15515WAT      O46786   6.930   6.336   0.645
15515WAT     H146787   6.922   6.278   0.726
15515WAT     H246788   7.024   6.370   0.637
15516WAT      O46789   5.996   9.111   9.626
15516WAT     H146790   5.992   9.095   9.725
15516WAT     H246791   6.082   9.075   9.590
15517WAT      O46792   0.906   2.029   9.605
15517WAT     H146793   0.920   1.978   9.520
15517WAT     H246794   0.977   2.099   9.614
15518WAT      O46795   9.113   3.626   0.588
15518WAT     H146796   9.153   3.556   0.528
15518WAT     H246797   9.183   3.693   0.612
15519WAT      O46798   6.068   6.201   0.979
15519WAT     H146799   6.131   6.231   0.908
15519WAT     H246800   5.976   6.194   0.941
15520WAT      O46801   1.810   2.999   1.153
15520WAT     H146802   1.717   2.967   1.169
15520WAT     H246803   1.847   2.958   1.070
15521WAT      O46804   3.955   2.118   0.098
15521WAT     H146805   3.989   2.088   0.009
15521WAT     H246806   3.986   2.054   0.168
15522WAT      O46807   0.180   3.880   2.142
15522WAT     H146808   0.164   3.975   2.168
15522WAT     H246809   0.162   3.869   2.045
15523WAT      O46810   7.017   7.726   2.761
15523WAT     H146811   6.932   7.685   2.727
15523WAT     H246812   7.093   7.698   2.703
15524WAT      O46813   2.450   0.137   0.189
15524WAT     H146814   2.437   0.202   0.263
15524WAT     H246815   2.443   0.184   0.101
15525WAT      O46816   2.144   8.434   9.886
15525WAT     H146817   2.132   8.466   9.791
15525WAT     H246818   2.058   8.445   9.935
15526WAT      O46819   2.492   7.426   7.992
15526WAT     H146820   2.485   7.381   8.082
15526WAT     H246821   2.522   7.359   7.924
15527WAT      O46822   5.383   9.308   6.398
15527WAT     H146823   5.350   9.395   6.435
15527WAT     H246824   5.465   9.325   6.343
15528WAT      O46825   7.615   9.025   1.865
15528WAT     H146826   7.671   9.107   1.852
15528WAT     H246827   7.579   9.025   1.959
15529WAT      O46828   3.294   1.311   8.542
15529WAT     H146829   3.328   1.231   8.493
15529WAT     H246830   3.217   1.284   8.600
15530WAT      O46831   5.078   0.347   6.562
15530WAT     H146832   5.003   0.284   6.581
15530WAT     H246833   5.162   0.295   6.546
15531WAT      O46834   9.139   4.448   9.104
15531WAT     H146835   9.055   4.435   9.156
15531WAT     H246836   9.168   4.543   9.112
15532WAT      O46837   0.794   4.732   8.855
15532WAT     H146838   0.708   4.734   8.907
15532WAT     H246839   0.866   4.775   8.909
15533WAT      O46840   1.653   1.162   9.302
15533WAT     H146841   1.748   1.138   9.321
15533WAT     H246842   1.605   1.083   9.263
15534WAT      O46843   8.799   3.524   6.630
15534WAT     H146844   8.807   3.564   6.539
15534WAT     H246845   8.807   3.596   6.699
15535WAT      O46846   9.614   1.342   2.809
15535WAT     H146847   9.673   1.261   2.814
15535WAT     H246848   9.654   1.416   2.864
15536WAT      O46849   3.459   5.497   7.522
15536WAT     H146850   3.361   5.480   7.529
15536WAT     H246851   3.492   5.537   7.607
15537WAT      O46852   2.051   1.111   6.897
15537WAT     H146853   2.113   1.049   6.848
15537WAT     H246854   1.959   1.073   6.897
15538WAT      O46855   4.490   9.010   3.186
15538WAT     H146856   4.391   9.004   3.176
15538WAT     H246857   4.512   9.061   3.270
15539WAT      O46858   4.281   0.395   4.782
15539WAT     H146859   4.294   0.296   4.778
15539WAT     H246860   4.242   0.420   4.871
15540WAT      O46861   1.838   8.604   7.886
15540WAT     H146862   1.756   8.554   7.860
15540WAT     H246863   1.833   8.629   7.982
15541WAT      O46864   7.531   0.541   4.420
15541WAT     H146865   7.501   0.457   4.466
15541WAT     H246866   7.527   0.527   4.321
15542WAT      O46867   7.294   0.821   6.005
15542WAT     H146868   7.390   0.842   5.984
15542WAT     H246869   7.260   0.754   5.939
15543WAT      O46870   5.801   7.987   8.891
15543WAT     H146871   5.828   8.058   8.827
15543WAT     H246872   5.761   7.910   8.841
15544WAT      O46873   0.856   2.391   5.058
15544WAT     H146874   0.843   2.488   5.039
15544WAT     H246875   0.767   2.347   5.070
15545WAT      O46876   3.675   8.032   9.431
15545WAT     H146877   3.775   8.028   9.426
15545WAT     H246878   3.636   7.961   9.372
15546WAT      O46879   6.329   6.034   4.838
15546WAT     H146880   6.397   6.049   4.766
15546WAT     H246881   6.361   5.959   4.897
15547WAT      O46882   1.374   5.030   2.366
15547WAT     H146883   1.332   5.110   2.410
15547WAT     H246884   1.422   5.059   2.283
15548WAT      O46885   6.652   3.758   7.621
15548WAT     H146886   6.719   3.784   7.690
15548WAT     H246887   6.561   3.755   7.663
15549WAT      O46888   1.709   1.859   9.870
15549WAT     H146889   1.802   1.824   9.857
15549WAT     H246890   1.650   1.785   9.902
15550WAT      O46891   0.833   2.978   0.324
15550WAT     H146892   0.895   2.947   0.395
15550WAT     H246893   0.884   2.994   0.239
15551WAT      O46894   3.120   9.487   9.352
15551WAT     H146895   3.127   9.430   9.434
15551WAT     H246896   3.023   9.503   9.332
15552WAT      O46897   1.397   5.351   4.804
15552WAT     H146898   1.436   5.441   4.785
15552WAT     H246899   1.462   5.280   4.776
15553WAT      O46900   7.082   3.400   5.702
15553WAT     H146901   7.081   3.399   5.602
15553WAT     H246902   7.063   3.493   5.734
15554WAT      O46903   2.698   5.666   2.709
15554WAT     H146904   2.654   5.610   2.639
15554WAT     H246905   2.641   5.665   2.792
15555WAT      O46906   2.844   4.441   2.992
15555WAT     H146907   2.827   4.345   2.971
15555WAT     H246908   2.934   4.467   2.956
15556WAT      O46909   1.699   1.303   9.019
15556WAT     H146910   1.650   1.294   9.105
15556WAT     H246911   1.633   1.304   8.943
15557WAT      O46912   3.241   3.359   1.484
15557WAT     H146913   3.216   3.276   1.434
15557WAT     H246914   3.195   3.438   1.444
15558WAT      O46915   3.410   8.120   3.823
15558WAT     H146916   3.395   8.032   3.867
15558WAT     H246917   3.438   8.106   3.728
15559WAT      O46918   9.545   3.970   8.512
15559WAT     H146919   9.549   3.870   8.503
15559WAT     H246920   9.554   4.012   8.422
15560WAT      O46921   0.257   6.081   5.204
15560WAT     H146922   0.344   6.118   5.237
15560WAT     H246923   0.212   6.032   5.278
15561WAT      O46924   4.502   0.122   1.955
15561WAT     H146925   4.409   0.103   1.986
15561WAT     H246926   4.503   0.208   1.904
15562WAT      O46927   2.900   6.051   5.658
15562WAT     H146928   2.954   6.069   5.740
15562WAT     H246929   2.806   6.079   5.673
15563WAT      O46930   7.278   4.019   1.883
15563WAT     H146931   7.279   3.973   1.795
15563WAT     H246932   7.370   4.051   1.905
15564WAT      O46933   3.232   8.884   9.658
15564WAT     H146934   3.319   8.853   9.697
15564WAT     H246935   3.220   8.844   9.567
15565WAT      O46936   6.452   3.354   8.443
15565WAT     H146937   6.522   3.282   8.442
15565WAT     H246938   6.365   3.314   8.473
15566WAT      O46939   5.871   0.453   8.685
15566WAT     H146940   5.917   0.423   8.768
15566WAT     H246941   5.860   0.553   8.688
15567WAT      O46942   6.434   1.715   0.131
15567WAT     H146943   6.369   1.754   0.196
15567WAT     H246944   6.396   1.721   0.038
15568WAT      O46945   8.685   2.022   7.424
15568WAT     H146946   8.687   1.996   7.521
15568WAT     H246947   8.698   1.941   7.367
15569WAT      O46948   4.652   6.519   4.709
15569WAT     H146949   4.688   6.517   4.802
15569WAT     H246950   4.727   6.520   4.643
15570WAT      O46951   3.692   2.004   0.444
15570WAT     H146952   3.610   2.048   0.480
15570WAT     H246953   3.689   1.906   0.466
15571WAT      O46954   8.797   7.439   6.926
15571WAT     H146955   8.838   7.515   6.975
15571WAT     H246956   8.742   7.384   6.989
15572WAT      O46957   2.722   7.726   5.285
15572WAT     H146958   2.790   7.693   5.351
15572WAT     H246959   2.749   7.699   5.193
15573WAT      O46960   7.950   6.238   8.936
15573WAT     H146961   8.024   6.290   8.978
15573WAT     H246962   7.918   6.169   9.000
15574WAT      O46963   1.799   4.490   7.877
15574WAT     H146964   1.871   4.424   7.900
15574WAT     H246965   1.782   4.550   7.955
15575WAT      O46966   8.168   4.872   9.571
15575WAT     H146967   8.266   4.857   9.586
15575WAT     H246968   8.142   4.836   9.482
15576WAT      O46969   8.478   8.297   9.191
15576WAT     H146970   8.418   8.373   9.168
15576WAT     H246971   8.439   8.245   9.267
15577WAT      O46972   9.308   5.788   4.010
15577WAT     H146973   9.296   5.743   4.098
15577WAT     H246974   9.401   5.824   4.004
15578WAT      O46975   5.441   5.958   7.751
15578WAT     H146976   5.386   5.965   7.668
15578WAT     H246977   5.391   5.996   7.828
15579WAT      O46978   1.549   0.938   9.205
15579WAT     H146979   1.516   0.854   9.248
15579WAT     H246980   1.482   0.970   9.137
15580WAT      O46981   0.176   5.375   5.013
15580WAT     H146982   0.123   5.343   5.092
15580WAT     H246983   0.257   5.425   5.046
15581WAT      O46984   0.456   1.146   7.027
15581WAT     H146985   0.493   1.169   6.937
15581WAT     H246986   0.481   1.051   7.049
15582WAT      O46987   1.898   2.662   6.500
15582WAT     H146988   1.929   2.673   6.406
15582WAT     H246989   1.820   2.722   6.517
15583WAT      O46990   5.832   0.075   8.876
15583WAT     H146991   5.824   0.019   8.959
15583WAT     H246992   5.907   0.041   8.820
15584WAT      O46993   0.046   4.046   4.766
15584WAT     H146994  -0.046   4.083   4.763
15584WAT     H246995   0.070   4.023   4.861
15585WAT      O46996   3.386   8.600   9.777
15585WAT     H146997   3.381   8.573   9.681
15585WAT     H246998   3.432   8.688   9.785
15586WAT      O46999   1.789   7.589   3.111
15586WAT     H147000   1.762   7.659   3.045
15586WAT     H247001   1.888   7.580   3.112
15587WAT      O47002   7.750   0.176   6.474
15587WAT     H147003   7.787   0.269   6.480
15587WAT     H247004   7.663   0.171   6.522
15588WAT      O47005   9.120   7.602   8.323
15588WAT     H147006   9.208   7.575   8.284
15588WAT     H247007   9.087   7.530   8.385
15589WAT      O47008   5.186   8.793   1.157
15589WAT     H147009   5.141   8.704   1.151
15589WAT     H247010   5.243   8.807   1.075
15590WAT      O47011   8.372   9.634   5.804
15590WAT     H147012   8.460   9.649   5.848
15590WAT     H247013   8.346   9.537   5.813
15591WAT      O47014   5.116   4.548   2.320
15591WAT     H147015   5.048   4.559   2.393
15591WAT     H247016   5.088   4.473   2.260
15592WAT      O47017   0.883   0.708   6.672
15592WAT     H147018   0.952   0.738   6.738
15592WAT     H247019   0.832   0.787   6.638
15593WAT      O47020   9.414   0.501   5.849
15593WAT     H147021   9.394   0.565   5.924
15593WAT     H247022   9.350   0.518   5.774
15594WAT      O47023   5.796   5.253   1.188
15594WAT     H147024   5.757   5.344   1.178
15594WAT     H247025   5.759   5.209   1.270
15595WAT      O47026   1.384   5.046   3.035
15595WAT     H147027   1.453   5.118   3.031
15595WAT     H247028   1.410   4.979   3.104
15596WAT      O47029   7.161   7.689   7.578
15596WAT     H147030   7.067   7.718   7.563
15596WAT     H247031   7.194   7.640   7.497
15597WAT      O47032   8.043   4.223   7.441
15597WAT     H147033   8.021   4.170   7.359
15597WAT     H247034   8.033   4.166   7.522
15598WAT      O47035   5.951   1.332   4.539
15598WAT     H147036   5.859   1.313   4.574
15598WAT     H247037   6.019   1.302   4.605
15599WAT      O47038   9.744   8.972   0.244
15599WAT     H147039   9.676   8.919   0.294
15599WAT     H247040   9.822   8.992   0.304
15600WAT      O47041   7.517   3.798   0.065
15600WAT     H147042   7.559   3.859   0.132
15600WAT     H247043   7.575   3.794  -0.017
15601WAT      O47044   1.040   3.233   3.297
15601WAT     H147045   0.971   3.260   3.364
15601WAT     H247046   1.009   3.152   3.248
15602WAT      O47047   2.840   0.145   1.172
15602WAT     H147048   2.800   0.058   1.145
15602WAT     H247049   2.914   0.168   1.109
15603WAT      O47050   3.033   4.303   7.472
15603WAT     H147051   3.096   4.226   7.474
15603WAT     H247052   3.061   4.371   7.539
15604WAT      O47053   1.629   3.541   2.894
15604WAT     H147054   1.697   3.510   2.829
15604WAT     H247055   1.635   3.486   2.978
15605WAT      O47056   0.831   2.139   3.097
15605WAT     H147057   0.813   2.148   3.195
15605WAT     H247058   0.829   2.042   3.072
15606WAT      O47059   6.514   1.947   2.305
15606WAT     H147060   6.544   2.017   2.241
15606WAT     H247061   6.418   1.963   2.329
15607WAT      O47062   8.254   0.305   9.818
15607WAT     H147063   8.184   0.367   9.853
15607WAT     H247064   8.298   0.259   9.894
15608WAT      O47065   8.377   3.619   4.337
15608WAT     H147066   8.406   3.715   4.330
15608WAT     H247067   8.291   3.615   4.388
15609WAT      O47068   6.851   9.397   2.716
15609WAT     H147069   6.831   9.336   2.793
15609WAT     H247070   6.873   9.488   2.750
15610WAT      O47071   1.119   7.692   1.497
15610WAT     H147072   1.154   7.601   1.473
15610WAT     H247073   1.116   7.701   1.596
15611WAT      O47074   0.744   1.452   8.178
15611WAT     H147075   0.831   1.413   8.209
15611WAT     H247076   0.722   1.416   8.088
15612WAT      O47077   7.232   6.504   3.003
15612WAT     H147078   7.240   6.528   3.099
15612WAT     H247079   7.207   6.407   2.995
15613WAT      O47080   8.223   5.892   7.946
15613WAT     H147081   8.142   5.871   7.891
15613WAT     H247082   8.205   5.869   8.041
15614WAT      O47083   3.794   5.080   7.364
15614WAT     H147084   3.890   5.093   7.389
15614WAT     H247085   3.735   5.113   7.437
15615WAT      O47086   0.816   7.435   7.886
15615WAT     H147087   0.791   7.450   7.790
15615WAT     H247088   0.911   7.406   7.892
15616WAT      O47089   5.080   3.027   4.324
15616WAT     H147090   5.048   2.938   4.292
15616WAT     H247091   5.163   3.015   4.378
15617WAT      O47092   1.227   2.394   9.417
15617WAT     H147093   1.234   2.489   9.386
15617WAT     H247094   1.317   2.362   9.445
15618WAT      O47095   5.753   0.751   5.630
15618WAT     H147096   5.829   0.778   5.690
15618WAT     H247097   5.717   0.832   5.584
15619WAT      O47098   6.390   5.661   7.633
15619WAT     H147099   6.456   5.673   7.708
15619WAT     H247100   6.298   5.681   7.666
15620WAT      O47101   5.273   5.041   7.674
15620WAT     H147102   5.307   5.046   7.768
15620WAT     H247103   5.267   4.946   7.646
15621WAT      O47104   2.073   6.788   9.430
15621WAT     H147105   2.124   6.837   9.359
15621WAT     H247106   2.024   6.854   9.487
15622WAT      O47107   0.241   1.304   6.631
15622WAT     H147108   0.261   1.329   6.726
15622WAT     H247109   0.247   1.386   6.573
15623WAT      O47110   2.927   8.548   7.391
15623WAT     H147111   3.019   8.555   7.353
15623WAT     H247112   2.904   8.452   7.406
15624WAT      O47113   0.113   2.559   0.392
15624WAT     H147114   0.088   2.583   0.299
15624WAT     H247115   0.146   2.640   0.440
15625WAT      O47116   8.117   6.922   5.730
15625WAT     H147117   8.148   6.880   5.644
15625WAT     H247118   8.189   6.982   5.765
15626WAT      O47119   4.147   4.350   1.199
15626WAT     H147120   4.160   4.261   1.243
15626WAT     H247121   4.148   4.422   1.269
15627WAT      O47122   8.774   3.353   5.284
15627WAT     H147123   8.758   3.352   5.185
15627WAT     H247124   8.693   3.388   5.330
15628WAT      O47125   8.469   8.614   4.604
15628WAT     H147126   8.502   8.526   4.638
15628WAT     H247127   8.422   8.663   4.678
15629WAT      O47128   6.661   0.048   0.103
15629WAT     H147129   6.731   0.117   0.083
15629WAT     H247130   6.621   0.066   0.192
15630WAT      O47131   9.452   8.959   9.704
15630WAT     H147132   9.473   9.043   9.653
15630WAT     H247133   9.528   8.895   9.695
15631WAT      O47134   3.849   0.800   0.588
15631WAT     H147135   3.894   0.793   0.677
15631WAT     H247136   3.905   0.856   0.527
15632WAT      O47137   0.529   9.660   6.771
15632WAT     H147138   0.616   9.629   6.810
15632WAT     H247139   0.467   9.582   6.761
15633WAT      O47140   6.441   6.445   2.436
15633WAT     H147141   6.476   6.354   2.458
15633WAT     H247142   6.517   6.511   2.438
15634WAT      O47143   5.886   6.854   7.609
15634WAT     H147144   5.979   6.857   7.644
15634WAT     H247145   5.822   6.876   7.683
15635WAT      O47146   5.040   6.632   9.654
15635WAT     H147147   5.124   6.664   9.698
15635WAT     H247148   4.963   6.647   9.716
15636WAT      O47149   0.592   6.011   4.721
15636WAT     H147150   0.620   6.101   4.755
15636WAT     H247151   0.641   5.939   4.770
15637WAT      O47152   3.662   0.706   8.580
15637WAT     H147153   3.716   0.644   8.523
15637WAT     H247154   3.659   0.796   8.536
15638WAT      O47155   3.457   8.790   2.277
15638WAT     H147156   3.476   8.831   2.367
15638WAT     H247157   3.490   8.695   2.277
15639WAT      O47158   0.101   5.024   8.082
15639WAT     H147159   0.121   5.077   8.164
15639WAT     H247160   0.003   5.023   8.066
15640WAT      O47161   8.288   7.664   0.243
15640WAT     H147162   8.264   7.573   0.276
15640WAT     H247163   8.223   7.731   0.279
15641WAT      O47164   3.054   3.260   6.116
15641WAT     H147165   3.076   3.205   6.035
15641WAT     H247166   2.955   3.276   6.119
15642WAT      O47167   4.848   4.607   5.294
15642WAT     H147168   4.827   4.520   5.249
15642WAT     H247169   4.784   4.622   5.369
15643WAT      O47170   1.651   2.380   8.625
15643WAT     H147171   1.569   2.353   8.576
15643WAT     H247172   1.671   2.312   8.696
15644WAT      O47173   2.446   4.149   0.808
15644WAT     H147174   2.410   4.206   0.882
15644WAT     H247175   2.370   4.105   0.759
15645WAT      O47176   5.159   1.690   9.851
15645WAT     H147177   5.190   1.630   9.925
15645WAT     H247178   5.080   1.649   9.806
15646WAT      O47179   5.018   9.526   6.851
15646WAT     H147180   4.995   9.430   6.840
15646WAT     H247181   5.086   9.536   6.923
15647WAT      O47182   5.954   0.004   9.204
15647WAT     H147183   5.897   0.069   9.254
15647WAT     H247184   5.895  -0.054   9.148
15648WAT      O47185   4.222   1.699   1.328
15648WAT     H147186   4.256   1.793   1.321
15648WAT     H247187   4.125   1.697   1.303
15649WAT      O47188   4.192   5.237   5.240
15649WAT     H147189   4.223   5.308   5.178
15649WAT     H247190   4.167   5.278   5.328
15650WAT      O47191   0.628   9.471   2.944
15650WAT     H147192   0.687   9.468   3.025
15650WAT     H247193   0.620   9.565   2.912
15651WAT      O47194   4.993   9.637   8.372
15651WAT     H147195   5.056   9.700   8.326
15651WAT     H247196   5.042   9.588   8.444
15652WAT      O47197   6.580   4.409   5.642
15652WAT     H147198   6.540   4.434   5.730
15652WAT     H247199   6.676   4.383   5.656
15653WAT      O47200   9.400   9.473   6.261
15653WAT     H147201   9.333   9.410   6.301
15653WAT     H247202   9.352   9.552   6.223
15654WAT      O47203   0.193   3.823   6.521
15654WAT     H147204   0.218   3.749   6.459
15654WAT     H247205   0.104   3.802   6.563
15655WAT      O47206   6.071   0.860   0.918
15655WAT     H147207   6.123   0.935   0.878
15655WAT     H247208   6.012   0.895   0.991
15656WAT      O47209   3.000   9.767   6.734
15656WAT     H147210   2.993   9.833   6.659
15656WAT     H247211   2.980   9.813   6.821
15657WAT      O47212   1.501   0.608   5.952
15657WAT     H147213   1.580   0.670   5.944
15657WAT     H247214   1.436   0.629   5.879
15658WAT      O47215   8.045   9.183   8.903
15658WAT     H147216   8.067   9.162   8.999
15658WAT     H247217   7.970   9.249   8.900
15659WAT      O47218   7.620   9.416   5.331
15659WAT     H147219   7.697   9.387   5.273
15659WAT     H247220   7.608   9.515   5.321
15660WAT      O47221   0.274   1.499   8.912
15660WAT     H147222   0.284   1.495   8.813
15660WAT     H247223   0.214   1.574   8.936
15661WAT      O47224   3.575   3.896   1.244
15661WAT     H147225   3.570   3.985   1.200
15661WAT     H247226   3.496   3.883   1.304
15662WAT      O47227   9.216   2.238   8.792
15662WAT     H147228   9.158   2.199   8.864
15662WAT     H247229   9.210   2.338   8.795
15663WAT      O47230   7.721   9.066   4.526
15663WAT     H147231   7.632   9.079   4.568
15663WAT     H247232   7.709   9.037   4.431
15664WAT      O47233   2.525   6.230   4.920
15664WAT     H147234   2.574   6.311   4.891
15664WAT     H247235   2.448   6.213   4.857
15665WAT      O47236   9.056   8.214   5.645
15665WAT     H147237   9.088   8.245   5.734
15665WAT     H247238   9.125   8.234   5.575
15666WAT      O47239   5.467   1.957   4.857
15666WAT     H147240   5.442   1.990   4.766
15666WAT     H247241   5.566   1.965   4.870
15667WAT      O47242   4.440   8.823   0.513
15667WAT     H147243   4.533   8.788   0.519
15667WAT     H247244   4.406   8.846   0.604
15668WAT      O47245   1.974   2.607   1.356
15668WAT     H147246   1.965   2.698   1.317
15668WAT     H247247   1.953   2.538   1.287
15669WAT      O47248   7.452   6.503   8.764
15669WAT     H147249   7.517   6.545   8.827
15669WAT     H247250   7.362   6.496   8.808
15670WAT      O47251   6.790   2.180   7.695
15670WAT     H147252   6.752   2.254   7.751
15670WAT     H247253   6.731   2.100   7.700
15671WAT      O47254   4.272   7.505   8.170
15671WAT     H147255   4.221   7.460   8.096
15671WAT     H247256   4.370   7.489   8.158
15672WAT      O47257   0.427   3.859   0.697
15672WAT     H147258   0.510   3.804   0.707
15672WAT     H247259   0.357   3.825   0.760
15673WAT      O47260   6.175   8.529   3.069
15673WAT     H147261   6.130   8.507   3.156
15673WAT     H247262   6.110   8.573   3.008
15674WAT      O47263   1.873   3.495   6.159
15674WAT     H147264   1.887   3.492   6.060
15674WAT     H247265   1.858   3.590   6.188
15675WAT      O47266   3.334   6.627   1.016
15675WAT     H147267   3.318   6.700   1.082
15675WAT     H247268   3.416   6.649   0.962
15676WAT      O47269   5.931   0.978   4.181
15676WAT     H147270   6.025   1.013   4.181
15676WAT     H247271   5.931   0.883   4.212
15677WAT      O47272   4.538   2.569   5.817
15677WAT     H147273   4.492   2.614   5.894
15677WAT     H247274   4.601   2.633   5.774
15678WAT      O47275   0.849   0.127   8.016
15678WAT     H147276   0.942   0.090   8.010
15678WAT     H247277   0.796   0.093   7.938
15679WAT      O47278   9.129   7.641   0.625
15679WAT     H147279   9.146   7.659   0.721
15679WAT     H247280   9.215   7.643   0.574
15680WAT      O47281   6.902   2.233   4.412
15680WAT     H147282   6.877   2.138   4.395
15680WAT     H247283   6.933   2.275   4.327
15681WAT      O47284   3.591   0.426   9.295
15681WAT     H147285   3.590   0.494   9.369
15681WAT     H247286   3.575   0.335   9.334
15682WAT      O47287   6.917   6.129   0.291
15682WAT     H147288   6.841   6.064   0.283
15682WAT     H247289   6.880   6.222   0.301
15683WAT      O47290   7.249   1.016   3.688
15683WAT     H147291   7.156   1.052   3.699
15683WAT     H247292   7.283   0.985   3.777
15684WAT      O47293   5.470   2.955   0.905
15684WAT     H147294   5.443   2.998   0.991
15684WAT     H247295   5.568   2.934   0.907
15685WAT      O47296   1.056   4.383   7.518
15685WAT     H147297   1.113   4.381   7.600
15685WAT     H247298   0.967   4.342   7.539
15686WAT      O47299   9.714   3.692   4.624
15686WAT     H147300   9.810   3.664   4.621
15686WAT     H247301   9.704   3.784   4.588
15687WAT      O47302   1.782   8.746   5.578
15687WAT     H147303   1.689   8.720   5.553
15687WAT     H247304   1.807   8.701   5.664
15688WAT      O47305   6.950   6.586   0.077
15688WAT     H147306   6.999   6.663   0.036
15688WAT     H247307   6.858   6.614   0.102
15689WAT      O47308   1.079   5.928   1.856
15689WAT     H147309   1.097   5.853   1.793
15689WAT     H247310   1.151   5.932   1.925
15690WAT      O47311   7.066   4.661   4.846
15690WAT     H147312   6.979   4.689   4.887
15690WAT     H247313   7.051   4.580   4.788
15691WAT      O47314   9.757   6.120   7.739
15691WAT     H147315   9.742   6.119   7.640
15691WAT     H247316   9.671   6.136   7.786
15692WAT      O47317   6.733   4.288   6.480
15692WAT     H147318   6.689   4.215   6.533
15692WAT     H247319   6.713   4.275   6.383
15693WAT      O47320   3.810   0.208   3.710
15693WAT     H147321   3.829   0.174   3.618
15693WAT     H247322   3.828   0.306   3.714
15694WAT      O47323   6.785   5.862   5.527
15694WAT     H147324   6.731   5.932   5.574
15694WAT     H247325   6.831   5.804   5.595
15695WAT      O47326   8.205   8.540   0.429
15695WAT     H147327   8.218   8.516   0.526
15695WAT     H247328   8.107   8.554   0.411
15696WAT      O47329   1.473   5.967   4.092
15696WAT     H147330   1.425   6.018   4.164
15696WAT     H247331   1.449   6.006   4.003
15697WAT      O47332   6.394   0.436   7.004
15697WAT     H147333   6.410   0.343   7.039
15697WAT     H247334   6.464   0.459   6.937
15698WAT      O47335   9.483   4.486   8.300
15698WAT     H147336   9.492   4.523   8.208
15698WAT     H247337   9.422   4.406   8.298
15699WAT      O47338   5.497   0.790   3.513
15699WAT     H147339   5.552   0.758   3.436
15699WAT     H247340   5.418   0.840   3.479
15700WAT      O47341   7.568   1.913   0.565
15700WAT     H147342   7.613   1.967   0.635
15700WAT     H247343   7.637   1.869   0.507
15701WAT      O47344   6.649   2.090   0.587
15701WAT     H147345   6.652   1.991   0.604
15701WAT     H247346   6.682   2.138   0.669
15702WAT      O47347   9.194   3.720   9.392
15702WAT     H147348   9.234   3.767   9.313
15702WAT     H247349   9.149   3.636   9.362
15703WAT      O47350   4.335   7.266   2.255
15703WAT     H147351   4.263   7.319   2.210
15703WAT     H247352   4.324   7.271   2.354
15704WAT      O47353   5.128   4.226   8.431
15704WAT     H147354   5.135   4.218   8.531
15704WAT     H247355   5.064   4.156   8.397
15705WAT      O47356   7.595   1.974   9.594
15705WAT     H147357   7.665   1.933   9.652
15705WAT     H247358   7.517   1.911   9.586
15706WAT      O47359   9.857   7.454   0.349
15706WAT     H147360   9.855   7.410   0.439
15706WAT     H247361   9.800   7.401   0.286
15707WAT      O47362   3.198   7.541   7.944
15707WAT     H147363   3.120   7.556   7.884
15707WAT     H247364   3.242   7.628   7.965
15708WAT      O47365   7.688   4.541   1.440
15708WAT     H147366   7.634   4.467   1.479
15708WAT     H247367   7.633   4.590   1.372
15709WAT      O47368   8.275   8.540   0.683
15709WAT     H147369   8.373   8.553   0.669
15709WAT     H247370   8.249   8.576   0.773
15710WAT      O47371   9.587   6.472   5.872
15710WAT     H147372   9.572   6.559   5.918
15710WAT     H247373   9.670   6.477   5.817
15711WAT      O47374   1.482   4.634   6.580
15711WAT     H147375   1.541   4.705   6.619
15711WAT     H247376   1.447   4.664   6.491
15712WAT      O47377   0.411   5.524   9.768
15712WAT     H147378   0.462   5.582   9.832
15712WAT     H247379   0.351   5.581   9.712
15713WAT      O47380   8.042   5.842   9.331
15713WAT     H147381   8.068   5.938   9.322
15713WAT     H247382   8.099   5.799   9.401
15714WAT      O47383   2.401   7.797   2.566
15714WAT     H147384   2.429   7.771   2.473
15714WAT     H247385   2.379   7.895   2.568
15715WAT      O47386   0.438   3.056   0.519
15715WAT     H147387   0.440   2.996   0.599
15715WAT     H247388   0.343   3.077   0.496
15716WAT      O47389   1.796   8.979   0.503
15716WAT     H147390   1.783   8.939   0.594
15716WAT     H247391   1.802   9.078   0.511
15717WAT      O47392   9.290   3.407   9.517
15717WAT     H147393   9.381   3.446   9.498
15717WAT     H247394   9.233   3.416   9.436
15718WAT      O47395   3.295   9.802   4.753
15718WAT     H147396   3.320   9.885   4.803
15718WAT     H247397   3.282   9.824   4.656
15719WAT      O47398   2.820   5.013   2.353
15719WAT     H147399   2.740   5.010   2.293
15719WAT     H247400   2.842   5.108   2.375
15720WAT      O47401   0.114   7.896   9.735
15720WAT     H147402   0.208   7.860   9.741
15720WAT     H247403   0.051   7.830   9.777
15721WAT      O47404   6.722   1.237   1.366
15721WAT     H147405   6.634   1.273   1.336
15721WAT     H247406   6.793   1.306   1.352
15722WAT      O47407   4.748   1.429   1.331
15722WAT     H147408   4.842   1.464   1.327
15722WAT     H247409   4.694   1.472   1.259
15723WAT      O47410   3.692   5.938   1.213
15723WAT     H147411   3.654   5.891   1.293
15723WAT     H247412   3.687   6.037   1.228
15724WAT      O47413   0.628   1.058   8.086
15724WAT     H147414   0.532   1.035   8.070
15724WAT     H247415   0.655   1.132   8.025
15725WAT      O47416   4.910   3.909   3.638
15725WAT     H147417   4.856   3.912   3.553
15725WAT     H247418   4.997   3.863   3.620
15726WAT      O47419   7.854   7.160   3.266
15726WAT     H147420   7.762   7.195   3.248
15726WAT     H247421   7.848   7.080   3.327
15727WAT      O47422   8.285   1.762   4.950
15727WAT     H147423   8.362   1.736   5.008
15727WAT     H247424   8.206   1.705   4.973
15728WAT      O47425   8.532   0.849   8.899
15728WAT     H147426   8.564   0.873   8.807
15728WAT     H247427   8.610   0.829   8.958
15729WAT      O47428   2.140   9.776   4.790
15729WAT     H147429   2.109   9.764   4.884
15729WAT     H247430   2.094   9.854   4.749
15730WAT      O47431   0.961   3.714   8.867
15730WAT     H147432   1.019   3.791   8.894
15730WAT     H247433   1.014   3.652   8.809
15731WAT      O47434   0.312   8.063   8.322
15731WAT     H147435   0.395   8.078   8.376
15731WAT     H247436   0.315   7.971   8.282
15732WAT      O47437   2.023   2.638   7.560
15732WAT     H147438   1.942   2.588   7.588
15732WAT     H247439   2.103   2.603   7.608
15733WAT      O47440   1.927   7.782   5.438
15733WAT     H147441   1.908   7.864   5.384
15733WAT     H247442   1.844   7.728   5.448
15734WAT      O47443   4.788   2.250   4.939
15734WAT     H147444   4.873   2.301   4.957
15734WAT     H247445   4.716   2.314   4.913
15735WAT      O47446   2.451   0.508   3.228
15735WAT     H147447   2.428   0.501   3.325
15735WAT     H247448   2.478   0.602   3.206
15736WAT      O47449   0.442   7.641   0.745
15736WAT     H147450   0.447   7.693   0.660
15736WAT     H247451   0.353   7.595   0.752
15737WAT      O47452   2.637   0.184   5.894
15737WAT     H147453   2.613   0.151   5.985
15737WAT     H247454   2.685   0.272   5.901
15738WAT      O47455   7.769   6.729   8.236
15738WAT     H147456   7.680   6.775   8.240
15738WAT     H247457   7.762   6.640   8.281
15739WAT      O47458   2.288   9.089   9.740
15739WAT     H147459   2.200   9.090   9.692
15739WAT     H247460   2.283   9.027   9.818
15740WAT      O47461   2.251   5.936   8.827
15740WAT     H147462   2.270   5.838   8.836
15740WAT     H247463   2.336   5.988   8.832
15741WAT      O47464   2.278   9.583   7.809
15741WAT     H147465   2.347   9.530   7.858
15741WAT     H247466   2.224   9.635   7.875
15742WAT      O47467   3.027   4.353   4.969
15742WAT     H147468   3.015   4.288   4.894
15742WAT     H247469   2.938   4.388   4.997
15743WAT      O47470   6.310   2.078   3.968
15743WAT     H147471   6.248   2.025   3.911
15743WAT     H247472   6.350   2.153   3.914
15744WAT      O47473   6.820   8.159   9.764
15744WAT     H147474   6.852   8.202   9.848
15744WAT     H247475   6.891   8.099   9.728
15745WAT      O47476   7.244   6.625   1.240
15745WAT     H147477   7.158   6.663   1.208
15745WAT     H247478   7.319   6.660   1.183
15746WAT      O47479   0.227   1.999   9.002
15746WAT     H147480   0.223   1.941   8.921
15746WAT     H247481   0.136   2.035   9.022
15747WAT      O47482   9.585   8.706   7.201
15747WAT     H147483   9.612   8.669   7.290
15747WAT     H247484   9.664   8.750   7.158
15748WAT      O47485   0.257   4.838   5.124
15748WAT     H147486   0.230   4.861   5.030
15748WAT     H247487   0.328   4.769   5.122
15749WAT      O47488   8.483   5.553   7.620
15749WAT     H147489   8.419   5.484   7.653
15749WAT     H247490   8.503   5.538   7.524
15750WAT      O47491   6.564   7.755   4.735
15750WAT     H147492   6.630   7.773   4.808
15750WAT     H247493   6.558   7.657   4.719
15751WAT      O47494   5.120   4.843   8.728
15751WAT     H147495   5.043   4.779   8.717
15751WAT     H247496   5.119   4.880   8.821
15752WAT      O47497   9.759   5.512   8.620
15752WAT     H147498   9.671   5.557   8.636
15752WAT     H247499   9.779   5.511   8.522
15753WAT      O47500   3.939   7.291   0.602
15753WAT     H147501   4.011   7.360   0.611
15753WAT     H247502   3.978   7.207   0.565
15754WAT      O47503   5.004   7.290   4.946
15754WAT     H147504   5.074   7.361   4.954
15754WAT     H247505   4.975   7.261   5.037
15755WAT      O47506   3.606   4.199   1.114
15755WAT     H147507   3.695   4.240   1.134
15755WAT     H247508   3.614   4.135   1.038
15756WAT      O47509   7.373   7.029   7.760
15756WAT     H147510   7.312   7.107   7.746
15756WAT     H247511   7.462   7.061   7.793
15757WAT      O47512   9.828   2.037   9.035
15757WAT     H147513   9.784   2.122   9.007
15757WAT     H247514   9.774   1.959   9.003
15758WAT      O47515   0.711   7.999   4.022
15758WAT     H147516   0.720   7.903   3.996
15758WAT     H247517   0.655   8.007   4.104
15759WAT      O47518   7.873   0.854   8.757
15759WAT     H147519   7.885   0.779   8.822
15759WAT     H247520   7.861   0.940   8.808
15760WAT      O47521   7.401   9.771   9.417
15760WAT     H147522   7.318   9.727   9.383
15760WAT     H247523   7.474   9.703   9.427
15761WAT      O47524   2.969   8.979   9.437
15761WAT     H147525   3.032   8.966   9.361
15761WAT     H247526   2.961   8.894   9.490
15762WAT      O47527   5.295   2.392   3.776
15762WAT     H147528   5.211   2.338   3.775
15762WAT     H247529   5.273   2.487   3.798
15763WAT      O47530   2.394   2.911   8.288
15763WAT     H147531   2.435   2.861   8.365
15763WAT     H247532   2.301   2.879   8.273
15764WAT      O47533   9.545   5.499   2.802
15764WAT     H147534   9.640   5.519   2.826
15764WAT     H247535   9.491   5.487   2.885
15765WAT      O47536   9.154   8.219   1.685
15765WAT     H147537   9.106   8.200   1.771
15765WAT     H247538   9.091   8.207   1.609
15766WAT      O47539   7.919   8.128   2.543
15766WAT     H147540   7.866   8.060   2.493
15766WAT     H247541   8.006   8.087   2.572
15767WAT      O47542   6.110   4.171   2.027
15767WAT     H147543   6.014   4.145   2.025
15767WAT     H247544   6.158   4.118   2.097
15768WAT      O47545   0.046   1.849   8.808
15768WAT     H147546  -0.048   1.849   8.840
15768WAT     H247547   0.058   1.776   8.741
15769WAT      O47548   1.819   6.640   0.460
15769WAT     H147549   1.792   6.717   0.518
15769WAT     H247550   1.739   6.609   0.407
15770WAT      O47551   8.142   5.910   9.712
15770WAT     H147552   8.177   6.000   9.685
15770WAT     H247553   8.043   5.917   9.729
15771WAT      O47554   6.453   7.881   2.018
15771WAT     H147555   6.416   7.828   2.094
15771WAT     H247556   6.384   7.889   1.946
15772WAT      O47557   2.039   7.850   0.580
15772WAT     H147558   2.058   7.805   0.492
15772WAT     H247559   2.110   7.825   0.645
15773WAT      O47560   3.832   1.216   4.472
15773WAT     H147561   3.896   1.146   4.441
15773WAT     H247562   3.838   1.296   4.412
15774WAT      O47563   6.819   5.379   6.211
15774WAT     H147564   6.813   5.285   6.246
15774WAT     H247565   6.911   5.414   6.227
15775WAT      O47566   4.734   3.781   9.039
15775WAT     H147567   4.698   3.717   8.971
15775WAT     H247568   4.663   3.846   9.065
15776WAT      O47569   5.072   1.149   8.869
15776WAT     H147570   5.042   1.135   8.964
15776WAT     H247571   5.042   1.071   8.814
15777WAT      O47572   5.426   3.499   3.955
15777WAT     H147573   5.397   3.517   4.049
15777WAT     H247574   5.396   3.408   3.928
15778WAT      O47575   9.344   8.795   0.253
15778WAT     H147576   9.298   8.824   0.337
15778WAT     H247577   9.278   8.749   0.194
15779WAT      O47578   5.180   9.159   1.802
15779WAT     H147579   5.114   9.197   1.867
15779WAT     H247580   5.174   9.059   1.804
15780WAT      O47581   2.985   6.117   2.815
15780WAT     H147582   2.994   6.024   2.778
15780WAT     H247583   2.937   6.113   2.902
15781WAT      O47584   2.917   8.728   9.566
15781WAT     H147585   2.957   8.672   9.493
15781WAT     H247586   2.839   8.681   9.605
15782WAT      O47587   6.136   5.293   1.143
15782WAT     H147588   6.060   5.275   1.205
15782WAT     H247589   6.221   5.259   1.184
15783WAT      O47590   3.690   6.762   0.716
15783WAT     H147591   3.784   6.790   0.696
15783WAT     H247592   3.652   6.715   0.637
15784WAT      O47593   2.449   5.285   9.301
15784WAT     H147594   2.522   5.248   9.243
15784WAT     H247595   2.365   5.234   9.285
15785WAT      O47596   0.537   5.874   9.432
15785WAT     H147597   0.489   5.962   9.438
15785WAT     H247598   0.520   5.832   9.343
15786WAT      O47599   6.359   9.652   4.445
15786WAT     H147600   6.412   9.723   4.492
15786WAT     H247601   6.419   9.576   4.422
15787WAT      O47602   7.188   2.956   1.753
15787WAT     H147603   7.208   2.987   1.846
15787WAT     H247604   7.262   2.898   1.721
15788WAT      O47605   4.602   0.383   0.929
15788WAT     H147606   4.690   0.427   0.948
15788WAT     H247607   4.606   0.287   0.957
15789WAT      O47608   5.354   1.179   6.967
15789WAT     H147609   5.258   1.206   6.961
15789WAT     H247610   5.361   1.080   6.964
15790WAT      O47611   8.353   2.610   0.946
15790WAT     H147612   8.301   2.693   0.964
15790WAT     H247613   8.299   2.530   0.975
15791WAT      O47614   5.039   3.761   0.131
15791WAT     H147615   5.104   3.687   0.114
15791WAT     H247616   5.063   3.806   0.218
15792WAT      O47617   2.698   6.854   6.318
15792WAT     H147618   2.701   6.827   6.222
15792WAT     H247619   2.790   6.873   6.350
15793WAT      O47620   8.564   8.618   0.658
15793WAT     H147621   8.608   8.706   0.641
15793WAT     H247622   8.632   8.553   0.694
15794WAT      O47623   5.728   6.774   6.029
15794WAT     H147624   5.658   6.727   5.975
15794WAT     H247625   5.726   6.872   6.010
15795WAT      O47626   3.694   7.805   4.399
15795WAT     H147627   3.789   7.799   4.370
15795WAT     H247628   3.685   7.771   4.493
15796WAT      O47629   5.075   1.210   1.392
15796WAT     H147630   5.148   1.278   1.382
15796WAT     H247631   5.108   1.120   1.364
15797WAT      O47632   7.960   5.367   3.585
15797WAT     H147633   7.918   5.324   3.505
15797WAT     H247634   8.026   5.436   3.555
15798WAT      O47635   3.448   9.201   5.773
15798WAT     H147636   3.350   9.212   5.788
15798WAT     H247637   3.480   9.271   5.709
15799WAT      O47638   3.804   9.735   9.547
15799WAT     H147639   3.709   9.747   9.574
15799WAT     H247640   3.831   9.810   9.487
15800WAT      O47641   8.606   4.633   4.996
15800WAT     H147642   8.682   4.693   5.019
15800WAT     H247643   8.564   4.662   4.910
15801WAT      O47644   0.935   4.652   5.201
15801WAT     H147645   0.931   4.614   5.293
15801WAT     H247646   0.988   4.591   5.142
15802WAT      O47647   7.685   1.865   8.277
15802WAT     H147648   7.721   1.801   8.210
15802WAT     H247649   7.735   1.951   8.273
15803WAT      O47650   3.585   6.448   8.560
15803WAT     H147651   3.650   6.516   8.594
15803WAT     H247652   3.518   6.492   8.500
15804WAT      O47653   3.333   6.477   6.145
15804WAT     H147654   3.273   6.400   6.169
15804WAT     H247655   3.363   6.523   6.229
15805WAT      O47656   0.995   6.700   5.307
15805WAT     H147657   0.978   6.602   5.306
15805WAT     H247658   0.994   6.734   5.401
15806WAT      O47659   3.468   5.022   5.956
15806WAT     H147660   3.495   5.099   6.013
15806WAT     H247661   3.369   5.026   5.940
15807WAT      O47662   8.101   5.875   1.438
15807WAT     H147663   8.004   5.894   1.451
15807WAT     H247664   8.124   5.786   1.477
15808WAT      O47665   4.356   6.268   4.257
15808WAT     H147666   4.435   6.275   4.196
15808WAT     H247667   4.322   6.174   4.258
15809WAT      O47668   9.614   7.794   5.838
15809WAT     H147669   9.660   7.871   5.882
15809WAT     H247670   9.638   7.709   5.886
15810WAT      O47671   8.095   7.633   1.173
15810WAT     H147672   8.121   7.630   1.270
15810WAT     H247673   8.021   7.567   1.157
15811WAT      O47674   2.621   0.218   6.410
15811WAT     H147675   2.685   0.294   6.405
15811WAT     H247676   2.645   0.161   6.489
15812WAT      O47677   3.699   8.306   1.305
15812WAT     H147678   3.774   8.370   1.292
15812WAT     H247679   3.727   8.234   1.369
15813WAT      O47680   2.246   0.828   3.373
15813WAT     H147681   2.302   0.866   3.300
15813WAT     H247682   2.207   0.901   3.429
15814WAT      O47683   1.008   0.131   6.058
15814WAT     H147684   1.048   0.184   6.132
15814WAT     H247685   1.065   0.140   5.976
15815WAT      O47686   0.846   6.569   8.171
15815WAT     H147687   0.777   6.635   8.200
15815WAT     H247688   0.860   6.576   8.073
15816WAT      O47689   1.055   0.295   4.785
15816WAT     H147690   1.105   0.219   4.742
15816WAT     H247691   1.058   0.283   4.885
15817WAT      O47692   1.967   0.618   6.044
15817WAT     H147693   2.025   0.636   5.964
15817WAT     H247694   1.987   0.526   6.079
15818WAT      O47695   1.108   9.572   8.805
15818WAT     H147696   1.077   9.634   8.732
15818WAT     H247697   1.071   9.602   8.892
15819WAT      O47698   5.060   4.858   4.287
15819WAT     H147699   5.009   4.778   4.319
15819WAT     H247700   5.144   4.868   4.339
15820WAT      O47701   4.664   0.918   3.672
15820WAT     H147702   4.569   0.898   3.648
15820WAT     H247703   4.708   0.835   3.706
15821WAT      O47704   6.491   5.545   5.495
15821WAT     H147705   6.491   5.640   5.526
15821WAT     H247706   6.470   5.485   5.572
15822WAT      O47707   9.825   0.552   5.565
15822WAT     H147708   9.748   0.496   5.595
15822WAT     H247709   9.909   0.521   5.610
15823WAT      O47710   6.887   2.673   5.078
15823WAT     H147711   6.984   2.649   5.085
15823WAT     H247712   6.870   2.719   4.990
15824WAT      O47713   4.273   6.507   4.102
15824WAT     H147714   4.333   6.435   4.137
15824WAT     H247715   4.251   6.489   4.006
15825WAT      O47716   9.135   6.944   9.122
15825WAT     H147717   9.097   6.978   9.036
15825WAT     H247718   9.063   6.899   9.174
15826WAT      O47719   5.325   5.872   6.424
15826WAT     H147720   5.288   5.853   6.333
15826WAT     H247721   5.415   5.914   6.414
15827WAT      O47722   7.789   4.915   1.340
15827WAT     H147723   7.745   4.847   1.281
15827WAT     H247724   7.883   4.929   1.310
15828WAT      O47725   9.494   8.459   0.085
15828WAT     H147726   9.546   8.430   0.165
15828WAT     H247727   9.396   8.462   0.107
15829WAT      O47728   4.873   6.767   6.494
15829WAT     H147729   4.912   6.723   6.575
15829WAT     H247730   4.941   6.828   6.452
15830WAT      O47731   2.338   1.120   9.626
15830WAT     H147732   2.368   1.160   9.540
15830WAT     H247733   2.261   1.172   9.662
15831WAT      O47734   2.487   4.471   4.707
15831WAT     H147735   2.507   4.504   4.799
15831WAT     H247736   2.392   4.439   4.703
15832WAT      O47737   1.249   0.769   5.353
15832WAT     H147738   1.330   0.777   5.412
15832WAT     H247739   1.170   0.808   5.400
15833WAT      O47740   5.023   7.294   1.971
15833WAT     H147741   5.091   7.286   1.898
15833WAT     H247742   5.057   7.252   2.054
15834WAT      O47743   7.140   1.256   4.368
15834WAT     H147744   7.147   1.354   4.384
15834WAT     H247745   7.077   1.215   4.434
15835WAT      O47746   3.383   5.676   2.249
15835WAT     H147747   3.409   5.582   2.229
15835WAT     H247748   3.295   5.696   2.205
15836WAT      O47749   3.557   4.541   7.888
15836WAT     H147750   3.644   4.527   7.843
15836WAT     H247751   3.509   4.618   7.846
15837WAT      O47752   8.051   9.084   0.152
15837WAT     H147753   8.092   9.115   0.067
15837WAT     H247754   8.033   8.986   0.147
15838WAT      O47755   3.941   0.060   3.903
15838WAT     H147756   4.012  -0.003   3.871
15838WAT     H247757   3.894   0.099   3.824
15839WAT      O47758   5.940   0.631   8.314
15839WAT     H147759   6.017   0.656   8.372
15839WAT     H247760   5.885   0.562   8.360
15840WAT      O47761   4.865   5.403   3.495
15840WAT     H147762   4.775   5.407   3.539
15840WAT     H247763   4.929   5.462   3.545
15841WAT      O47764   1.595   0.983   7.859
15841WAT     H147765   1.607   0.894   7.815
15841WAT     H247766   1.582   0.971   7.957
15842WAT      O47767   0.148   4.165   5.316
15842WAT     H147768   0.060   4.121   5.334
15842WAT     H247769   0.149   4.256   5.356
15843WAT      O47770   4.294   9.054   2.909
15843WAT     H147771   4.212   9.103   2.879
15843WAT     H247772   4.269   8.962   2.937
15844WAT      O47773   9.015   1.655   3.258
15844WAT     H147774   8.969   1.717   3.195
15844WAT     H247775   9.031   1.567   3.213
15845WAT      O47776   0.042   8.774   6.374
15845WAT     H147777   0.028   8.859   6.424
15845WAT     H247778   0.124   8.782   6.317
15846WAT      O47779   3.829   5.371   9.157
15846WAT     H147780   3.766   5.302   9.122
15846WAT     H247781   3.865   5.425   9.080
15847WAT      O47782   8.596   7.357   5.859
15847WAT     H147783   8.696   7.356   5.864
15847WAT     H247784   8.559   7.300   5.932
15848WAT      O47785   8.084   0.144   0.248
15848WAT     H147786   8.175   0.165   0.210
15848WAT     H247787   8.015   0.195   0.196
15849WAT      O47788   1.632   5.609   5.797
15849WAT     H147789   1.658   5.654   5.712
15849WAT     H247790   1.714   5.592   5.852
15850WAT      O47791   7.199   8.871   8.960
15850WAT     H147792   7.253   8.928   8.898
15850WAT     H247793   7.118   8.922   8.989
15851WAT      O47794   8.952   0.964   3.235
15851WAT     H147795   8.982   0.955   3.330
15851WAT     H247796   8.903   1.050   3.222
15852WAT      O47797   5.457   6.899   8.798
15852WAT     H147798   5.466   6.945   8.886
15852WAT     H247799   5.467   6.965   8.724
15853WAT      O47800   5.665   9.397   6.283
15853WAT     H147801   5.749   9.346   6.303
15853WAT     H247802   5.633   9.441   6.367
15854WAT      O47803   0.477   5.032   2.482
15854WAT     H147804   0.553   5.012   2.543
15854WAT     H247805   0.395   5.052   2.536
15855WAT      O47806   4.018   0.832   7.877
15855WAT     H147807   3.942   0.892   7.855
15855WAT     H247808   4.104   0.880   7.863
15856WAT      O47809   1.484   0.994   8.828
15856WAT     H147810   1.421   0.985   8.751
15856WAT     H247811   1.433   1.022   8.910
15857WAT      O47812   1.623   1.599   2.660
15857WAT     H147813   1.624   1.659   2.741
15857WAT     H247814   1.627   1.655   2.577
15858WAT      O47815   1.070   4.388   7.248
15858WAT     H147816   1.124   4.306   7.225
15858WAT     H247817   1.047   4.385   7.345
15859WAT      O47818   1.407   0.533   3.095
15859WAT     H147819   1.329   0.581   3.135
15859WAT     H247820   1.422   0.567   3.002
15860WAT      O47821   8.423   4.453   8.052
15860WAT     H147822   8.401   4.357   8.063
15860WAT     H247823   8.469   4.466   7.964
15861WAT      O47824   7.520   1.868   3.261
15861WAT     H147825   7.600   1.809   3.276
15861WAT     H247826   7.479   1.846   3.173
15862WAT      O47827   7.593   5.762   0.710
15862WAT     H147828   7.546   5.735   0.794
15862WAT     H247829   7.639   5.682   0.671
15863WAT      O47830   3.975   4.507   7.719
15863WAT     H147831   3.922   4.579   7.675
15863WAT     H247832   3.915   4.453   7.778
15864WAT      O47833   8.601   3.070   2.969
15864WAT     H147834   8.535   3.044   2.899
15864WAT     H247835   8.693   3.039   2.942
15865WAT      O47836   4.777   1.910   4.419
15865WAT     H147837   4.854   1.888   4.359
15865WAT     H247838   4.694   1.867   4.384
15866WAT      O47839   4.299   7.069   8.671
15866WAT     H147840   4.251   7.059   8.758
15866WAT     H247841   4.287   6.986   8.617
15867WAT      O47842   9.534   7.054   8.178
15867WAT     H147843   9.464   6.992   8.143
15867WAT     H247844   9.601   7.073   8.106
15868WAT      O47845   9.394   3.388   6.726
15868WAT     H147846   9.406   3.474   6.676
15868WAT     H247847   9.484   3.356   6.758
15869WAT      O47848   2.862   4.648   0.091
15869WAT     H147849   2.930   4.589   0.135
15869WAT     H247850   2.828   4.714   0.158
15870WAT      O47851   6.382   7.012   2.021
15870WAT     H147852   6.353   6.917   2.037
15870WAT     H247853   6.301   7.071   2.019
15871WAT      O47854   4.359   4.378   1.889
15871WAT     H147855   4.360   4.435   1.971
15871WAT     H247856   4.281   4.403   1.833
15872WAT      O47857   7.569   7.325   7.582
15872WAT     H147858   7.559   7.271   7.666
15872WAT     H247859   7.634   7.399   7.599
15873WAT      O47860   2.188   9.668   3.266
15873WAT     H147861   2.252   9.724   3.318
15873WAT     H247862   2.239   9.602   3.210
15874WAT      O47863   9.887   0.337   2.411
15874WAT     H147864   9.891   0.267   2.483
15874WAT     H247865   9.813   0.401   2.431
15875WAT      O47866   9.824   7.523   7.688
15875WAT     H147867   9.819   7.623   7.694
15875WAT     H247868   9.918   7.495   7.670
15876WAT      O47869   8.002   1.951   8.825
15876WAT     H147870   8.031   1.936   8.731
15876WAT     H247871   8.083   1.968   8.883
15877WAT      O47872   1.793   6.161   1.642
15877WAT     H147873   1.711   6.195   1.688
15877WAT     H247874   1.792   6.061   1.643
15878WAT      O47875   2.297   2.717   4.984
15878WAT     H147876   2.287   2.718   5.084
15878WAT     H247877   2.370   2.779   4.958
15879WAT      O47878   3.285   9.617   4.355
15879WAT     H147879   3.270   9.677   4.433
15879WAT     H247880   3.369   9.644   4.307
15880WAT      O47881   3.049   8.549   9.404
15880WAT     H147882   3.030   8.494   9.486
15880WAT     H247883   3.025   8.496   9.323
15881WAT      O47884   0.560   9.581   3.327
15881WAT     H147885   0.591   9.548   3.417
15881WAT     H247886   0.633   9.633   3.283
15882WAT      O47887   5.818   9.748   0.786
15882WAT     H147888   5.769   9.726   0.871
15882WAT     H247889   5.882   9.822   0.803
15883WAT      O47890   8.990   0.251   8.901
15883WAT     H147891   8.912   0.312   8.883
15883WAT     H247892   9.067   0.305   8.934
15884WAT      O47893   2.231   6.770   4.448
15884WAT     H147894   2.317   6.725   4.472
15884WAT     H247895   2.247   6.867   4.431
15885WAT      O47896   0.372   1.029   0.158
15885WAT     H147897   0.460   1.077   0.166
15885WAT     H247898   0.356   1.003   0.063
15886WAT      O47899   7.055   1.212   0.457
15886WAT     H147900   6.985   1.281   0.474
15886WAT     H247901   7.012   1.126   0.432
15887WAT      O47902   5.420   1.748   7.947
15887WAT     H147903   5.355   1.803   7.896
15887WAT     H247904   5.479   1.807   8.002
15888WAT      O47905   7.324   3.899   6.584
15888WAT     H147906   7.321   3.929   6.489
15888WAT     H247907   7.299   3.976   6.644
15889WAT      O47908   3.819   9.178   2.156
15889WAT     H147909   3.760   9.233   2.097
15889WAT     H247910   3.762   9.118   2.213
15890WAT      O47911   8.535   8.224   4.115
15890WAT     H147912   8.515   8.132   4.081
15890WAT     H247913   8.617   8.221   4.173
15891WAT      O47914   3.677   5.904   2.851
15891WAT     H147915   3.756   5.962   2.833
15891WAT     H247916   3.684   5.820   2.796
15892WAT      O47917   4.183   7.406   2.068
15892WAT     H147918   4.162   7.325   2.013
15892WAT     H247919   4.115   7.477   2.049
15893WAT      O47920   4.499   7.620   6.850
15893WAT     H147921   4.412   7.631   6.899
15893WAT     H247922   4.537   7.530   6.870
15894WAT      O47923   7.551   2.755   4.728
15894WAT     H147924   7.548   2.661   4.694
15894WAT     H247925   7.611   2.810   4.669
15895WAT      O47926   1.297   8.489   2.517
15895WAT     H147927   1.232   8.486   2.440
15895WAT     H247928   1.256   8.539   2.593
15896WAT      O47929   6.773   9.580   3.693
15896WAT     H147930   6.773   9.561   3.792
15896WAT     H247931   6.789   9.678   3.679
15897WAT      O47932   3.498   7.195   4.544
15897WAT     H147933   3.484   7.219   4.640
15897WAT     H247934   3.548   7.268   4.498
15898WAT      O47935   5.792   7.988   2.080
15898WAT     H147936   5.759   8.004   1.987
15898WAT     H247937   5.862   8.055   2.102
15899WAT      O47938   6.491   3.241   0.529
15899WAT     H147939   6.395   3.246   0.556
15899WAT     H247940   6.539   3.321   0.564
15900WAT      O47941   3.574   0.267   2.306
15900WAT     H147942   3.567   0.178   2.350
15900WAT     H247943   3.578   0.255   2.206
15901WAT      O47944   3.574   8.572   1.563
15901WAT     H147945   3.625   8.637   1.506
15901WAT     H247946   3.494   8.617   1.602
15902WAT      O47947   6.328   3.393   1.884
15902WAT     H147948   6.261   3.395   1.809
15902WAT     H247949   6.319   3.476   1.939
15903WAT      O47950   0.077   7.061   0.301
15903WAT     H147951   0.072   7.093   0.206
15903WAT     H247952  -0.016   7.051   0.337
15904WAT      O47953   9.859   4.907   9.536
15904WAT     H147954   9.832   4.811   9.549
15904WAT     H247955   9.777   4.964   9.534
15905WAT      O47956   4.513   8.296   5.671
15905WAT     H147957   4.591   8.263   5.724
15905WAT     H247958   4.470   8.373   5.718
15906WAT      O47959   8.754   5.322   7.563
15906WAT     H147960   8.830   5.293   7.505
15906WAT     H247961   8.789   5.367   7.645
15907WAT      O47962   2.649   7.304   8.219
15907WAT     H147963   2.686   7.350   8.300
15907WAT     H247964   2.724   7.260   8.169
15908WAT      O47965   0.407   8.336   7.591
15908WAT     H147966   0.445   8.426   7.614
15908WAT     H247967   0.452   8.302   7.508
15909WAT      O47968   9.646   8.763   6.228
15909WAT     H147969   9.703   8.733   6.304
15909WAT     H247970   9.687   8.734   6.142
15910WAT      O47971   5.609   1.801   3.701
15910WAT     H147972   5.651   1.891   3.688
15910WAT     H247973   5.537   1.788   3.633
15911WAT      O47974   3.812   3.200   8.744
15911WAT     H147975   3.872   3.157   8.810
15911WAT     H247976   3.852   3.286   8.712
15912WAT      O47977   4.953   6.628   6.711
15912WAT     H147978   4.911   6.537   6.708
15912WAT     H247979   5.047   6.622   6.677
15913WAT      O47980   4.124   1.876   6.937
15913WAT     H147981   4.206   1.932   6.952
15913WAT     H247982   4.047   1.935   6.914
15914WAT      O47983   8.946   5.329   2.807
15914WAT     H147984   8.991   5.245   2.838
15914WAT     H247985   9.010   5.405   2.814
15915WAT      O47986   6.538   0.433   8.067
15915WAT     H147987   6.575   0.514   8.113
15915WAT     H247988   6.441   0.424   8.089
15916WAT      O47989   9.403   6.285   4.461
15916WAT     H147990   9.497   6.264   4.436
15916WAT     H247991   9.343   6.267   4.383
15917WAT      O47992   1.350   5.831   0.383
15917WAT     H147993   1.297   5.806   0.303
15917WAT     H247994   1.393   5.750   0.423
15918WAT      O47995   0.839   2.312   1.189
15918WAT     H147996   0.833   2.317   1.090
15918WAT     H247997   0.787   2.233   1.223
15919WAT      O47998   5.357   5.340   5.339
15919WAT     H147999   5.361   5.247   5.303
15919WAT     H248000   5.279   5.349   5.401
15920WAT      O48001   7.096   2.976   5.192
15920WAT     H148002   7.033   2.972   5.114
15920WAT     H248003   7.049   2.941   5.273
15921WAT      O48004   6.863   0.496   0.621
15921WAT     H148005   6.824   0.431   0.687
15921WAT     H248006   6.945   0.538   0.660
15922WAT      O48007   9.267   3.339   0.160
15922WAT     H148008   9.192   3.279   0.132
15922WAT     H248009   9.241   3.388   0.243
15923WAT      O48010   6.639   2.553   7.364
15923WAT     H148011   6.721   2.605   7.386
15923WAT     H248012   6.629   2.477   7.428
15924WAT      O48013   3.432   8.373   1.725
15924WAT     H148014   3.476   8.290   1.759
15924WAT     H248015   3.488   8.414   1.653
15925WAT      O48016   9.831   0.711   1.783
15925WAT     H148017   9.797   0.691   1.691
15925WAT     H248018   9.772   0.779   1.826
15926WAT      O48019   1.354   4.871   0.151
15926WAT     H148020   1.417   4.940   0.116
15926WAT     H248021   1.322   4.897   0.242
15927WAT      O48022   5.450   7.908   4.245
15927WAT     H148023   5.452   7.816   4.285
15927WAT     H248024   5.385   7.964   4.296
15928WAT      O48025   8.132   4.240   2.913
15928WAT     H148026   8.109   4.147   2.941
15928WAT     H248027   8.177   4.237   2.824
15929WAT      O48028   2.807   5.317   4.519
15929WAT     H148029   2.869   5.382   4.563
15929WAT     H248030   2.839   5.297   4.426
15930WAT      O48031   9.102   8.155   1.401
15930WAT     H148032   9.039   8.218   1.356
15930WAT     H248033   9.051   8.082   1.445
15931WAT      O48034   6.986   9.682   3.322
15931WAT     H148035   6.985   9.757   3.389
15931WAT     H248036   6.908   9.622   3.339
15932WAT      O48037   0.791   1.892   4.411
15932WAT     H148038   0.725   1.957   4.448
15932WAT     H248039   0.876   1.940   4.390
15933WAT      O48040   8.287   1.829   6.521
15933WAT     H148041   8.316   1.733   6.530
15933WAT     H248042   8.313   1.878   6.604
15934WAT      O48043   9.093   5.664   1.419
15934WAT     H148044   9.112   5.727   1.493
15934WAT     H248045   9.054   5.579   1.456
15935WAT      O48046   8.992   2.362   6.783
15935WAT     H148047   9.090   2.355   6.801
15935WAT     H248048   8.958   2.273   6.752
15936WAT      O48049   8.658   7.773   1.966
15936WAT     H148050   8.612   7.784   1.878
15936WAT     H248051   8.723   7.848   1.980
15937WAT      O48052   9.124   7.815   5.816
15937WAT     H148053   9.105   7.867   5.732
15937WAT     H248054   9.051   7.830   5.882
15938WAT      O48055   9.418   1.576   1.491
15938WAT     H148056   9.443   1.501   1.553
15938WAT     H248057   9.391   1.538   1.402
15939WAT      O48058   5.509   2.405   0.330
15939WAT     H148059   5.605   2.431   0.320
15939WAT     H248060   5.488   2.389   0.427
15940WAT      O48061   1.920   7.157   6.913
15940WAT     H148062   1.868   7.242   6.904
15940WAT     H248063   1.875   7.097   6.979
15941WAT      O48064   2.855   3.720   3.957
15941WAT     H148065   2.865   3.690   4.052
15941WAT     H248066   2.763   3.755   3.942
15942WAT      O48067   6.237   1.085   7.833
15942WAT     H148068   6.141   1.113   7.832
15942WAT     H248069   6.252   1.021   7.908
15943WAT      O48070   1.348   1.943   4.583
15943WAT     H148071   1.388   2.000   4.654
15943WAT     H248072   1.248   1.946   4.589
15944WAT      O48073   9.164   8.649   0.109
15944WAT     H148074   9.085   8.703   0.136
15944WAT     H248075   9.147   8.606   0.020
15945WAT      O48076   5.940   7.133   5.734
15945WAT     H148077   5.905   7.204   5.673
15945WAT     H248078   5.964   7.052   5.681
15946WAT      O48079   1.729   0.323   1.930
15946WAT     H148080   1.730   0.273   1.843
15946WAT     H248081   1.676   0.271   1.997
15947WAT      O48082   6.633   1.846   4.001
15947WAT     H148083   6.549   1.794   4.015
15947WAT     H248084   6.619   1.914   3.929
15948WAT      O48085   2.557   4.348   6.867
15948WAT     H148086   2.617   4.268   6.865
15948WAT     H248087   2.553   4.383   6.961
15949WAT      O48088   4.642   2.082   4.588
15949WAT     H148089   4.581   2.139   4.533
15949WAT     H248090   4.691   2.018   4.528
15950WAT      O48091   5.779   2.598   2.685
15950WAT     H148092   5.870   2.605   2.644
15950WAT     H248093   5.709   2.621   2.618
15951WAT      O48094   7.487   4.577   8.093
15951WAT     H148095   7.418   4.590   8.021
15951WAT     H248096   7.475   4.487   8.135
15952WAT      O48097   3.431   0.971   0.842
15952WAT     H148098   3.365   0.912   0.796
15952WAT     H248099   3.461   0.928   0.927
15953WAT      O48100   3.995   5.978   8.791
15953WAT     H148101   4.022   5.889   8.753
15953WAT     H248102   3.904   5.971   8.831
15954WAT      O48103   5.296   7.547   8.632
15954WAT     H148104   5.327   7.641   8.641
15954WAT     H248105   5.196   7.544   8.644
15955WAT      O48106   8.234   3.133   1.429
15955WAT     H148107   8.221   3.200   1.502
15955WAT     H248108   8.300   3.168   1.363
15956WAT      O48109   1.301   6.613   8.413
15956WAT     H148110   1.298   6.636   8.510
15956WAT     H248111   1.369   6.540   8.398
15957WAT      O48112   5.146   7.839   0.600
15957WAT     H148113   5.169   7.786   0.682
15957WAT     H248114   5.105   7.778   0.531
15958WAT      O48115   4.640   4.482   9.583
15958WAT     H148116   4.621   4.568   9.535
15958WAT     H248117   4.667   4.502   9.677
15959WAT      O48118   8.721   9.566   4.235
15959WAT     H148119   8.715   9.608   4.144
15959WAT     H248120   8.761   9.474   4.225
15960WAT      O48121   4.444   9.025   5.766
15960WAT     H148122   4.394   9.107   5.739
15960WAT     H248123   4.380   8.952   5.788
15961WAT      O48124   3.080   5.695   4.408
15961WAT     H148125   3.120   5.777   4.447
15961WAT     H248126   3.101   5.616   4.466
15962WAT      O48127   8.277   0.809   8.547
15962WAT     H148128   8.261   0.875   8.620
15962WAT     H248129   8.189   0.776   8.512
15963WAT      O48130   8.406   2.464   4.115
15963WAT     H148131   8.380   2.545   4.167
15963WAT     H248132   8.350   2.458   4.032
15964WAT      O48133   0.531   2.570   5.197
15964WAT     H148134   0.529   2.563   5.097
15964WAT     H248135   0.573   2.487   5.235
15965WAT      O48136   8.185   4.447   3.650
15965WAT     H148137   8.197   4.529   3.706
15965WAT     H248138   8.090   4.443   3.617
15966WAT      O48139   7.590   1.983   7.877
15966WAT     H148140   7.541   2.068   7.899
15966WAT     H248141   7.685   1.992   7.906
15967WAT      O48142   9.199   3.785   5.441
15967WAT     H148143   9.106   3.769   5.409
15967WAT     H248144   9.200   3.784   5.541
15968WAT      O48145   3.814   8.853   9.415
15968WAT     H148146   3.906   8.816   9.430
15968WAT     H248147   3.820   8.936   9.360
15969WAT      O48148   5.680   9.224   3.705
15969WAT     H148149   5.708   9.251   3.613
15969WAT     H248150   5.589   9.183   3.701
15970WAT      O48151   9.120   4.822   6.856
15970WAT     H148152   9.208   4.793   6.894
15970WAT     H248153   9.046   4.798   6.919
15971WAT      O48154   1.589   6.811   2.603
15971WAT     H148155   1.492   6.789   2.605
15971WAT     H248156   1.621   6.832   2.695
15972WAT      O48157   2.167   1.500   6.146
15972WAT     H148158   2.229   1.556   6.092
15972WAT     H248159   2.080   1.490   6.098
15973WAT      O48160   1.866   0.713   5.283
15973WAT     H148161   1.917   0.795   5.309
15973WAT     H248162   1.770   0.737   5.267
15974WAT      O48163   1.308   4.931   7.136
15974WAT     H148164   1.340   4.838   7.153
15974WAT     H248165   1.208   4.931   7.130
15975WAT      O48166   1.011   9.282   0.529
15975WAT     H148167   1.070   9.341   0.584
15975WAT     H248168   0.916   9.314   0.534
15976WAT      O48169   4.839   6.537   4.496
15976WAT     H148170   4.788   6.464   4.453
15976WAT     H248171   4.919   6.499   4.542
15977WAT      O48172   8.469   9.268   0.870
15977WAT     H148173   8.380   9.253   0.826
15977WAT     H248174   8.542   9.238   0.809
15978WAT      O48175   5.763   5.615   7.440
15978WAT     H148176   5.681   5.647   7.393
15978WAT     H248177   5.808   5.693   7.483
15979WAT      O48178   6.618   5.994   6.911
15979WAT     H148179   6.602   5.900   6.881
15979WAT     H248180   6.597   6.001   7.009
15980WAT      O48181   5.559   9.412   7.244
15980WAT     H148182   5.646   9.413   7.293
15980WAT     H248183   5.561   9.340   7.175
15981WAT      O48184   6.267   6.856   8.662
15981WAT     H148185   6.181   6.891   8.698
15981WAT     H248186   6.334   6.849   8.736
15982WAT      O48187   3.324   5.833   1.185
15982WAT     H148188   3.369   5.915   1.149
15982WAT     H248189   3.348   5.820   1.281
15983WAT      O48190   8.889   1.196   0.552
15983WAT     H148191   8.940   1.146   0.622
15983WAT     H248192   8.831   1.264   0.595
15984WAT      O48193   9.627   9.499   0.897
15984WAT     H148194   9.606   9.523   0.992
15984WAT     H248195   9.717   9.456   0.893
15985WAT      O48196   6.465   4.907   4.216
15985WAT     H148197   6.375   4.889   4.178
15985WAT     H248198   6.533   4.848   4.172
15986WAT      O48199   3.872   6.251   7.300
15986WAT     H148200   3.842   6.240   7.206
15986WAT     H248201   3.800   6.297   7.353
15987WAT      O48202   5.963   0.317   8.893
15987WAT     H148203   5.915   0.235   8.862
15987WAT     H248204   5.938   0.336   8.988
15988WAT      O48205   8.199   0.064   8.062
15988WAT     H148206   8.203   0.157   8.024
15988WAT     H248207   8.108   0.026   8.047
15989WAT      O48208   5.019   4.161   1.755
15989WAT     H148209   4.993   4.066   1.742
15989WAT     H248210   5.116   4.173   1.733
15990WAT      O48211   8.230   1.335   1.888
15990WAT     H148212   8.291   1.338   1.968
15990WAT     H248213   8.135   1.329   1.919
15991WAT      O48214   0.664   1.107   4.029
15991WAT     H148215   0.601   1.031   4.045
15991WAT     H248216   0.758   1.075   4.038
15992WAT      O48217   9.568   6.546   1.111
15992WAT     H148218   9.619   6.631   1.124
15992WAT     H248219   9.591   6.507   1.021
15993WAT      O48220   9.563   7.539   5.466
15993WAT     H148221   9.597   7.598   5.538
15993WAT     H248222   9.591   7.575   5.377
15994WAT      O48223   5.738   5.692   4.119
15994WAT     H148224   5.754   5.790   4.133
15994WAT     H248225   5.742   5.672   4.021
15995WAT      O48226   8.042   4.874   5.766
15995WAT     H148227   8.091   4.829   5.841
15995WAT     H248228   8.107   4.927   5.711
15996WAT      O48229   7.238   0.705   1.411
15996WAT     H148230   7.205   0.796   1.439
15996WAT     H248231   7.168   0.660   1.356
15997WAT      O48232   0.686   6.185   5.010
15997WAT     H148233   0.648   6.247   4.941
15997WAT     H248234   0.625   6.107   5.022
15998WAT      O48235   2.316   5.493   9.602
15998WAT     H148236   2.312   5.538   9.691
15998WAT     H248237   2.389   5.425   9.601
15999WAT      O48238   8.919   7.142   6.527
15999WAT     H148239   8.920   7.134   6.627
15999WAT     H248240   8.965   7.226   6.500
16000WAT      O48241   7.973   4.279   2.619
16000WAT     H148242   7.933   4.200   2.665
16000WAT     H248243   8.072   4.278   2.631
16001WAT      O48244   3.417   5.406   2.219
16001WAT     H148245   3.432   5.335   2.287
16001WAT     H248246   3.368   5.368   2.141
16002WAT      O48247   4.367   2.053   3.257
16002WAT     H148248   4.394   2.149   3.250
16002WAT     H248249   4.445   1.998   3.287
16003WAT      O48250   8.885   3.752   7.482
16003WAT     H148251   8.934   3.839   7.492
16003WAT     H248252   8.915   3.688   7.553
16004WAT      O48253   5.452   7.115   2.814
16004WAT     H148254   5.371   7.063   2.787
16004WAT     H248255   5.431   7.213   2.814
16005WAT      O48256   3.451   4.677   7.113
16005WAT     H148257   3.529   4.652   7.170
16005WAT     H248258   3.369   4.682   7.170
16006WAT      O48259   0.270   8.549   5.127
16006WAT     H148260   0.325   8.523   5.048
16006WAT     H248261   0.278   8.648   5.142
16007WAT      O48262   4.945   3.010   3.601
16007WAT     H148263   5.026   3.008   3.542
16007WAT     H248264   4.949   3.091   3.660
16008WAT      O48265   7.506   3.851   8.044
16008WAT     H148266   7.470   3.943   8.024
16008WAT     H248267   7.462   3.785   7.984
16009WAT      O48268   1.327   7.054   9.059
16009WAT     H148269   1.421   7.035   9.033
16009WAT     H248270   1.268   6.980   9.026
16010WAT      O48271   0.150   1.455   3.004
16010WAT     H148272   0.194   1.399   2.933
16010WAT     H248273   0.207   1.454   3.086
16011WAT      O48274   9.392   2.868   7.680
16011WAT     H148275   9.306   2.881   7.728
16011WAT     H248276   9.389   2.783   7.627
16012WAT      O48277   7.388   6.282   8.071
16012WAT     H148278   7.428   6.311   8.158
16012WAT     H248279   7.434   6.200   8.039
16013WAT      O48280   3.828   2.280   5.375
16013WAT     H148281   3.819   2.276   5.474
16013WAT     H248282   3.903   2.342   5.351
16014WAT      O48283   1.071   8.586   1.026
16014WAT     H148284   1.055   8.496   0.985
16014WAT     H248285   0.996   8.648   1.002
16015WAT      O48286   1.519   1.122   2.503
16015WAT     H148287   1.617   1.108   2.519
16015WAT     H248288   1.479   1.170   2.582
16016WAT      O48289   3.591   2.181   7.595
16016WAT     H148290   3.679   2.134   7.589
16016WAT     H248291   3.603   2.277   7.572
16017WAT      O48292   6.691   6.588   9.084
16017WAT     H148293   6.626   6.651   9.127
16017WAT     H248294   6.659   6.564   8.992
16018WAT      O48295   8.443   3.453   5.930
16018WAT     H148296   8.379   3.476   5.856
16018WAT     H248297   8.460   3.354   5.928
16019WAT      O48298   0.748   6.241   4.344
16019WAT     H148299   0.815   6.304   4.307
16019WAT     H248300   0.664   6.290   4.367
16020WAT      O48301   3.434   3.643   8.364
16020WAT     H148302   3.400   3.647   8.270
16020WAT     H248303   3.503   3.715   8.378
16021WAT      O48304   7.247   4.407   2.937
16021WAT     H148305   7.215   4.314   2.954
16021WAT     H248306   7.169   4.468   2.931
16022WAT      O48307   0.651   3.026   7.119
16022WAT     H148308   0.694   2.939   7.145
16022WAT     H248309   0.569   3.007   7.065
16023WAT      O48310   3.551   8.840   8.153
16023WAT     H148311   3.517   8.930   8.179
16023WAT     H248312   3.556   8.782   8.234
16024WAT      O48313   7.917   5.923   2.192
16024WAT     H148314   7.820   5.909   2.171
16024WAT     H248315   7.960   5.975   2.119
16025WAT      O48316   2.759   5.905   8.624
16025WAT     H148317   2.849   5.907   8.665
16025WAT     H248318   2.737   5.811   8.598
16026WAT      O48319   6.104   2.607   9.543
16026WAT     H148320   6.101   2.525   9.600
16026WAT     H248321   6.130   2.686   9.599
16027WAT      O48322   4.279   7.262   7.153
16027WAT     H148323   4.220   7.293   7.079
16027WAT     H248324   4.312   7.170   7.134
16028WAT      O48325   6.019   5.557   2.238
16028WAT     H148326   5.989   5.552   2.143
16028WAT     H248327   5.979   5.639   2.281
16029WAT      O48328   5.224   4.195   9.788
16029WAT     H148329   5.205   4.291   9.766
16029WAT     H248330   5.182   4.173   9.876
16030WAT      O48331   5.963   4.751   0.998
16030WAT     H148332   6.053   4.723   1.032
16030WAT     H248333   5.907   4.785   1.074
16031WAT      O48334   3.847   2.050   1.855
16031WAT     H148335   3.841   2.138   1.807
16031WAT     H248336   3.940   2.037   1.889
16032WAT      O48337   8.357   5.345   7.717
16032WAT     H148338   8.417   5.266   7.729
16032WAT     H248339   8.266   5.315   7.690
16033WAT      O48340   8.063   9.511   3.144
16033WAT     H148341   8.115   9.501   3.229
16033WAT     H248342   7.988   9.445   3.142
16034WAT      O48343   4.544   9.839   4.684
16034WAT     H148344   4.524   9.810   4.590
16034WAT     H248345   4.589   9.765   4.733
16035WAT      O48346   2.082   9.832   5.793
16035WAT     H148347   2.025   9.896   5.844
16035WAT     H248348   2.104   9.871   5.704
16036WAT      O48349   0.274   1.412   3.251
16036WAT     H148350   0.353   1.468   3.226
16036WAT     H248351   0.207   1.469   3.299
16037WAT      O48352   1.272   6.730   0.722
16037WAT     H148353   1.310   6.765   0.808
16037WAT     H248354   1.217   6.802   0.679
16038WAT      O48355   2.246   4.087   0.637
16038WAT     H148356   2.160   4.042   0.661
16038WAT     H248357   2.233   4.186   0.635
16039WAT      O48358   8.279   7.649   3.644
16039WAT     H148359   8.323   7.598   3.570
16039WAT     H248360   8.348   7.681   3.709
16040WAT      O48361   3.498   1.077   3.308
16040WAT     H148362   3.538   1.165   3.280
16040WAT     H248363   3.398   1.084   3.304
16041WAT      O48364   1.356   6.273   5.441
16041WAT     H148365   1.380   6.177   5.449
16041WAT     H248366   1.275   6.292   5.497
16042WAT      O48367   2.176   6.857   1.131
16042WAT     H148368   2.090   6.877   1.083
16042WAT     H248369   2.172   6.896   1.223
16043WAT      O48370   0.879   2.347   8.408
16043WAT     H148371   0.961   2.290   8.418
16043WAT     H248372   0.899   2.424   8.348
16044WAT      O48373   9.410   4.484   8.825
16044WAT     H148374   9.319   4.525   8.817
16044WAT     H248375   9.406   4.388   8.796
16045WAT      O48376   8.943   8.135   7.670
16045WAT     H148377   8.942   8.200   7.594
16045WAT     H248378   8.902   8.048   7.640
16046WAT      O48379   2.857   9.327   3.436
16046WAT     H148380   2.887   9.283   3.352
16046WAT     H248381   2.885   9.423   3.435
16047WAT      O48382   1.761   4.371   5.049
16047WAT     H148383   1.681   4.318   5.024
16047WAT     H248384   1.812   4.323   5.121
16048WAT      O48385   8.939   5.300   9.192
16048WAT     H148386   8.876   5.339   9.259
16048WAT     H248387   8.888   5.240   9.129
16049WAT      O48388   9.207   4.186   6.446
16049WAT     H148389   9.195   4.123   6.522
16049WAT     H248390   9.283   4.155   6.388
16050WAT      O48391   1.231   9.583   1.090
16050WAT     H148392   1.289   9.592   1.009
16050WAT     H248393   1.148   9.531   1.067
16051WAT      O48394   4.360   4.589   7.459
16051WAT     H148395   4.459   4.591   7.449
16051WAT     H248396   4.322   4.518   7.401
16052WAT      O48397   2.873   7.608   6.451
16052WAT     H148398   2.844   7.526   6.401
16052WAT     H248399   2.806   7.680   6.436
16053WAT      O48400   4.129   9.402   7.764
16053WAT     H148401   4.048   9.356   7.799
16053WAT     H248402   4.177   9.341   7.700
16054WAT      O48403   9.882   8.399   0.133
16054WAT     H148404   9.900   8.308   0.171
16054WAT     H248405   9.795   8.433   0.168
16055WAT      O48406   1.663   2.425   3.441
16055WAT     H148407   1.704   2.490   3.377
16055WAT     H248408   1.573   2.459   3.469
16056WAT      O48409   4.955   6.046   3.036
16056WAT     H148410   5.038   6.100   3.024
16056WAT     H248411   4.944   6.022   3.132
16057WAT      O48412   2.094   2.887   8.230
16057WAT     H148413   2.091   2.928   8.321
16057WAT     H248414   2.017   2.920   8.176
16058WAT      O48415   3.599   4.597   6.167
16058WAT     H148416   3.582   4.582   6.070
16058WAT     H248417   3.541   4.672   6.200
16059WAT      O48418   2.304   9.209   6.256
16059WAT     H148419   2.290   9.308   6.243
16059WAT     H248420   2.396   9.184   6.226
16060WAT      O48421   8.533   8.653   5.678
16060WAT     H148422   8.570   8.570   5.718
16060WAT     H248423   8.456   8.686   5.733
16061WAT      O48424   1.516   2.660   7.430
16061WAT     H148425   1.546   2.707   7.347
16061WAT     H248426   1.440   2.599   7.407
16062WAT      O48427   5.619   0.425   5.681
16062WAT     H148428   5.532   0.460   5.716
16062WAT     H248429   5.608   0.328   5.659
16063WAT      O48430   0.865   4.962   1.654
16063WAT     H148431   0.959   4.994   1.658
16063WAT     H248432   0.811   5.012   1.722
16064WAT      O48433   7.244   5.594   0.033
16064WAT     H148434   7.298   5.599   0.117
16064WAT     H248435   7.154   5.556   0.053
16065WAT      O48436   1.744   0.146   1.710
16065WAT     H148437   1.810   0.187   1.647
16065WAT     H248438   1.663   0.118   1.659
16066WAT      O48439   3.477   2.401   7.807
16066WAT     H148440   3.457   2.479   7.747
16066WAT     H248441   3.407   2.330   7.793
16067WAT      O48442   4.399   2.492   0.561
16067WAT     H148443   4.400   2.404   0.513
16067WAT     H248444   4.426   2.565   0.498
16068WAT      O48445   5.724   8.999   0.083
16068WAT     H148446   5.823   9.008   0.073
16068WAT     H248447   5.699   9.022   0.177
16069WAT      O48448   0.647   8.902   8.047
16069WAT     H148449   0.648   9.000   8.069
16069WAT     H248450   0.596   8.853   8.118
16070WAT      O48451   6.674   0.453   5.499
16070WAT     H148452   6.683   0.417   5.592
16070WAT     H248453   6.592   0.510   5.494
16071WAT      O48454   7.884   7.135   0.718
16071WAT     H148455   7.899   7.150   0.816
16071WAT     H248456   7.916   7.044   0.692
16072WAT      O48457   1.456   0.994   3.078
16072WAT     H148458   1.360   0.972   3.093
16072WAT     H248459   1.464   1.064   3.007
16073WAT      O48460   5.439   3.324   4.782
16073WAT     H148461   5.374   3.283   4.718
16073WAT     H248462   5.471   3.255   4.847
16074WAT      O48463   5.625   2.050   3.274
16074WAT     H148464   5.574   2.125   3.231
16074WAT     H248465   5.634   1.975   3.209
16075WAT      O48466   6.594   5.990   0.645
16075WAT     H148467   6.670   5.925   0.641
16075WAT     H248468   6.535   5.969   0.722
16076WAT      O48469   8.205   0.719   8.117
16076WAT     H148470   8.106   0.705   8.122
16076WAT     H248471   8.246   0.703   8.207
16077WAT      O48472   4.477   5.206   4.494
16077WAT     H148473   4.498   5.112   4.520
16077WAT     H248474   4.542   5.237   4.426
16078WAT      O48475   5.552   6.353   2.876
16078WAT     H148476   5.638   6.371   2.923
16078WAT     H248477   5.484   6.422   2.901
16079WAT      O48478   6.879   1.195   4.057
16079WAT     H148479   6.971   1.234   4.046
16079WAT     H248480   6.845   1.166   3.968
16080WAT      O48481   2.898   9.372   7.106
16080WAT     H148482   2.874   9.287   7.153
16080WAT     H248483   2.924   9.442   7.173
16081WAT      O48484   0.396   3.887   3.729
16081WAT     H148485   0.400   3.963   3.665
16081WAT     H248486   0.323   3.904   3.796
16082WAT      O48487   7.425   8.764   2.410
16082WAT     H148488   7.387   8.693   2.469
16082WAT     H248489   7.353   8.831   2.388
16083WAT      O48490   9.739   0.333   8.344
16083WAT     H148491   9.704   0.417   8.385
16083WAT     H248492   9.807   0.292   8.405
16084WAT      O48493   6.420   5.762   7.042
16084WAT     H148494   6.464   5.838   7.090
16084WAT     H248495   6.382   5.794   6.955
16085WAT      O48496   3.214   7.074   0.167
16085WAT     H148497   3.171   7.106   0.082
16085WAT     H248498   3.299   7.125   0.183
16086WAT      O48499   6.961   8.007   2.298
16086WAT     H148500   7.038   7.959   2.339
16086WAT     H248501   6.876   7.959   2.319
16087WAT      O48502   6.863   2.673   7.461
16087WAT     H148503   6.905   2.644   7.547
16087WAT     H248504   6.847   2.772   7.464
16088WAT      O48505   9.239   4.674   9.878
16088WAT     H148506   9.306   4.748   9.878
16088WAT     H248507   9.185   4.678   9.962
16089WAT      O48508   6.620   2.719   2.660
16089WAT     H148509   6.561   2.792   2.624
16089WAT     H248510   6.714   2.751   2.665
16090WAT      O48511   0.148   6.520   0.557
16090WAT     H148512   0.230   6.483   0.602
16090WAT     H248513   0.155   6.620   0.554
16091WAT      O48514   2.791   1.049   3.082
16091WAT     H148515   2.758   0.955   3.081
16091WAT     H248516   2.793   1.084   2.988
16092WAT      O48517   3.690   1.106   8.065
16092WAT     H148518   3.641   1.190   8.043
16092WAT     H248519   3.789   1.120   8.054
16093WAT      O48520   3.078   3.535   0.826
16093WAT     H148521   3.005   3.518   0.759
16093WAT     H248522   3.091   3.634   0.836
16094WAT      O48523   9.308   1.716   9.421
16094WAT     H148524   9.357   1.665   9.351
16094WAT     H248525   9.211   1.721   9.396
16095WAT      O48526   1.008   1.074   5.033
16095WAT     H148527   1.029   1.148   4.970
16095WAT     H248528   1.028   0.986   4.989
16096WAT      O48529   0.686   4.872   6.234
16096WAT     H148530   0.644   4.785   6.207
16096WAT     H248531   0.614   4.936   6.262
16097WAT      O48532   2.820   8.777   3.718
16097WAT     H148533   2.871   8.842   3.661
16097WAT     H248534   2.742   8.823   3.759
16098WAT      O48535   9.803   5.162   1.800
16098WAT     H148536   9.816   5.064   1.786
16098WAT     H248537   9.879   5.198   1.855
16099WAT      O48538   8.165   0.722   2.458
16099WAT     H148539   8.101   0.753   2.387
16099WAT     H248540   8.203   0.633   2.432
16100WAT      O48541   7.482   0.572   8.274
16100WAT     H148542   7.457   0.543   8.181
16100WAT     H248543   7.453   0.667   8.287
16101WAT      O48544   6.782   9.480   5.734
16101WAT     H148545   6.701   9.521   5.693
16101WAT     H248546   6.771   9.476   5.834
16102WAT      O48547   8.770   5.857   0.763
16102WAT     H148548   8.830   5.904   0.828
16102WAT     H248549   8.722   5.924   0.707
16103WAT      O48550   2.492   2.816   9.061
16103WAT     H148551   2.513   2.751   8.988
16103WAT     H248552   2.407   2.864   9.040
16104WAT      O48553   4.916   8.931   4.836
16104WAT     H148554   4.912   8.994   4.913
16104WAT     H248555   4.979   8.967   4.767
16105WAT      O48556   5.403   2.601   6.176
16105WAT     H148557   5.464   2.549   6.116
16105WAT     H248558   5.378   2.545   6.255
16106WAT      O48559   5.518   5.244   2.368
16106WAT     H148560   5.481   5.245   2.275
16106WAT     H248561   5.604   5.194   2.369
16107WAT      O48562   1.415   3.568   9.192
16107WAT     H148563   1.505   3.565   9.148
16107WAT     H248564   1.343   3.567   9.122
16108WAT      O48565   4.143   7.342   5.135
16108WAT     H148566   4.146   7.312   5.230
16108WAT     H248567   4.048   7.353   5.106
16109WAT      O48568   0.806   4.138   4.650
16109WAT     H148569   0.800   4.175   4.743
16109WAT     H248570   0.880   4.185   4.602
16110WAT      O48571   3.411   3.010   3.288
16110WAT     H148572   3.484   3.077   3.278
16110WAT     H248573   3.328   3.044   3.244
16111WAT      O48574   8.864   3.939   6.337
16111WAT     H148575   8.903   3.902   6.421
16111WAT     H248576   8.894   3.883   6.259
16112WAT      O48577   2.253   5.661   9.805
16112WAT     H148578   2.267   5.679   9.903
16112WAT     H248579   2.265   5.746   9.754
16113WAT      O48580   2.345   9.156   1.042
16113WAT     H148581   2.328   9.223   1.115
16113WAT     H248582   2.420   9.190   0.984
16114WAT      O48583   2.570   0.041   2.691
16114WAT     H148584   2.630   0.089   2.754
16114WAT     H248585   2.613  -0.043   2.660
16115WAT      O48586   8.195   9.238   3.335
16115WAT     H148587   8.191   9.168   3.405
16115WAT     H248588   8.162   9.201   3.248
16116WAT      O48589   3.652   6.981   7.324
16116WAT     H148590   3.702   6.965   7.409
16116WAT     H248591   3.716   7.002   7.251
16117WAT      O48592   8.784   4.655   9.145
16117WAT     H148593   8.844   4.652   9.224
16117WAT     H248594   8.692   4.623   9.170
16118WAT      O48595   4.600   5.485   9.848
16118WAT     H148596   4.611   5.389   9.825
16118WAT     H248597   4.689   5.530   9.849
16119WAT      O48598   2.229   5.152   9.192
16119WAT     H148599   2.185   5.063   9.194
16119WAT     H248600   2.162   5.224   9.209
16120WAT      O48601   5.575   3.020   9.425
16120WAT     H148602   5.529   2.946   9.376
16120WAT     H248603   5.516   3.055   9.497
16121WAT      O48604   3.797   3.471   5.911
16121WAT     H148605   3.874   3.417   5.878
16121WAT     H248606   3.712   3.427   5.884
16122WAT      O48607   1.816   8.012   4.788
16122WAT     H148608   1.812   7.996   4.689
16122WAT     H248609   1.730   8.053   4.819
16123WAT      O48610   9.364   0.493   7.693
16123WAT     H148611   9.354   0.410   7.638
16123WAT     H248612   9.458   0.501   7.727
16124WAT      O48613   2.716   6.833   0.898
16124WAT     H148614   2.764   6.921   0.905
16124WAT     H248615   2.667   6.816   0.983
16125WAT      O48616   3.392   2.054   1.229
16125WAT     H148617   3.334   2.063   1.148
16125WAT     H248618   3.338   2.076   1.310
16126WAT      O48619   3.306   6.238   0.955
16126WAT     H148620   3.237   6.298   0.996
16126WAT     H248621   3.277   6.212   0.863
16127WAT      O48622   6.049   8.130   5.010
16127WAT     H148623   5.957   8.103   4.982
16127WAT     H248624   6.056   8.230   5.010
16128WAT      O48625   0.942   5.974   2.557
16128WAT     H148626   0.946   6.073   2.541
16128WAT     H248627   0.850   5.942   2.537
16129WAT      O48628   8.510   3.985   6.697
16129WAT     H148629   8.531   3.913   6.763
16129WAT     H248630   8.504   3.945   6.605
16130WAT      O48631   8.499   8.018   4.412
16130WAT     H148632   8.503   8.068   4.499
16130WAT     H248633   8.577   7.955   4.407
16131WAT      O48634   0.727   2.509   7.773
16131WAT     H148635   0.820   2.530   7.804
16131WAT     H248636   0.677   2.465   7.848
16132WAT      O48637   8.951   4.054   0.017
16132WAT     H148638   8.884   3.987  -0.014
16132WAT     H248639   9.038   4.038  -0.030
16133WAT      O48640   8.852   4.771   9.797
16133WAT     H148641   8.871   4.743   9.891
16133WAT     H248642   8.865   4.870   9.789
16134WAT      O48643   3.817   3.077   1.955
16134WAT     H148644   3.877   3.088   2.034
16134WAT     H248645   3.752   3.002   1.972
16135WAT      O48646   6.358   6.524   3.328
16135WAT     H148647   6.349   6.602   3.266
16135WAT     H248648   6.372   6.558   3.421
16136WAT      O48649   6.089   1.210   8.860
16136WAT     H148650   6.041   1.190   8.945
16136WAT     H248651   6.046   1.288   8.815
16137WAT      O48652   2.308   3.441   0.977
16137WAT     H148653   2.210   3.453   0.963
16137WAT     H248654   2.359   3.506   0.920
16138WAT      O48655   4.272   2.761   0.047
16138WAT     H148656   4.186   2.716   0.024
16138WAT     H248657   4.347   2.716  -0.000
16139WAT      O48658   0.649   6.385   8.287
16139WAT     H148659   0.690   6.338   8.365
16139WAT     H248660   0.716   6.445   8.245
16140WAT      O48661   9.088   6.884   0.802
16140WAT     H148662   9.039   6.954   0.854
16140WAT     H248663   9.052   6.881   0.708
16141WAT      O48664   0.546   6.058   7.381
16141WAT     H148665   0.528   6.048   7.283
16141WAT     H248666   0.548   5.967   7.423
16142WAT      O48667   6.532   7.518   1.402
16142WAT     H148668   6.625   7.489   1.425
16142WAT     H248669   6.484   7.544   1.486
16143WAT      O48670   3.652   2.009   3.924
16143WAT     H148671   3.661   1.956   4.008
16143WAT     H248672   3.641   1.947   3.847
16144WAT      O48673   7.708   1.243   9.859
16144WAT     H148674   7.664   1.333   9.853
16144WAT     H248675   7.684   1.188   9.778
16145WAT      O48676   7.012   1.993   6.441
16145WAT     H148677   7.046   1.899   6.445
16145WAT     H248678   6.958   2.013   6.523
16146WAT      O48679   6.298   6.989   1.730
16146WAT     H148680   6.202   6.990   1.756
16146WAT     H248681   6.351   6.939   1.799
16147WAT      O48682   6.932   3.917   8.759
16147WAT     H148683   6.910   3.872   8.672
16147WAT     H248684   6.849   3.955   8.799
16148WAT      O48685   7.666   5.107   2.893
16148WAT     H148686   7.764   5.115   2.876
16148WAT     H248687   7.635   5.016   2.866
16149WAT      O48688   3.144   4.316   5.316
16149WAT     H148689   3.236   4.328   5.279
16149WAT     H248690   3.098   4.405   5.319
16150WAT      O48691   9.410   1.356   9.672
16150WAT     H148692   9.353   1.430   9.637
16150WAT     H248693   9.459   1.313   9.596
16151WAT      O48694   4.058   7.113   4.426
16151WAT     H148695   3.989   7.040   4.426
16151WAT     H248696   4.076   7.142   4.520
16152WAT      O48697   2.192   2.749   3.645
16152WAT     H148698   2.238   2.811   3.581
16152WAT     H248699   2.124   2.695   3.595
16153WAT      O48700   3.786   1.311   7.106
16153WAT     H148701   3.822   1.403   7.090
16153WAT     H248702   3.702   1.317   7.160
16154WAT      O48703   6.903   5.115   3.852
16154WAT     H148704   6.873   5.175   3.778
16154WAT     H248705   6.911   5.168   3.937
16155WAT      O48706   2.065   3.401   6.992
16155WAT     H148707   2.068   3.368   7.086
16155WAT     H248708   2.138   3.356   6.939
16156WAT      O48709   5.798   9.444   8.083
16156WAT     H148710   5.893   9.439   8.115
16156WAT     H248711   5.738   9.398   8.148
16157WAT      O48712   4.421   6.650   9.242
16157WAT     H148713   4.438   6.667   9.145
16157WAT     H248714   4.497   6.597   9.280
16158WAT      O48715   8.528   2.339   0.333
16158WAT     H148716   8.584   2.364   0.412
16158WAT     H248717   8.546   2.243   0.310
16159WAT      O48718   3.962   5.206   5.049
16159WAT     H148719   4.011   5.152   4.981
16159WAT     H248720   4.026   5.238   5.119
16160WAT      O48721   8.058   2.670   2.021
16160WAT     H148722   8.132   2.729   2.052
16160WAT     H248723   7.993   2.723   1.967
16161WAT      O48724   7.034   4.825   2.391
16161WAT     H148725   7.118   4.789   2.350
16161WAT     H248726   6.997   4.758   2.456
16162WAT      O48727   0.299   5.740   2.363
16162WAT     H148728   0.393   5.714   2.342
16162WAT     H248729   0.243   5.732   2.280
16163WAT      O48730   7.058   3.384   2.974
16163WAT     H148731   7.032   3.428   2.888
16163WAT     H248732   6.991   3.407   3.045
16164WAT      O48733   1.658   4.674   5.546
16164WAT     H148734   1.754   4.648   5.542
16164WAT     H248735   1.615   4.633   5.627
16165WAT      O48736   9.438   4.643   3.769
16165WAT     H148737   9.398   4.724   3.812
16165WAT     H248738   9.377   4.610   3.697
16166WAT      O48739   2.950   1.278   7.811
16166WAT     H148740   2.947   1.364   7.862
16166WAT     H248741   2.997   1.292   7.724
16167WAT      O48742   1.020   3.853   5.122
16167WAT     H148743   1.003   3.831   5.218
16167WAT     H248744   1.115   3.885   5.112
16168WAT      O48745   0.115   6.315   1.127
16168WAT     H148746   0.147   6.222   1.148
16168WAT     H248747   0.072   6.354   1.207
16169WAT      O48748   5.582   9.574   7.978
16169WAT     H148749   5.656   9.548   8.040
16169WAT     H248750   5.524   9.643   8.022
16170WAT      O48751   1.301   7.431   6.787
16170WAT     H148752   1.326   7.424   6.691
16170WAT     H248753   1.206   7.462   6.795
16171WAT      O48754   1.729   2.149   7.739
16171WAT     H148755   1.700   2.204   7.661
16171WAT     H248756   1.765   2.209   7.811
16172WAT      O48757   5.419   2.709   3.224
16172WAT     H148758   5.386   2.768   3.150
16172WAT     H248759   5.470   2.632   3.185
16173WAT      O48760   0.172   0.354   1.778
16173WAT     H148761   0.120   0.394   1.854
16173WAT     H248762   0.143   0.398   1.692
16174WAT      O48763   7.836   2.159   9.503
16174WAT     H148764   7.787   2.074   9.527
16174WAT     H248765   7.783   2.210   9.436
16175WAT      O48766   5.785   4.295   3.319
16175WAT     H148767   5.804   4.228   3.391
16175WAT     H248768   5.797   4.252   3.230
16176WAT      O48769   7.425   6.169   3.058
16176WAT     H148770   7.502   6.212   3.104
16176WAT     H248771   7.409   6.213   2.970
16177WAT      O48772   6.289   7.413   7.028
16177WAT     H148773   6.255   7.497   6.986
16177WAT     H248774   6.369   7.380   6.978
16178WAT      O48775   9.579   8.955   5.299
16178WAT     H148776   9.542   8.863   5.282
16178WAT     H248777   9.672   8.961   5.262
16179WAT      O48778   5.886   5.427   1.712
16179WAT     H148779   5.915   5.492   1.783
16179WAT     H248780   5.941   5.442   1.630
16180WAT      O48781   8.722   2.840   1.494
16180WAT     H148782   8.729   2.924   1.548
16180WAT     H248783   8.763   2.856   1.404
16181WAT      O48784   5.854   4.529   9.735
16181WAT     H148785   5.861   4.430   9.729
16181WAT     H248786   5.922   4.564   9.799
16182WAT      O48787   4.843   6.837   5.003
16182WAT     H148788   4.813   6.747   4.970
16182WAT     H248789   4.840   6.838   5.103
16183WAT      O48790   4.680   8.874   7.138
16183WAT     H148791   4.615   8.806   7.172
16183WAT     H248792   4.758   8.880   7.200
16184WAT      O48793   9.732   4.200   9.457
16184WAT     H148794   9.683   4.223   9.373
16184WAT     H248795   9.673   4.215   9.536
16185WAT      O48796   1.338   9.081   2.432
16185WAT     H148797   1.359   9.140   2.355
16185WAT     H248798   1.239   9.068   2.437
16186WAT      O48799   8.284   6.773   1.253
16186WAT     H148800   8.310   6.810   1.342
16186WAT     H248801   8.185   6.781   1.241
16187WAT      O48802   8.723   5.555   7.771
16187WAT     H148803   8.644   5.534   7.714
16187WAT     H248804   8.750   5.650   7.758
16188WAT      O48805   0.357   2.572   3.195
16188WAT     H148806   0.446   2.536   3.167
16188WAT     H248807   0.299   2.496   3.224
16189WAT      O48808   3.738   6.644   8.694
16189WAT     H148809   3.790   6.702   8.631
16189WAT     H248810   3.766   6.663   8.788
16190WAT      O48811   6.070   0.795   2.865
16190WAT     H148812   6.055   0.889   2.834
16190WAT     H248813   6.039   0.732   2.793
16191WAT      O48814   0.009   0.256   8.545
16191WAT     H148815   0.073   0.332   8.552
16191WAT     H248816   0.044   0.177   8.595
16192WAT      O48817   2.887   7.166   9.472
16192WAT     H148818   2.827   7.107   9.525
16192WAT     H248819   2.832   7.232   9.421
16193WAT      O48820   6.945   2.425   8.087
16193WAT     H148821   6.968   2.469   8.174
16193WAT     H248822   6.933   2.327   8.102
16194WAT      O48823   9.433   0.251   1.840
16194WAT     H148824   9.406   0.294   1.926
16194WAT     H248825   9.533   0.252   1.833
16195WAT      O48826   3.613   4.297   6.638
16195WAT     H148827   3.693   4.247   6.670
16195WAT     H248828   3.574   4.350   6.714
16196WAT      O48829   3.457   1.306   2.572
16196WAT     H148830   3.461   1.287   2.670
16196WAT     H248831   3.401   1.237   2.526
16197WAT      O48832   6.896   5.223   7.321
16197WAT     H148833   6.874   5.160   7.247
16197WAT     H248834   6.929   5.171   7.400
16198WAT      O48835   3.816   3.810   9.608
16198WAT     H148836   3.721   3.807   9.578
16198WAT     H248837   3.822   3.776   9.702
16199WAT      O48838   2.042   9.450   5.599
16199WAT     H148839   1.961   9.421   5.548
16199WAT     H248840   2.124   9.408   5.559
16200WAT      O48841   1.597   1.300   4.308
16200WAT     H148842   1.511   1.250   4.317
16200WAT     H248843   1.602   1.342   4.218
16201WAT      O48844   5.056   0.971   8.678
16201WAT     H148845   5.090   0.898   8.619
16201WAT     H248846   5.077   1.059   8.637
16202WAT      O48847   6.673   2.176   4.130
16202WAT     H148848   6.753   2.232   4.151
16202WAT     H248849   6.595   2.236   4.111
16203WAT      O48850   5.749   2.905   0.910
16203WAT     H148851   5.766   2.991   0.958
16203WAT     H248852   5.821   2.889   0.843
16204WAT      O48853   4.288   7.786   2.402
16204WAT     H148854   4.256   7.838   2.481
16204WAT     H248855   4.376   7.822   2.371
16205WAT      O48856   2.077   1.465   9.489
16205WAT     H148857   2.128   1.462   9.403
16205WAT     H248858   2.131   1.511   9.559
16206WAT      O48859   6.370   0.942   3.260
16206WAT     H148860   6.357   0.989   3.172
16206WAT     H248861   6.316   0.858   3.261
16207WAT      O48862   6.437   0.302   2.799
16207WAT     H148863   6.431   0.394   2.837
16207WAT     H248864   6.517   0.296   2.739
16208WAT      O48865   2.443   8.960   2.180
16208WAT     H148866   2.370   8.893   2.166
16208WAT     H248867   2.417   9.023   2.253
16209WAT      O48868   6.555   3.256   1.810
16209WAT     H148869   6.651   3.284   1.805
16209WAT     H248870   6.502   3.328   1.856
16210WAT      O48871   6.303   4.964   1.100
16210WAT     H148872   6.403   4.968   1.109
16210WAT     H248873   6.266   5.057   1.105
16211WAT      O48874   1.309   0.809   9.621
16211WAT     H148875   1.307   0.830   9.719
16211WAT     H248876   1.218   0.820   9.582
16212WAT      O48877   7.112   1.243   3.946
16212WAT     H148878   7.087   1.242   3.849
16212WAT     H248879   7.158   1.329   3.967
16213WAT      O48880   2.341   6.530   0.850
16213WAT     H148881   2.306   6.623   0.838
16213WAT     H248882   2.376   6.496   0.762
16214WAT      O48883   6.145   8.362   7.494
16214WAT     H148884   6.151   8.447   7.546
16214WAT     H248885   6.129   8.383   7.397
16215WAT      O48886   5.660   9.251   3.020
16215WAT     H148887   5.660   9.227   3.117
16215WAT     H248888   5.609   9.183   2.968
16216WAT      O48889   2.882   9.474   5.320
16216WAT     H148890   2.832   9.423   5.251
16216WAT     H248891   2.818   9.521   5.381
16217WAT      O48892   0.066   1.058   9.194
16217WAT     H148893   0.012   1.143   9.187
16217WAT     H248894   0.082   1.037   9.290
16218WAT      O48895   5.230   3.421   6.505
16218WAT     H148896   5.296   3.451   6.437
16218WAT     H248897   5.277   3.384   6.584
16219WAT      O48898   3.806   1.901   6.367
16219WAT     H148899   3.860   1.873   6.446
16219WAT     H248900   3.712   1.920   6.396
16220WAT      O48901   1.360   9.826   0.475
16220WAT     H148902   1.416   9.882   0.415
16220WAT     H248903   1.268   9.865   0.481
16221WAT      O48904   3.458   5.500   1.403
16221WAT     H148905   3.449   5.410   1.361
16221WAT     H248906   3.455   5.491   1.503
16222WAT      O48907   0.464   4.058   4.359
16222WAT     H148908   0.460   4.153   4.389
16222WAT     H248909   0.438   4.052   4.262
16223WAT      O48910   8.597   5.701   6.016
16223WAT     H148911   8.612   5.697   6.115
16223WAT     H248912   8.641   5.623   5.973
16224WAT      O48913   7.615   8.952   7.244
16224WAT     H148914   7.535   9.010   7.257
16224WAT     H248915   7.586   8.864   7.207
16225WAT      O48916   0.826   9.202   7.532
16225WAT     H148917   0.738   9.240   7.559
16225WAT     H248918   0.849   9.125   7.593
16226WAT      O48919   0.454   5.300   9.442
16226WAT     H148920   0.368   5.252   9.457
16226WAT     H248921   0.501   5.314   9.529
16227WAT      O48922   0.300   1.690   6.807
16227WAT     H148923   0.370   1.621   6.791
16227WAT     H248924   0.320   1.738   6.892
16228WAT      O48925   0.945   3.789   6.957
16228WAT     H148926   0.920   3.711   7.014
16228WAT     H248927   0.922   3.874   7.005
16229WAT      O48928   6.323   0.534   4.968
16229WAT     H148929   6.394   0.484   4.918
16229WAT     H248930   6.365   0.599   5.030
16230WAT      O48931   6.139   3.658   3.204
16230WAT     H148932   6.042   3.637   3.191
16230WAT     H248933   6.192   3.618   3.129
16231WAT      O48934   6.894   2.102   9.729
16231WAT     H148935   6.993   2.095   9.732
16231WAT     H248936   6.854   2.012   9.745
16232WAT      O48937   9.054   3.234   1.903
16232WAT     H148938   9.041   3.138   1.880
16232WAT     H248939   8.965   3.276   1.920
16233WAT      O48940   1.699   3.067   8.996
16233WAT     H148941   1.606   3.056   8.961
16233WAT     H248942   1.759   3.096   8.921
16234WAT      O48943   4.120   3.309   9.315
16234WAT     H148944   4.181   3.300   9.237
16234WAT     H248945   4.030   3.340   9.284
16235WAT      O48946   1.872   0.638   3.532
16235WAT     H148947   1.864   0.575   3.610
16235WAT     H248948   1.794   0.700   3.531
16236WAT      O48949   3.850   6.532   1.440
16236WAT     H148950   3.859   6.433   1.452
16236WAT     H248951   3.810   6.552   1.351
16237WAT      O48952   3.834   1.464   0.843
16237WAT     H148953   3.747   1.508   0.867
16237WAT     H248954   3.823   1.365   0.843
16238WAT      O48955   8.950   5.508   5.305
16238WAT     H148956   9.039   5.503   5.260
16238WAT     H248957   8.885   5.448   5.258
16239WAT      O48958   3.199   7.281   8.264
16239WAT     H148959   3.136   7.282   8.186
16239WAT     H248960   3.194   7.368   8.312
16240WAT      O48961   9.240   5.710   8.962
16240WAT     H148962   9.329   5.732   8.921
16240WAT     H248963   9.183   5.791   8.963
16241WAT      O48964   6.940   5.512   2.602
16241WAT     H148965   7.009   5.581   2.623
16241WAT     H248966   6.968   5.424   2.640
16242WAT      O48967   8.082   5.767   0.451
16242WAT     H148968   8.139   5.849   0.448
16242WAT     H248969   8.046   5.748   0.359
16243WAT      O48970   8.436   8.368   7.143
16243WAT     H148971   8.536   8.361   7.146
16243WAT     H248972   8.401   8.385   7.236
16244WAT      O48973   3.764   1.544   9.412
16244WAT     H148974   3.731   1.572   9.322
16244WAT     H248975   3.852   1.496   9.402
16245WAT      O48976   2.444   8.852   0.387
16245WAT     H148977   2.432   8.896   0.298
16245WAT     H248978   2.478   8.919   0.453
16246WAT      O48979   8.533   4.745   8.867
16246WAT     H148980   8.484   4.746   8.780
16246WAT     H248981   8.604   4.675   8.864
16247WAT      O48982   5.587   7.339   4.304
16247WAT     H148983   5.604   7.309   4.398
16247WAT     H248984   5.586   7.260   4.243
16248WAT      O48985   7.050   4.211   1.557
16248WAT     H148986   6.965   4.243   1.514
16248WAT     H248987   7.027   4.147   1.630
16249WAT      O48988   1.885   5.506   0.795
16249WAT     H148989   1.845   5.498   0.704
16249WAT     H248990   1.979   5.475   0.793
16250WAT      O48991   8.013   3.658   9.203
16250WAT     H148992   7.932   3.689   9.153
16250WAT     H248993   8.089   3.721   9.185
16251WAT      O48994   6.550   9.480   8.649
16251WAT     H148995   6.600   9.530   8.719
16251WAT     H248996   6.615   9.429   8.592
16252WAT      O48997   6.573   8.846   5.572
16252WAT     H148998   6.531   8.778   5.632
16252WAT     H248999   6.669   8.858   5.598
16253WAT      O49000   9.346   8.290   1.145
16253WAT     H149001   9.352   8.308   1.243
16253WAT     H249002   9.429   8.321   1.099
16254WAT      O49003   7.450   3.438   4.477
16254WAT     H149004   7.425   3.531   4.451
16254WAT     H249005   7.373   3.395   4.524
16255WAT      O49006   2.781   6.000   5.364
16255WAT     H149007   2.850   6.058   5.405
16255WAT     H249008   2.700   6.055   5.340
16256WAT      O49009   0.371   0.258   5.812
16256WAT     H149010   0.446   0.282   5.750
16256WAT     H249011   0.370   0.320   5.890
16257WAT      O49012   4.738   7.366   3.713
16257WAT     H149013   4.672   7.303   3.755
16257WAT     H249014   4.690   7.430   3.653
16258WAT      O49015   2.144   5.394   5.902
16258WAT     H149016   2.116   5.380   5.807
16258WAT     H249017   2.129   5.490   5.927
16259WAT      O49018   4.109   1.956   3.239
16259WAT     H149019   4.082   1.860   3.244
16259WAT     H249020   4.207   1.963   3.220
16260WAT      O49021   0.221   1.268   7.127
16260WAT     H149022   0.295   1.227   7.073
16260WAT     H249023   0.134   1.224   7.105
16261WAT      O49024   4.457   3.262   0.755
16261WAT     H149025   4.482   3.178   0.803
16261WAT     H249026   4.521   3.335   0.780
16262WAT      O49027   0.398   9.816   0.313
16262WAT     H149028   0.346   9.743   0.268
16262WAT     H249029   0.495   9.794   0.313
16263WAT      O49030   2.172   8.807   7.317
16263WAT     H149031   2.166   8.800   7.218
16263WAT     H249032   2.121   8.731   7.358
16264WAT      O49033   7.662   6.428   4.076
16264WAT     H149034   7.736   6.443   4.142
16264WAT     H249035   7.597   6.504   4.082
16265WAT      O49036   7.064   8.073   0.193
16265WAT     H149037   7.151   8.067   0.243
16265WAT     H249038   7.022   7.982   0.188
16266WAT      O49039   6.736   8.278   4.285
16266WAT     H149040   6.830   8.248   4.273
16266WAT     H249041   6.733   8.357   4.345
16267WAT      O49042   4.322   7.702   4.301
16267WAT     H149043   4.245   7.751   4.259
16267WAT     H249044   4.297   7.671   4.392
16268WAT      O49045   9.877   7.426   3.872
16268WAT     H149046   9.941   7.481   3.819
16268WAT     H249047   9.833   7.483   3.941
16269WAT      O49048   4.683   6.148   0.005
16269WAT     H149049   4.768   6.170   0.053
16269WAT     H249050   4.624   6.093   0.064
16270WAT      O49051   4.854   6.639   9.858
16270WAT     H149052   4.842   6.675   9.951
16270WAT     H249053   4.786   6.568   9.841
16271WAT      O49054   4.518   7.795   5.188
16271WAT     H149055   4.538   7.867   5.122
16271WAT     H249056   4.478   7.717   5.140
16272WAT      O49057   5.974   4.880   3.769
16272WAT     H149058   6.062   4.923   3.747
16272WAT     H249059   5.986   4.817   3.845
16273WAT      O49060   5.439   9.481   9.116
16273WAT     H149061   5.468   9.388   9.096
16273WAT     H249062   5.512   9.529   9.166
16274WAT      O49063   6.170   7.577   8.144
16274WAT     H149064   6.159   7.507   8.074
16274WAT     H249065   6.248   7.635   8.122
16275WAT      O49066   2.094   2.822   2.202
16275WAT     H149067   2.067   2.916   2.181
16275WAT     H249068   2.189   2.821   2.233
16276WAT      O49069   3.128   8.260   4.922
16276WAT     H149070   3.135   8.356   4.949
16276WAT     H249071   3.091   8.254   4.829
16277WAT      O49072   8.746   0.824   5.728
16277WAT     H149073   8.676   0.805   5.659
16277WAT     H249074   8.809   0.894   5.694
16278WAT      O49075   0.866   0.571   0.735
16278WAT     H149076   0.799   0.499   0.718
16278WAT     H249077   0.958   0.534   0.723
16279WAT      O49078   0.773   5.332   0.569
16279WAT     H149079   0.777   5.275   0.651
16279WAT     H249080   0.682   5.375   0.562
16280WAT      O49081   8.258   2.048   9.080
16280WAT     H149082   8.316   1.977   9.121
16280WAT     H249083   8.194   2.082   9.148
16281WAT      O49084   8.769   5.424   0.403
16281WAT     H149085   8.831   5.387   0.472
16281WAT     H249086   8.795   5.518   0.382
16282WAT      O49087   5.356   3.717   3.128
16282WAT     H149088   5.279   3.655   3.116
16282WAT     H249089   5.322   3.809   3.150
16283WAT      O49090   4.735   6.146   4.131
16283WAT     H149091   4.650   6.197   4.127
16283WAT     H249092   4.735   6.086   4.211
16284WAT      O49093   2.010   6.784   9.787
16284WAT     H149094   2.108   6.763   9.790
16284WAT     H249095   1.998   6.881   9.766
16285WAT      O49096   7.015   5.104   2.454
16285WAT     H149097   7.107   5.141   2.467
16285WAT     H249098   7.021   5.009   2.424
16286WAT      O49099   5.867   7.276   5.534
16286WAT     H149100   5.890   7.341   5.462
16286WAT     H249101   5.781   7.230   5.512
16287WAT      O49102   0.075   5.955   7.734
16287WAT     H149103   0.046   5.861   7.756
16287WAT     H249104  -0.004   6.015   7.734
16288WAT      O49105   1.552   0.846   4.408
16288WAT     H149106   1.551   0.799   4.320
16288WAT     H249107   1.589   0.938   4.396
16289WAT      O49108   8.258   5.360   7.412
16289WAT     H149109   8.349   5.322   7.423
16289WAT     H249110   8.191   5.286   7.404
16290WAT      O49111   8.026   0.872   1.991
16290WAT     H149112   7.926   0.875   1.985
16290WAT     H249113   8.064   0.859   1.900
16291WAT      O49114   2.199   3.087   2.557
16291WAT     H149115   2.170   2.993   2.543
16291WAT     H249116   2.267   3.112   2.488
16292WAT      O49117   9.883   1.872   8.398
16292WAT     H149118   9.817   1.869   8.322
16292WAT     H249119   9.906   1.779   8.426
16293WAT      O49120   8.528   5.346   0.652
16293WAT     H149121   8.536   5.258   0.699
16293WAT     H249122   8.479   5.333   0.566
16294WAT      O49123   8.528   6.630   4.083
16294WAT     H149124   8.436   6.665   4.105
16294WAT     H249125   8.549   6.650   3.988
16295WAT      O49126   3.140   3.607   4.497
16295WAT     H149127   3.045   3.580   4.481
16295WAT     H249128   3.200   3.557   4.434
16296WAT      O49129   2.455   7.801   1.611
16296WAT     H149130   2.364   7.808   1.651
16296WAT     H249131   2.490   7.708   1.622
16297WAT      O49132   5.211   2.682   6.922
16297WAT     H149133   5.139   2.734   6.966
16297WAT     H249134   5.180   2.588   6.906
16298WAT      O49135   9.049   5.901   9.385
16298WAT     H149136   9.029   5.808   9.414
16298WAT     H249137   9.105   5.899   9.302
16299WAT      O49138   7.442   5.523   1.481
16299WAT     H149139   7.480   5.431   1.464
16299WAT     H249140   7.442   5.575   1.396
16300WAT      O49141   3.255   8.032   6.407
16300WAT     H149142   3.195   7.952   6.412
16300WAT     H249143   3.253   8.070   6.315
16301WAT      O49144   5.948   4.321   1.245
16301WAT     H149145   5.921   4.405   1.293
16301WAT     H249146   5.877   4.296   1.179
16302WAT      O49147   4.486   6.052   7.588
16302WAT     H149148   4.467   6.114   7.664
16302WAT     H249149   4.551   5.983   7.618
16303WAT      O49150   4.385   7.558   1.543
16303WAT     H149151   4.441   7.493   1.492
16303WAT     H249152   4.336   7.511   1.616
16304WAT      O49153   8.093   1.428   7.361
16304WAT     H149154   8.030   1.499   7.392
16304WAT     H249155   8.164   1.415   7.430
16305WAT      O49156   8.172   5.985   7.656
16305WAT     H149157   8.191   5.969   7.753
16305WAT     H249158   8.185   6.083   7.636
16306WAT      O49159   3.637   6.341   9.159
16306WAT     H149160   3.714   6.284   9.132
16306WAT     H249161   3.617   6.407   9.086
16307WAT      O49162   9.261   3.009   5.261
16307WAT     H149163   9.195   3.045   5.326
16307WAT     H249164   9.336   2.965   5.311
16308WAT      O49165   9.070   6.006   0.858
16308WAT     H149166   9.107   6.024   0.767
16308WAT     H249167   9.115   5.926   0.898
16309WAT      O49168   9.357   3.947   2.644
16309WAT     H149169   9.275   3.953   2.702
16309WAT     H249170   9.419   3.877   2.680
16310WAT      O49171   9.492   5.531   5.787
16310WAT     H149172   9.507   5.441   5.746
16310WAT     H249173   9.402   5.564   5.761
16311WAT      O49174   4.496   4.430   5.530
16311WAT     H149175   4.482   4.331   5.527
16311WAT     H249176   4.408   4.475   5.541
16312WAT      O49177   0.329   2.493   3.764
16312WAT     H149178   0.373   2.476   3.853
16312WAT     H249179   0.334   2.410   3.708
16313WAT      O49180   5.671   8.828   6.666
16313WAT     H149181   5.721   8.843   6.581
16313WAT     H249182   5.593   8.767   6.648
16314WAT      O49183   3.092   1.576   5.293
16314WAT     H149184   3.157   1.621   5.354
16314WAT     H249185   3.097   1.618   5.202
16315WAT      O49186   9.042   3.322   3.238
16315WAT     H149187   9.087   3.382   3.304
16315WAT     H249188   8.992   3.251   3.287
16316WAT      O49189   9.150   5.733   0.693
16316WAT     H149190   9.244   5.715   0.720
16316WAT     H249191   9.088   5.679   0.750
16317WAT      O49192   8.912   9.529   9.670
16317WAT     H149193   8.881   9.460   9.604
16317WAT     H249194   8.880   9.505   9.761
16318WAT      O49195   6.677   9.657   8.813
16318WAT     H149196   6.700   9.753   8.796
16318WAT     H249197   6.594   9.652   8.868
16319WAT      O49198   1.543   8.311   6.302
16319WAT     H149199   1.589   8.283   6.386
16319WAT     H249200   1.482   8.388   6.320
16320WAT      O49201   6.341   2.142   8.032
16320WAT     H149202   6.440   2.155   8.035
16320WAT     H249203   6.317   2.077   7.960
16321WAT      O49204   8.303   4.323   7.426
16321WAT     H149205   8.212   4.309   7.387
16321WAT     H249206   8.295   4.343   7.524
16322WAT      O49207   7.703   1.098   6.508
16322WAT     H149208   7.607   1.104   6.481
16322WAT     H249209   7.711   1.118   6.606
16323WAT      O49210   9.728   2.729   9.416
16323WAT     H149211   9.745   2.741   9.514
16323WAT     H249212   9.688   2.639   9.400
16324WAT      O49213   6.758   3.462   9.234
16324WAT     H149214   6.796   3.554   9.230
16324WAT     H249215   6.722   3.437   9.144
16325WAT      O49216   9.610   8.295   1.448
16325WAT     H149217   9.512   8.296   1.431
16325WAT     H249218   9.653   8.369   1.396
16326WAT      O49219   0.685   8.575   4.074
16326WAT     H149220   0.609   8.524   4.114
16326WAT     H249221   0.670   8.673   4.087
16327WAT      O49222   1.589   1.080   1.032
16327WAT     H149223   1.678   1.077   1.079
16327WAT     H249224   1.521   1.031   1.087
16328WAT      O49225   2.707   1.032   1.258
16328WAT     H149226   2.697   1.131   1.255
16328WAT     H249227   2.709   0.996   1.165
16329WAT      O49228   4.800   5.414   2.023
16329WAT     H149229   4.888   5.393   2.064
16329WAT     H249230   4.787   5.360   1.939
16330WAT      O49231   0.461   8.138   0.586
16330WAT     H149232   0.524   8.061   0.599
16330WAT     H249233   0.380   8.124   0.643
16331WAT      O49234   0.853   8.538   5.406
16331WAT     H149235   0.788   8.520   5.332
16331WAT     H249236   0.816   8.608   5.467
16332WAT      O49237   9.319   7.324   6.123
16332WAT     H149238   9.400   7.323   6.066
16332WAT     H249239   9.345   7.306   6.218
16333WAT      O49240   2.513   1.494   9.179
16333WAT     H149241   2.606   1.471   9.149
16333WAT     H249242   2.518   1.555   9.258
16334WAT      O49243   5.603   3.637   3.160
16334WAT     H149244   5.608   3.540   3.182
16334WAT     H249245   5.508   3.666   3.157
16335WAT      O49246   8.120   6.019   8.704
16335WAT     H149247   8.130   5.941   8.642
16335WAT     H249248   8.040   6.073   8.677
16336WAT      O49249   7.443   7.467   6.936
16336WAT     H149250   7.513   7.412   6.890
16336WAT     H249251   7.465   7.564   6.927
16337WAT      O49252   2.714   0.710   0.088
16337WAT     H149253   2.791   0.772   0.078
16337WAT     H249254   2.693   0.668  -0.000
16338WAT      O49255   2.579   9.577   6.727
16338WAT     H149256   2.660   9.582   6.669
16338WAT     H249257   2.605   9.541   6.817
16339WAT      O49258   3.654   7.628   9.297
16339WAT     H149259   3.637   7.543   9.347
16339WAT     H249260   3.593   7.700   9.331
16340WAT      O49261   1.512   8.484   9.372
16340WAT     H149262   1.557   8.413   9.318
16340WAT     H249263   1.512   8.570   9.321
16341WAT      O49264   3.872   1.629   5.946
16341WAT     H149265   3.811   1.685   5.889
16341WAT     H249266   3.948   1.595   5.891
16342WAT      O49267   7.054   6.908   2.573
16342WAT     H149268   7.140   6.959   2.574
16342WAT     H249269   7.060   6.833   2.507
16343WAT      O49270   7.298   0.127   2.128
16343WAT     H149271   7.236   0.062   2.173
16343WAT     H249272   7.324   0.091   2.039
16344WAT      O49273   6.211   9.443   3.009
16344WAT     H149274   6.143   9.425   3.080
16344WAT     H249275   6.225   9.360   2.955
16345WAT      O49276   2.657   9.504   7.009
16345WAT     H149277   2.626   9.565   7.081
16345WAT     H249278   2.736   9.452   7.041
16346WAT      O49279   5.594   2.456   6.017
16346WAT     H149280   5.601   2.413   5.927
16346WAT     H249281   5.622   2.391   6.088
16347WAT      O49282   3.658   4.789   6.587
16347WAT     H149283   3.572   4.824   6.626
16347WAT     H249284   3.729   4.858   6.596
16348WAT      O49285   7.108   7.976   4.568
16348WAT     H149286   7.110   7.974   4.468
16348WAT     H249287   7.191   7.932   4.603
16349WAT      O49288   3.073   8.913   4.702
16349WAT     H149289   3.095   8.934   4.797
16349WAT     H249290   3.115   8.981   4.642
16350WAT      O49291   3.299   4.379   4.717
16350WAT     H149292   3.340   4.381   4.808
16350WAT     H249293   3.304   4.286   4.681
16351WAT      O49294   0.127   3.590   8.598
16351WAT     H149295   0.089   3.592   8.690
16351WAT     H249296   0.073   3.528   8.541
16352WAT      O49297   5.089   4.078   0.116
16352WAT     H149298   5.023   4.117   0.051
16352WAT     H249299   5.043   4.058   0.202
16353WAT      O49300   7.057   9.230   8.543
16353WAT     H149301   7.001   9.310   8.521
16353WAT     H249302   7.148   9.261   8.571
16354WAT      O49303   7.377   5.157   2.131
16354WAT     H149304   7.299   5.096   2.117
16354WAT     H249305   7.407   5.194   2.043
16355WAT      O49306   8.631   9.811   0.038
16355WAT     H149307   8.598   9.719   0.061
16355WAT     H249308   8.694   9.805  -0.040
16356WAT      O49309   7.558   1.306   3.773
16356WAT     H149310   7.535   1.247   3.851
16356WAT     H249311   7.636   1.266   3.724
16357WAT      O49312   5.325   7.546   0.214
16357WAT     H149313   5.332   7.615   0.143
16357WAT     H249314   5.361   7.459   0.180
16358WAT      O49315   6.501   5.015   4.829
16358WAT     H149316   6.509   4.917   4.809
16358WAT     H249317   6.458   5.061   4.752
16359WAT      O49318   2.846   1.087   8.861
16359WAT     H149319   2.875   1.169   8.910
16359WAT     H249320   2.882   1.090   8.768
16360WAT      O49321   2.776   5.578   6.785
16360WAT     H149322   2.744   5.518   6.858
16360WAT     H249323   2.797   5.524   6.703
16361WAT      O49324   6.268   3.268   8.117
16361WAT     H149325   6.309   3.177   8.111
16361WAT     H249326   6.235   3.284   8.209
16362WAT      O49327   7.090   9.734   8.254
16362WAT     H149328   6.997   9.698   8.263
16362WAT     H249329   7.135   9.693   8.175
16363WAT      O49330   6.438   2.059   8.753
16363WAT     H149331   6.524   2.045   8.801
16363WAT     H249332   6.456   2.090   8.660
16364WAT      O49333   3.937   0.713   6.308
16364WAT     H149334   4.018   0.659   6.284
16364WAT     H249335   3.856   0.673   6.264
16365WAT      O49336   1.617   9.819   4.809
16365WAT     H149337   1.523   9.784   4.808
16365WAT     H249338   1.659   9.799   4.897
16366WAT      O49339   7.100   1.851   0.800
16366WAT     H149340   7.169   1.878   0.734
16366WAT     H249341   7.010   1.882   0.769
16367WAT      O49342   3.619   8.687   4.303
16367WAT     H149343   3.539   8.722   4.351
16367WAT     H249344   3.700   8.698   4.362
16368WAT      O49345   8.577   1.173   1.805
16368WAT     H149346   8.650   1.122   1.759
16368WAT     H249347   8.489   1.135   1.777
16369WAT      O49348   5.059   3.646   3.629
16369WAT     H149349   5.115   3.692   3.561
16369WAT     H249350   4.970   3.622   3.590
16370WAT      O49351   3.039   1.482   9.185
16370WAT     H149352   3.138   1.492   9.193
16370WAT     H249353   3.007   1.410   9.245
16371WAT      O49354   8.581   4.414   5.824
16371WAT     H149355   8.602   4.475   5.901
16371WAT     H249356   8.664   4.400   5.770
16372WAT      O49357   5.913   2.173   1.498
16372WAT     H149358   5.980   2.216   1.559
16372WAT     H249359   5.887   2.238   1.426
16373WAT      O49360   7.998   7.477   3.867
16373WAT     H149361   8.020   7.568   3.902
16373WAT     H249362   8.030   7.408   3.931
16374WAT      O49363   5.053   4.301   1.117
16374WAT     H149364   5.045   4.399   1.105
16374WAT     H249365   5.014   4.254   1.037
16375WAT      O49366   8.586   7.126   0.574
16375WAT     H149367   8.558   7.042   0.621
16375WAT     H249368   8.505   7.174   0.541
16376WAT      O49369   6.606   7.817   6.093
16376WAT     H149370   6.652   7.888   6.146
16376WAT     H249371   6.570   7.856   6.008
16377WAT      O49372   9.178   2.527   5.927
16377WAT     H149373   9.147   2.593   5.996
16377WAT     H249374   9.175   2.435   5.966
16378WAT      O49375   7.890   6.460   7.782
16378WAT     H149376   7.880   6.551   7.741
16378WAT     H249377   7.804   6.432   7.824
16379WAT      O49378   8.317   6.582   9.334
16379WAT     H149379   8.319   6.604   9.432
16379WAT     H249380   8.410   6.566   9.301
16380WAT      O49381   3.496   6.996   2.667
16380WAT     H149382   3.450   7.082   2.688
16380WAT     H249383   3.593   7.013   2.652
16381WAT      O49384   9.506   0.154   0.675
16381WAT     H149385   9.468   0.198   0.594
16381WAT     H249386   9.443   0.083   0.707
16382WAT      O49387   7.178   7.465   1.720
16382WAT     H149388   7.274   7.473   1.746
16382WAT     H249389   7.170   7.413   1.635
16383WAT      O49390   1.960   2.346   0.669
16383WAT     H149391   1.869   2.330   0.708
16383WAT     H249392   1.980   2.277   0.600
16384WAT      O49393   8.370   0.445   5.480
16384WAT     H149394   8.320   0.468   5.563
16384WAT     H249395   8.305   0.426   5.406
16385WAT      O49396   6.557   4.155   9.867
16385WAT     H149397   6.508   4.214   9.931
16385WAT     H249398   6.521   4.168   9.775
16386WAT      O49399   7.831   4.369   5.581
16386WAT     H149400   7.792   4.279   5.599
16386WAT     H249401   7.923   4.359   5.543
16387WAT      O49402   5.562   6.161   8.546
16387WAT     H149403   5.563   6.260   8.560
16387WAT     H249404   5.485   6.136   8.488
16388WAT      O49405   8.264   4.413   8.420
16388WAT     H149406   8.164   4.405   8.414
16388WAT     H249407   8.306   4.336   8.372
16389WAT      O49408   2.861   2.577   8.794
16389WAT     H149409   2.836   2.662   8.747
16389WAT     H249410   2.930   2.596   8.863
16390WAT      O49411   1.280   3.821   4.929
16390WAT     H149412   1.345   3.788   4.997
16390WAT     H249413   1.249   3.913   4.954
16391WAT      O49414   4.658   6.068   8.641
16391WAT     H149415   4.639   6.008   8.719
16391WAT     H249416   4.572   6.107   8.608
16392WAT      O49417   9.198   9.680   4.458
16392WAT     H149418   9.215   9.737   4.538
16392WAT     H249419   9.107   9.700   4.422
16393WAT      O49420   8.516   0.386   3.493
16393WAT     H149421   8.505   0.380   3.394
16393WAT     H249422   8.529   0.481   3.520
16394WAT      O49423   6.426   0.094   3.025
16394WAT     H149424   6.377   0.093   2.938
16394WAT     H249425   6.523   0.077   3.009
16395WAT      O49426   2.588   1.296   6.002
16395WAT     H149427   2.608   1.377   6.057
16395WAT     H249428   2.597   1.318   5.905
16396WAT      O49429   7.165   4.635   9.523
16396WAT     H149430   7.228   4.624   9.600
16396WAT     H249431   7.072   4.616   9.554
16397WAT      O49432   0.465   0.904   6.718
16397WAT     H149433   0.497   0.830   6.658
16397WAT     H249434   0.453   0.869   6.811
16398WAT      O49435   8.062   1.295   6.737
16398WAT     H149436   8.144   1.258   6.693
16398WAT     H249437   8.000   1.221   6.761
16399WAT      O49438   6.149   7.123   9.241
16399WAT     H149439   6.222   7.182   9.274
16399WAT     H249440   6.072   7.124   9.305
16400WAT      O49441   7.814   2.683   2.494
16400WAT     H149442   7.863   2.761   2.454
16400WAT     H249443   7.748   2.647   2.427
16401WAT      O49444   4.115   1.981   5.999
16401WAT     H149445   4.164   1.905   5.958
16401WAT     H249446   4.118   1.973   6.098
16402WAT      O49447   2.845   4.173   7.624
16402WAT     H149448   2.798   4.245   7.675
16402WAT     H249449   2.888   4.213   7.543
16403WAT      O49450   3.165   8.877   0.176
16403WAT     H149451   3.261   8.851   0.180
16403WAT     H249452   3.118   8.824   0.105
16404WAT      O49453   2.188   7.014   6.676
16404WAT     H149454   2.173   7.057   6.586
16404WAT     H249455   2.286   7.001   6.690
16405WAT      O49456   8.560   4.729   4.186
16405WAT     H149457   8.469   4.733   4.228
16405WAT     H249458   8.551   4.740   4.087
16406WAT      O49459   7.296   4.040   2.883
16406WAT     H149460   7.375   4.008   2.936
16406WAT     H249461   7.215   4.042   2.941
16407WAT      O49462   9.734   0.469   3.397
16407WAT     H149463   9.780   0.389   3.437
16407WAT     H249464   9.697   0.526   3.471
16408WAT      O49465   2.693   3.176   5.043
16408WAT     H149466   2.671   3.143   4.951
16408WAT     H249467   2.674   3.104   5.110
16409WAT      O49468   3.615   8.008   2.293
16409WAT     H149469   3.640   8.034   2.386
16409WAT     H249470   3.515   7.998   2.287
16410WAT      O49471   0.758   8.240   2.194
16410WAT     H149472   0.661   8.219   2.185
16410WAT     H249473   0.787   8.295   2.115
16411WAT      O49474   7.881   0.523   4.768
16411WAT     H149475   7.827   0.519   4.853
16411WAT     H249476   7.857   0.606   4.718
16412WAT      O49477   8.713   4.869   4.580
16412WAT     H149478   8.745   4.842   4.489
16412WAT     H249479   8.660   4.795   4.620
16413WAT      O49480   5.073   4.793   1.877
16413WAT     H149481   5.020   4.789   1.792
16413WAT     H249482   5.112   4.704   1.897
16414WAT      O49483   7.624   0.279   1.016
16414WAT     H149484   7.616   0.375   1.042
16414WAT     H249485   7.587   0.266   0.924
16415WAT      O49486   4.219   0.418   7.432
16415WAT     H149487   4.239   0.516   7.441
16415WAT     H249488   4.173   0.386   7.515
16416WAT      O49489   6.673   4.461   7.268
16416WAT     H149490   6.762   4.429   7.302
16416WAT     H249491   6.687   4.537   7.205
16417WAT      O49492   1.852   5.687   3.630
16417WAT     H149493   1.796   5.762   3.663
16417WAT     H249494   1.832   5.671   3.533
16418WAT      O49495   6.950   1.237   6.423
16418WAT     H149496   6.852   1.246   6.439
16418WAT     H249497   6.977   1.141   6.433
16419WAT      O49498   5.793   3.076   6.070
16419WAT     H149499   5.875   3.029   6.101
16419WAT     H249500   5.815   3.172   6.051
16420WAT      O49501   1.982   0.655   5.718
16420WAT     H149502   1.931   0.569   5.724
16420WAT     H249503   2.070   0.646   5.765
16421WAT      O49504   2.233   4.873   9.127
16421WAT     H149505   2.164   4.806   9.153
16421WAT     H249506   2.263   4.856   9.033
16422WAT      O49507   4.910   8.820   3.369
16422WAT     H149508   4.948   8.912   3.378
16422WAT     H249509   4.824   8.824   3.319
16423WAT      O49510   8.273   6.696   7.937
16423WAT     H149511   8.211   6.643   7.879
16423WAT     H249512   8.367   6.665   7.923
16424WAT      O49513   3.215   2.759   3.061
16424WAT     H149514   3.249   2.747   3.155
16424WAT     H249515   3.257   2.691   3.001
16425WAT      O49516   8.606   9.577   8.521
16425WAT     H149517   8.586   9.598   8.425
16425WAT     H249518   8.666   9.498   8.526
16426WAT      O49519   2.092   0.562   1.560
16426WAT     H149520   2.160   0.528   1.496
16426WAT     H249521   2.137   0.607   1.637
16427WAT      O49522   5.707   3.646   6.905
16427WAT     H149523   5.619   3.670   6.863
16427WAT     H249524   5.769   3.611   6.835
16428WAT      O49525   4.589   1.406   6.244
16428WAT     H149526   4.686   1.382   6.238
16428WAT     H249527   4.562   1.456   6.162
16429WAT      O49528   1.037   7.855   0.853
16429WAT     H149529   1.130   7.829   0.830
16429WAT     H249530   1.023   7.952   0.836
16430WAT      O49531   4.501   6.703   6.176
16430WAT     H149532   4.408   6.715   6.212
16430WAT     H249533   4.549   6.635   6.230
16431WAT      O49534   3.853   8.787   2.711
16431WAT     H149535   3.820   8.725   2.782
16431WAT     H249536   3.777   8.812   2.651
16432WAT      O49537   6.875   8.826   5.636
16432WAT     H149538   6.842   8.819   5.730
16432WAT     H249539   6.973   8.804   5.632
16433WAT      O49540   6.922   7.435   5.872
16433WAT     H149541   6.886   7.351   5.911
16433WAT     H249542   6.918   7.508   5.940
16434WAT      O49543   6.550   3.732   8.669
16434WAT     H149544   6.491   3.686   8.603
16434WAT     H249545   6.520   3.710   8.762
16435WAT      O49546   1.578   0.170   2.162
16435WAT     H149547   1.606   0.098   2.225
16435WAT     H249548   1.528   0.130   2.085
16436WAT      O49549   3.962   5.280   8.758
16436WAT     H149550   3.989   5.336   8.837
16436WAT     H249551   3.935   5.189   8.790
16437WAT      O49552   5.910   0.664   5.026
16437WAT     H149553   5.826   0.611   5.013
16437WAT     H249554   5.890   0.745   5.081
16438WAT      O49555   4.846   0.158   1.773
16438WAT     H149556   4.906   0.111   1.838
16438WAT     H249557   4.796   0.230   1.820
16439WAT      O49558   1.081   0.927   9.491
16439WAT     H149559   0.996   0.969   9.524
16439WAT     H249560   1.072   0.907   9.394
16440WAT      O49561   2.586   0.943   3.785
16440WAT     H149562   2.572   1.042   3.782
16440WAT     H249563   2.673   0.921   3.740
16441WAT      O49564   5.034   6.640   8.636
16441WAT     H149565   5.127   6.663   8.664
16441WAT     H249566   5.005   6.555   8.680
16442WAT      O49567   3.899   6.967   3.956
16442WAT     H149568   3.857   7.024   4.026
16442WAT     H249569   3.979   7.013   3.918
16443WAT      O49570   8.780   6.244   0.284
16443WAT     H149571   8.830   6.270   0.367
16443WAT     H249572   8.754   6.327   0.234
16444WAT      O49573   0.397   3.233   2.860
16444WAT     H149574   0.487   3.259   2.826
16444WAT     H249575   0.345   3.190   2.786
16445WAT      O49576   8.908   2.589   7.176
16445WAT     H149577   8.870   2.538   7.098
16445WAT     H249578   8.842   2.587   7.252
16446WAT      O49579   1.561   4.872   5.088
16446WAT     H149580   1.626   4.841   5.157
16446WAT     H249581   1.473   4.890   5.131
16447WAT      O49582   3.215   1.244   6.095
16447WAT     H149583   3.191   1.189   6.015
16447WAT     H249584   3.132   1.263   6.148
16448WAT      O49585   7.957   2.488   3.277
16448WAT     H149586   7.890   2.426   3.318
16448WAT     H249587   8.048   2.469   3.314
16449WAT      O49588   2.643   4.519   9.611
16449WAT     H149589   2.711   4.450   9.589
16449WAT     H249590   2.572   4.520   9.541
16450WAT      O49591   6.753   9.501   1.740
16450WAT     H149592   6.670   9.444   1.738
16450WAT     H249593   6.826   9.456   1.689
16451WAT      O49594   8.989   0.051   9.065
16451WAT     H149595   8.914   0.077   9.125
16451WAT     H249596   8.986   0.106   8.982
16452WAT      O49597   3.247   7.053   0.979
16452WAT     H149598   3.171   7.013   0.928
16452WAT     H249599   3.213   7.119   1.044
16453WAT      O49600   8.369   8.529   8.020
16453WAT     H149601   8.372   8.429   8.009
16453WAT     H249602   8.276   8.556   8.046
16454WAT      O49603   4.584   6.606   2.490
16454WAT     H149604   4.662   6.588   2.550
16454WAT     H249605   4.502   6.565   2.531
16455WAT      O49606   6.475   3.069   9.397
16455WAT     H149607   6.398   3.041   9.339
16455WAT     H249608   6.486   3.168   9.391
16456WAT      O49609   9.746   4.412   6.694
16456WAT     H149610   9.669   4.422   6.631
16456WAT     H249611   9.748   4.319   6.730
16457WAT      O49612   9.591   3.620   6.330
16457WAT     H149613   9.688   3.620   6.355
16457WAT     H249614   9.563   3.527   6.305
16458WAT      O49615   7.972   8.978   2.753
16458WAT     H149616   8.024   8.970   2.838
16458WAT     H249617   7.882   9.017   2.773
16459WAT      O49618   5.692   8.586   6.937
16459WAT     H149619   5.646   8.619   7.019
16459WAT     H249620   5.727   8.493   6.954
16460WAT      O49621   5.536   0.771   5.257
16460WAT     H149622   5.523   0.733   5.165
16460WAT     H249623   5.555   0.697   5.321
16461WAT      O49624   7.069   3.698   5.411
16461WAT     H149625   7.103   3.604   5.402
16461WAT     H249626   6.971   3.697   5.430
16462WAT      O49627   9.549   8.722   8.142
16462WAT     H149628   9.598   8.635   8.141
16462WAT     H249629   9.493   8.728   8.225
16463WAT      O49630   3.158   0.758   4.015
16463WAT     H149631   3.159   0.665   3.980
16463WAT     H249632   3.243   0.776   4.064
16464WAT      O49633   2.444   4.891   3.945
16464WAT     H149634   2.519   4.861   3.886
16464WAT     H249635   2.382   4.950   3.894
16465WAT      O49636   2.723   9.498   0.025
16465WAT     H149637   2.740   9.547  -0.060
16465WAT     H249638   2.801   9.439   0.046
16466WAT      O49639   4.637   8.354   2.079
16466WAT     H149640   4.623   8.281   2.145
16466WAT     H249641   4.692   8.427   2.120
16467WAT      O49642   5.011   5.479   3.902
16467WAT     H149643   5.091   5.422   3.888
16467WAT     H249644   4.985   5.477   3.999
16468WAT      O49645   3.620   5.376   0.688
16468WAT     H149646   3.592   5.469   0.710
16468WAT     H249647   3.647   5.372   0.592
16469WAT      O49648   7.657   4.188   9.889
16469WAT     H149649   7.692   4.267   9.839
16469WAT     H249650   7.587   4.142   9.834
16470WAT      O49651   8.915   2.704   4.073
16470WAT     H149652   8.943   2.614   4.039
16470WAT     H249653   8.936   2.711   4.171
16471WAT      O49654   0.211   4.278   7.030
16471WAT     H149655   0.218   4.356   6.968
16471WAT     H249656   0.185   4.310   7.121
16472WAT      O49657   1.349   2.257   6.854
16472WAT     H149658   1.299   2.325   6.907
16472WAT     H249659   1.324   2.165   6.886
16473WAT      O49660   8.583   1.601   7.539
16473WAT     H149661   8.637   1.539   7.483
16473WAT     H249662   8.598   1.580   7.636
16474WAT      O49663   0.676   1.785   1.407
16474WAT     H149664   0.643   1.797   1.314
16474WAT     H249665   0.769   1.748   1.405
16475WAT      O49666   4.949   7.435   7.228
16475WAT     H149667   4.877   7.501   7.245
16475WAT     H249668   4.911   7.342   7.229
16476WAT      O49669   2.374   9.414   3.906
16476WAT     H149670   2.375   9.328   3.955
16476WAT     H249671   2.333   9.400   3.815
16477WAT      O49672   9.519   4.449   1.270
16477WAT     H149673   9.510   4.486   1.362
16477WAT     H249674   9.594   4.383   1.267
16478WAT      O49675   8.529   1.289   9.805
16478WAT     H149676   8.477   1.261   9.886
16478WAT     H249677   8.466   1.301   9.728
16479WAT      O49678   1.535   4.529   5.738
16479WAT     H149679   1.441   4.554   5.760
16479WAT     H249680   1.564   4.452   5.795
16480WAT      O49681   1.855   7.627   4.087
16480WAT     H149682   1.825   7.634   3.992
16480WAT     H249683   1.939   7.572   4.092
16481WAT      O49684   8.454   0.563   7.546
16481WAT     H149685   8.455   0.484   7.608
16481WAT     H249686   8.538   0.562   7.491
16482WAT      O49687   5.037   6.412   0.070
16482WAT     H149688   5.103   6.461   0.013
16482WAT     H249689   5.014   6.325   0.027
16483WAT      O49690   0.295   1.659   8.265
16483WAT     H149691   0.376   1.600   8.255
16483WAT     H249692   0.309   1.723   8.340
16484WAT      O49693   3.127   6.463   0.962
16484WAT     H149694   3.072   6.461   1.046
16484WAT     H249695   3.211   6.516   0.979
16485WAT      O49696   6.417   9.088   5.558
16485WAT     H149697   6.487   9.016   5.553
16485WAT     H249698   6.446   9.165   5.500
16486WAT      O49699   9.662   5.449   3.586
16486WAT     H149700   9.583   5.488   3.538
16486WAT     H249701   9.650   5.460   3.685
16487WAT      O49702   0.537   7.169   7.163
16487WAT     H149703   0.541   7.091   7.225
16487WAT     H249704   0.615   7.165   7.100
16488WAT      O49705   4.666   2.443   2.665
16488WAT     H149706   4.694   2.522   2.720
16488WAT     H249707   4.567   2.442   2.656
16489WAT      O49708   5.264   7.013   6.637
16489WAT     H149709   5.199   7.076   6.680
16489WAT     H249710   5.271   6.930   6.692
16490WAT      O49711   7.474   5.605   2.352
16490WAT     H149712   7.380   5.588   2.322
16490WAT     H249713   7.505   5.693   2.317
16491WAT      O49714   2.533   7.568   1.666
16491WAT     H149715   2.463   7.580   1.737
16491WAT     H249716   2.613   7.522   1.706
16492WAT      O49717   2.632   5.165   4.677
16492WAT     H149718   2.696   5.219   4.622
16492WAT     H249719   2.652   5.178   4.774
16493WAT      O49720   4.980   1.754   8.296
16493WAT     H149721   4.999   1.725   8.202
16493WAT     H249722   4.919   1.687   8.339
16494WAT      O49723   8.992   1.177   5.364
16494WAT     H149724   9.033   1.219   5.444
16494WAT     H249725   9.046   1.097   5.336
16495WAT      O49726   5.624   0.058   6.690
16495WAT     H149727   5.577   0.068   6.602
16495WAT     H249728   5.565   0.007   6.753
16496WAT      O49729   9.154   5.814   1.630
16496WAT     H149730   9.190   5.788   1.720
16496WAT     H249731   9.159   5.913   1.619
16497WAT      O49732   8.192   4.705   5.423
16497WAT     H149733   8.174   4.773   5.494
16497WAT     H249734   8.289   4.705   5.399
16498WAT      O49735   4.487   0.507   2.276
16498WAT     H149736   4.390   0.523   2.255
16498WAT     H249737   4.500   0.412   2.305
16499WAT      O49738   5.255   9.445   2.032
16499WAT     H149739   5.228   9.392   2.112
16499WAT     H249740   5.289   9.384   1.960
16500WAT      O49741   4.364   1.724   7.294
16500WAT     H149742   4.386   1.629   7.319
16500WAT     H249743   4.266   1.740   7.310
16501WAT      O49744   1.370   1.607   5.969
16501WAT     H149745   1.452   1.549   5.963
16501WAT     H249746   1.350   1.626   6.065
16502WAT      O49747   9.494   6.052   3.308
16502WAT     H149748   9.419   6.088   3.362
16502WAT     H249749   9.579   6.097   3.333
16503WAT      O49750   5.312   5.181   6.074
16503WAT     H149751   5.403   5.146   6.099
16503WAT     H249752   5.313   5.207   5.977
16504WAT      O49753   2.551   1.845   1.301
16504WAT     H149754   2.473   1.907   1.297
16504WAT     H249755   2.610   1.870   1.378
16505WAT      O49756   1.895   1.799   3.848
16505WAT     H149757   1.976   1.835   3.894
16505WAT     H249758   1.922   1.726   3.785
16506WAT      O49759   9.009   3.138   0.650
16506WAT     H149760   9.071   3.206   0.689
16506WAT     H249761   8.952   3.101   0.723
16507WAT      O49762   2.123   9.695   8.083
16507WAT     H149763   2.037   9.644   8.089
16507WAT     H249764   2.179   9.677   8.164
16508WAT      O49765   4.408   8.086   2.821
16508WAT     H149766   4.407   8.015   2.891
16508WAT     H249767   4.315   8.099   2.787
16509WAT      O49768   8.616   5.842   3.829
16509WAT     H149769   8.630   5.869   3.734
16509WAT     H249770   8.705   5.831   3.874
16510WAT      O49771   5.770   8.396   1.718
16510WAT     H149772   5.769   8.489   1.681
16510WAT     H249773   5.676   8.361   1.721
16511WAT      O49774   8.749   0.660   3.522
16511WAT     H149775   8.755   0.569   3.561
16511WAT     H249776   8.771   0.728   3.593
16512WAT      O49777   6.535   0.317   1.405
16512WAT     H149778   6.488   0.306   1.493
16512WAT     H249779   6.631   0.339   1.421
16513WAT      O49780   6.560   1.349   5.821
16513WAT     H149781   6.623   1.415   5.781
16513WAT     H249782   6.530   1.285   5.749
16514WAT      O49783   2.530   7.365   0.048
16514WAT     H149784   2.447   7.355  -0.007
16514WAT     H249785   2.503   7.387   0.142
16515WAT      O49786   6.553   8.564   5.090
16515WAT     H149787   6.545   8.580   5.189
16515WAT     H249788   6.644   8.592   5.060
16516WAT      O49789   6.876   1.473   0.470
16516WAT     H149790   6.890   1.540   0.542
16516WAT     H249791   6.783   1.436   0.475
16517WAT      O49792   9.774   0.810   5.657
16517WAT     H149793   9.753   0.781   5.751
16517WAT     H249794   9.821   0.736   5.609
16518WAT      O49795   8.991   3.376   6.400
16518WAT     H149796   8.961   3.350   6.492
16518WAT     H249797   8.960   3.308   6.334
16519WAT      O49798   2.220   8.775   8.595
16519WAT     H149799   2.154   8.700   8.590
16519WAT     H249800   2.293   8.761   8.528
16520WAT      O49801   0.502   4.020   6.276
16520WAT     H149802   0.471   3.936   6.232
16520WAT     H249803   0.429   4.056   6.334
16521WAT      O49804   8.977   5.532   6.470
16521WAT     H149805   8.880   5.517   6.451
16521WAT     H249806   8.988   5.573   6.561
16522WAT      O49807   3.533   9.060   3.549
16522WAT     H149808   3.440   9.079   3.519
16522WAT     H249809   3.531   8.992   3.622
16523WAT      O49810   3.015   2.096   5.719
16523WAT     H149811   3.092   2.033   5.712
16523WAT     H249812   2.947   2.073   5.649
16524WAT      O49813   3.747   9.547   7.358
16524WAT     H149814   3.795   9.630   7.328
16524WAT     H249815   3.804   9.496   7.422
16525WAT      O49816   2.215   8.637   9.661
16525WAT     H149817   2.279   8.682   9.723
16525WAT     H249818   2.246   8.543   9.643
16526WAT      O49819   5.360   5.129   4.172
16526WAT     H149820   5.354   5.135   4.072
16526WAT     H249821   5.374   5.034   4.199
16527WAT      O49822   6.318   7.374   7.296
16527WAT     H149823   6.311   7.388   7.197
16527WAT     H249824   6.285   7.282   7.319
16528WAT      O49825   5.111   1.572   4.334
16528WAT     H149826   5.209   1.587   4.324
16528WAT     H249827   5.094   1.517   4.416
16529WAT      O49828   2.530   0.163   4.654
16529WAT     H149829   2.518   0.067   4.681
16529WAT     H249830   2.622   0.174   4.615
16530WAT      O49831   6.577   0.946   4.136
16530WAT     H149832   6.552   1.014   4.066
16530WAT     H249833   6.671   0.915   4.120
16531WAT      O49834   1.377   8.599   7.612
16531WAT     H149835   1.374   8.647   7.524
16531WAT     H249836   1.448   8.640   7.670
16532WAT      O49837   2.895   8.827   4.162
16532WAT     H149838   2.965   8.886   4.122
16532WAT     H249839   2.930   8.787   4.247
16533WAT      O49840   6.809   0.592   4.985
16533WAT     H149841   6.730   0.639   4.945
16533WAT     H249842   6.805   0.600   5.085
16534WAT      O49843   0.896   1.331   0.036
16534WAT     H149844   0.825   1.359   0.101
16534WAT     H249845   0.865   1.252  -0.016
16535WAT      O49846   2.141   5.277   4.358
16535WAT     H149847   2.145   5.359   4.415
16535WAT     H249848   2.205   5.209   4.393
16536WAT      O49849   7.037   1.914   7.843
16536WAT     H149850   7.095   1.850   7.894
16536WAT     H249851   7.059   1.908   7.746
16537WAT      O49852   7.849   4.147   7.662
16537WAT     H149853   7.755   4.170   7.687
16537WAT     H249854   7.878   4.067   7.715
16538WAT      O49855   1.856   8.033   2.447
16538WAT     H149856   1.888   7.953   2.396
16538WAT     H249857   1.922   8.056   2.518
16539WAT      O49858   5.651   7.498   3.066
16539WAT     H149859   5.663   7.400   3.054
16539WAT     H249860   5.699   7.527   3.149
16540WAT      O49861   8.523   5.297   9.574
16540WAT     H149862   8.486   5.312   9.482
16540WAT     H249863   8.531   5.385   9.621
16541WAT      O49864   8.279   2.826   9.182
16541WAT     H149865   8.272   2.777   9.095
16541WAT     H249866   8.293   2.760   9.256
16542WAT      O49867   8.130   1.852   5.251
16542WAT     H149868   8.137   1.881   5.155
16542WAT     H249869   8.035   1.862   5.282
16543WAT      O49870   9.560   5.239   8.150
16543WAT     H149871   9.499   5.217   8.074
16543WAT     H249872   9.637   5.175   8.151
16544WAT      O49873   1.868   6.845   8.082
16544WAT     H149874   1.819   6.916   8.033
16544WAT     H249875   1.828   6.756   8.060
16545WAT      O49876   4.835   1.225   4.183
16545WAT     H149877   4.772   1.272   4.246
16545WAT     H249878   4.783   1.191   4.104
16546WAT      O49879   4.663   0.908   6.610
16546WAT     H149880   4.587   0.851   6.642
16546WAT     H249881   4.737   0.849   6.577
16547WAT      O49882   1.890   5.859   4.892
16547WAT     H149883   1.799   5.827   4.864
16547WAT     H249884   1.922   5.929   4.828
16548WAT      O49885   0.942   2.627   3.031
16548WAT     H149886   0.949   2.692   2.956
16548WAT     H249887   0.915   2.538   2.996
16549WAT      O49888   6.033   9.740   3.273
16549WAT     H149889   6.110   9.801   3.255
16549WAT     H249890   6.066   9.653   3.310
16550WAT      O49891   9.213   6.333   8.548
16550WAT     H149892   9.166   6.328   8.636
16550WAT     H249893   9.149   6.311   8.474
16551WAT      O49894   5.089   5.789   3.045
16551WAT     H149895   5.054   5.879   3.018
16551WAT     H249896   5.137   5.747   2.968
16552WAT      O49897   4.590   6.820   1.164
16552WAT     H149898   4.526   6.880   1.116
16552WAT     H249899   4.610   6.859   1.254
16553WAT      O49900   8.118   6.791   2.518
16553WAT     H149901   8.209   6.831   2.507
16553WAT     H249902   8.067   6.841   2.588
16554WAT      O49903   5.168   7.438   1.514
16554WAT     H149904   5.195   7.484   1.599
16554WAT     H249905   5.232   7.462   1.441
16555WAT      O49906   0.815   8.256   9.153
16555WAT     H149907   0.857   8.193   9.218
16555WAT     H249908   0.860   8.246   9.064
16556WAT      O49909   0.622   6.546   0.847
16556WAT     H149910   0.668   6.542   0.758
16556WAT     H249911   0.678   6.501   0.916
16557WAT      O49912   1.097   1.560   3.477
16557WAT     H149913   1.091   1.504   3.560
16557WAT     H249914   1.190   1.555   3.441
16558WAT      O49915   6.558   6.804   9.191
16558WAT     H149916   6.554   6.895   9.233
16558WAT     H249917   6.471   6.784   9.146
16559WAT      O49918   9.814   5.590   0.065
16559WAT     H149919   9.721   5.566   0.038
16559WAT     H249920   9.879   5.561  -0.005
16560WAT      O49921   3.486   2.274   9.885
16560WAT     H149922   3.560   2.240   9.943
16560WAT     H249923   3.504   2.370   9.860
16561WAT      O49924   5.438   6.749   3.817
16561WAT     H149925   5.535   6.765   3.799
16561WAT     H249926   5.427   6.660   3.861
16562WAT      O49927   7.434   9.144   2.449
16562WAT     H149928   7.433   9.204   2.369
16562WAT     H249929   7.468   9.054   2.423
16563WAT      O49930   9.210   2.269   0.002
16563WAT     H149931   9.128   2.219   0.029
16563WAT     H249932   9.281   2.204  -0.026
16564WAT      O49933   3.444   3.485   2.270
16564WAT     H149934   3.526   3.524   2.312
16564WAT     H249935   3.403   3.418   2.332
16565WAT      O49936   9.696   0.996   4.932
16565WAT     H149937   9.716   1.008   4.834
16565WAT     H249938   9.607   0.951   4.942
16566WAT      O49939   2.436   7.346   6.894
16566WAT     H149940   2.377   7.343   6.813
16566WAT     H249941   2.390   7.397   6.967
16567WAT      O49942   0.870   8.726   0.932
16567WAT     H149943   0.772   8.725   0.954
16567WAT     H249944   0.885   8.782   0.851
16568WAT      O49945   2.494   2.879   4.965
16568WAT     H149946   2.534   2.916   5.049
16568WAT     H249947   2.530   2.929   4.886
16569WAT      O49948   8.711   6.482   0.161
16569WAT     H149949   8.728   6.571   0.203
16569WAT     H249950   8.771   6.471   0.081
16570WAT      O49951   8.536   4.533   9.191
16570WAT     H149952   8.487   4.610   9.152
16570WAT     H249953   8.507   4.448   9.146
16571WAT      O49954   9.078   9.011   6.458
16571WAT     H149955   9.002   9.075   6.443
16571WAT     H249956   9.160   9.047   6.414
16572WAT      O49957   0.214   7.422   2.669
16572WAT     H149958   0.203   7.335   2.717
16572WAT     H249959   0.312   7.443   2.661
16573WAT      O49960   3.813   0.973   6.783
16573WAT     H149961   3.838   1.062   6.820
16573WAT     H249962   3.842   0.901   6.847
16574WAT      O49963   6.724   7.168   9.028
16574WAT     H149964   6.731   7.141   8.931
16574WAT     H249965   6.801   7.226   9.052
16575WAT      O49966   2.550   4.197   4.963
16575WAT     H149967   2.535   4.271   5.029
16575WAT     H249968   2.616   4.227   4.894
16576WAT      O49969   3.619   9.530   6.393
16576WAT     H149970   3.674   9.516   6.311
16576WAT     H249971   3.529   9.489   6.381
16577WAT      O49972   9.806   6.743   1.649
16577WAT     H149973   9.725   6.712   1.699
16577WAT     H249974   9.873   6.669   1.645
16578WAT      O49975   8.124   5.299   6.891
16578WAT     H149976   8.156   5.243   6.813
16578WAT     H249977   8.194   5.366   6.914
16579WAT      O49978   0.142   7.222   6.597
16579WAT     H149979   0.138   7.127   6.567
16579WAT     H249980   0.136   7.282   6.517
16580WAT      O49981   4.272   3.829   1.045
16580WAT     H149982   4.347   3.786   0.995
16580WAT     H249983   4.298   3.921   1.073
16581WAT      O49984   6.877   6.730   1.992
16581WAT     H149985   6.915   6.658   1.935
16581WAT     H249986   6.780   6.712   2.010
16582WAT      O49987   5.635   1.320   7.999
16582WAT     H149988   5.630   1.220   8.003
16582WAT     H249989   5.727   1.349   7.975
16583WAT      O49990   6.121   1.059   8.349
16583WAT     H149991   6.116   0.988   8.279
16583WAT     H249992   6.201   1.043   8.407
16584WAT      O49993   1.798   8.805   6.898
16584WAT     H149994   1.725   8.840   6.840
16584WAT     H249995   1.857   8.745   6.845
16585WAT      O49996   0.158   2.964   1.370
16585WAT     H149997   0.082   2.985   1.431
16585WAT     H249998   0.163   3.034   1.298
16586WAT      O49999   7.691   6.023   1.283
16586WAT     H150000   7.614   6.072   1.240
16586WAT     H250001   7.666   5.927   1.294
16587WAT      O50002   4.683   0.873   5.186
16587WAT     H150003   4.615   0.936   5.149
16587WAT     H250004   4.723   0.820   5.111
16588WAT      O50005   4.122   7.731   4.540
16588WAT     H150006   4.209   7.710   4.585
16588WAT     H250007   4.052   7.748   4.610
16589WAT      O50008   8.388   7.195   0.407
16589WAT     H150009   8.409   7.162   0.315
16589WAT     H250010   8.299   7.161   0.435
16590WAT      O50011   3.936   2.074   6.863
16590WAT     H150012   3.938   2.144   6.934
16590WAT     H250013   3.961   2.115   6.775
16591WAT      O50014   3.786   9.708   4.127
16591WAT     H150015   3.832   9.734   4.212
16591WAT     H250016   3.833   9.750   4.049
16592WAT      O50017   0.172   7.347   1.823
16592WAT     H150018   0.236   7.420   1.847
16592WAT     H250019   0.172   7.332   1.724
16593WAT      O50020   8.213   1.214   4.831
16593WAT     H150021   8.175   1.219   4.739
16593WAT     H250022   8.268   1.296   4.849
16594WAT      O50023   8.220   3.794   5.883
16594WAT     H150024   8.211   3.850   5.801
16594WAT     H250025   8.204   3.850   5.965
16595WAT      O50026   7.844   8.154   1.953
16595WAT     H150027   7.906   8.117   2.022
16595WAT     H250028   7.881   8.239   1.917
16596WAT      O50029   9.509   7.066   2.558
16596WAT     H150030   9.424   7.018   2.538
16596WAT     H250031   9.501   7.162   2.530
16597WAT      O50032   0.788   8.668   1.229
16597WAT     H150033   0.723   8.607   1.186
16597WAT     H250034   0.868   8.679   1.169
16598WAT      O50035   8.323   9.514   8.251
16598WAT     H150036   8.245   9.555   8.203
16598WAT     H250037   8.401   9.576   8.246
16599WAT      O50038   3.285   3.420   3.784
16599WAT     H150039   3.312   3.334   3.741
16599WAT     H250040   3.242   3.479   3.716
16600WAT      O50041   8.911   3.569   1.596
16600WAT     H150042   8.896   3.663   1.566
16600WAT     H250043   8.899   3.563   1.695
16601WAT      O50044   8.224   8.144   4.955
16601WAT     H150045   8.262   8.058   4.988
16601WAT     H250046   8.164   8.125   4.877
16602WAT      O50047   4.154   3.479   6.805
16602WAT     H150048   4.066   3.521   6.781
16602WAT     H250049   4.211   3.547   6.851
16603WAT      O50050   8.602   5.412   2.123
16603WAT     H150051   8.617   5.433   2.220
16603WAT     H250052   8.688   5.423   2.073
16604WAT      O50053   8.198   4.976   7.905
16604WAT     H150054   8.108   4.974   7.863
16604WAT     H250055   8.208   4.897   7.966
16605WAT      O50056   5.448   7.383   0.024
16605WAT     H150057   5.468   7.370  -0.073
16605WAT     H250058   5.382   7.314   0.054
16606WAT      O50059   6.269   1.341   6.461
16606WAT     H150060   6.191   1.377   6.511
16606WAT     H250061   6.249   1.340   6.363
16607WAT      O50062   9.482   7.133   4.812
16607WAT     H150063   9.495   7.217   4.865
16607WAT     H250064   9.532   7.058   4.856
16608WAT      O50065   8.437   8.532   9.633
16608WAT     H150066   8.455   8.631   9.634
16608WAT     H250067   8.484   8.491   9.556
16609WAT      O50068   9.538   1.338   0.402
16609WAT     H150069   9.533   1.375   0.495
16609WAT     H250070   9.474   1.262   0.393
16610WAT      O50071   7.685   6.629   4.892
16610WAT     H150072   7.585   6.625   4.886
16610WAT     H250073   7.722   6.670   4.808
16611WAT      O50074   3.880   4.341   9.682
16611WAT     H150075   3.882   4.264   9.618
16611WAT     H250076   3.937   4.320   9.762
16612WAT      O50077   0.446   7.813   8.150
16612WAT     H150078   0.442   7.714   8.132
16612WAT     H250079   0.538   7.837   8.182
16613WAT      O50080   3.840   9.365   9.704
16613WAT     H150081   3.866   9.420   9.625
16613WAT     H250082   3.909   9.375   9.776
16614WAT      O50083   2.781   3.907   5.509
16614WAT     H150084   2.806   3.990   5.559
16614WAT     H250085   2.701   3.866   5.551
16615WAT      O50086   2.074   3.691   8.580
16615WAT     H150087   2.039   3.706   8.487
16615WAT     H250088   2.070   3.593   8.601
16616WAT      O50089   4.760   3.899   2.800
16616WAT     H150090   4.784   3.886   2.704
16616WAT     H250091   4.761   3.997   2.821
16617WAT      O50092   1.810   1.072   2.966
16617WAT     H150093   1.909   1.075   2.968
16617WAT     H250094   1.775   1.052   3.058
16618WAT      O50095   2.852   1.513   5.142
16618WAT     H150096   2.821   1.419   5.129
16618WAT     H250097   2.924   1.515   5.211
16619WAT      O50098   4.844   4.729   6.310
16619WAT     H150099   4.812   4.743   6.216
16619WAT     H250100   4.800   4.796   6.370
16620WAT      O50101   5.679   6.841   4.684
16620WAT     H150102   5.753   6.871   4.624
16620WAT     H250103   5.595   6.892   4.662
16621WAT      O50104   4.663   3.059   9.893
16621WAT     H150105   4.708   3.045   9.805
16621WAT     H250106   4.593   3.130   9.884
16622WAT      O50107   6.914   2.112   1.005
16622WAT     H150108   6.911   2.014   1.029
16622WAT     H250109   7.002   2.150   1.034
16623WAT      O50110   7.976   1.948   0.020
16623WAT     H150111   8.004   1.866   0.070
16623WAT     H250112   8.056   2.003  -0.003
16624WAT      O50113   4.213   7.972   6.597
16624WAT     H150114   4.208   8.070   6.581
16624WAT     H250115   4.206   7.954   6.695
16625WAT      O50116   2.463   7.960   8.166
16625WAT     H150117   2.391   7.892   8.151
16625WAT     H250118   2.542   7.917   8.209
16626WAT      O50119   9.038   8.272   1.098
16626WAT     H150120   9.130   8.268   1.137
16626WAT     H250121   9.007   8.367   1.098
16627WAT      O50122   6.281   8.882   9.208
16627WAT     H150123   6.340   8.960   9.226
16627WAT     H250124   6.269   8.871   9.109
16628WAT      O50125   5.101   1.410   1.069
16628WAT     H150126   5.198   1.397   1.090
16628WAT     H250127   5.054   1.449   1.149
16629WAT      O50128   5.930   9.608   0.410
16629WAT     H150129   5.849   9.552   0.396
16629WAT     H250130   5.975   9.582   0.496
16630WAT      O50131   0.191   4.434   0.387
16630WAT     H150132   0.272   4.376   0.398
16630WAT     H250133   0.122   4.386   0.333
16631WAT      O50134   3.224   1.121   8.974
16631WAT     H150135   3.283   1.202   8.965
16631WAT     H250136   3.209   1.081   8.883
16632WAT      O50137   7.139   2.659   8.065
16632WAT     H150138   7.051   2.694   8.034
16632WAT     H250139   7.188   2.730   8.115
16633WAT      O50140   5.531   2.755   9.583
16633WAT     H150141   5.597   2.682   9.601
16633WAT     H250142   5.498   2.793   9.669
16634WAT      O50143   6.263   8.892   2.782
16634WAT     H150144   6.201   8.959   2.740
16634WAT     H250145   6.332   8.941   2.835
16635WAT      O50146   5.201   2.607   1.543
16635WAT     H150147   5.160   2.588   1.454
16635WAT     H250148   5.140   2.576   1.616
16636WAT      O50149   2.706   4.997   7.470
16636WAT     H150150   2.640   5.029   7.402
16636WAT     H250151   2.706   4.897   7.472
16637WAT      O50152   5.631   9.178   6.093
16637WAT     H150153   5.620   9.239   6.171
16637WAT     H250154   5.627   9.230   6.008
16638WAT      O50155   4.744   6.307   1.752
16638WAT     H150156   4.781   6.234   1.810
16638WAT     H250157   4.748   6.280   1.656
16639WAT      O50158   9.294   8.681   5.399
16639WAT     H150159   9.316   8.654   5.493
16639WAT     H250160   9.379   8.701   5.350
16640WAT      O50161   9.847   8.412   1.832
16640WAT     H150162   9.867   8.432   1.736
16640WAT     H250163   9.800   8.489   1.874
16641WAT      O50164   5.730   2.080   9.186
16641WAT     H150165   5.780   2.153   9.232
16641WAT     H250166   5.687   2.021   9.255
16642WAT      O50167   6.714   2.435   3.359
16642WAT     H150168   6.642   2.367   3.374
16642WAT     H250169   6.672   2.524   3.342
16643WAT      O50170   5.862   1.831   4.282
16643WAT     H150171   5.856   1.884   4.367
16643WAT     H250172   5.808   1.747   4.292
16644WAT      O50173   3.636   4.570   4.294
16644WAT     H150174   3.631   4.492   4.356
16644WAT     H250175   3.634   4.655   4.346
16645WAT      O50176   0.009   4.640   1.364
16645WAT     H150177  -0.048   4.718   1.340
16645WAT     H250178   0.066   4.614   1.286
16646WAT      O50179   0.398   4.240   0.394
16646WAT     H150180   0.353   4.158   0.429
16646WAT     H250181   0.491   4.217   0.364
16647WAT      O50182   3.931   4.063   5.648
16647WAT     H150183   4.003   4.055   5.579
16647WAT     H250184   3.868   4.137   5.623
16648WAT      O50185   2.352   5.642   2.743
16648WAT     H150186   2.399   5.668   2.828
16648WAT     H250187   2.261   5.606   2.765
16649WAT      O50188   0.816   3.188   1.905
16649WAT     H150189   0.890   3.127   1.876
16649WAT     H250190   0.850   3.282   1.906
16650WAT      O50191   7.711   4.159   5.256
16650WAT     H150192   7.659   4.115   5.329
16650WAT     H250193   7.693   4.112   5.169
16651WAT      O50194   5.982   0.359   6.540
16651WAT     H150195   6.018   0.437   6.592
16651WAT     H250196   6.058   0.302   6.510
16652WAT      O50197   1.389   9.688   3.960
16652WAT     H150198   1.461   9.621   3.942
16652WAT     H250199   1.315   9.677   3.893
16653WAT      O50200   3.491   8.585   9.496
16653WAT     H150201   3.560   8.545   9.436
16653WAT     H250202   3.501   8.684   9.498
16654WAT      O50203   1.016   2.642   5.346
16654WAT     H150204   1.058   2.563   5.301
16654WAT     H250205   0.951   2.610   5.415
16655WAT      O50206   4.761   7.378   8.777
16655WAT     H150207   4.784   7.284   8.801
16655WAT     H250208   4.738   7.429   8.859
16656WAT      O50209   3.423   1.708   4.188
16656WAT     H150210   3.361   1.742   4.258
16656WAT     H250211   3.381   1.630   4.140
16657WAT      O50212   6.340   8.081   3.740
16657WAT     H150213   6.294   8.168   3.724
16657WAT     H250214   6.409   8.066   3.669
16658WAT      O50215   4.601   1.984   2.365
16658WAT     H150216   4.612   1.885   2.361
16658WAT     H250217   4.539   2.008   2.440
16659WAT      O50218   8.828   5.004   7.449
16659WAT     H150219   8.772   4.958   7.380
16659WAT     H250220   8.908   4.949   7.470
16660WAT      O50221   0.104   1.023   1.033
16660WAT     H150222   0.142   0.980   0.952
16660WAT     H250223   0.101   1.122   1.021
16661WAT      O50224   1.602   3.800   8.843
16661WAT     H150225   1.602   3.723   8.906
16661WAT     H250226   1.695   3.834   8.832
16662WAT      O50227   8.461   9.015   2.912
16662WAT     H150228   8.461   9.023   3.012
16662WAT     H250229   8.552   9.038   2.878
16663WAT      O50230   0.917   4.135   8.951
16663WAT     H150231   0.830   4.087   8.938
16663WAT     H250232   0.990   4.085   8.906
16664WAT      O50233   0.990   4.264   0.760
16664WAT     H150234   0.896   4.272   0.794
16664WAT     H250235   1.054   4.265   0.836
16665WAT      O50236   5.788   3.144   8.733
16665WAT     H150237   5.789   3.201   8.651
16665WAT     H250238   5.823   3.053   8.711
16666WAT      O50239   0.985   4.620   6.137
16666WAT     H150240   1.075   4.605   6.177
16666WAT     H250241   0.989   4.700   6.076
16667WAT      O50242   7.097   2.859   3.497
16667WAT     H150243   7.062   2.950   3.520
16667WAT     H250244   7.028   2.809   3.445
16668WAT      O50245   5.239   7.284   0.400
16668WAT     H150246   5.306   7.358   0.412
16668WAT     H250247   5.287   7.196   0.403
16669WAT      O50248   0.595   1.275   0.695
16669WAT     H150249   0.694   1.266   0.707
16669WAT     H250250   0.554   1.185   0.679
16670WAT      O50251   3.442   3.018   4.796
16670WAT     H150252   3.451   2.924   4.763
16670WAT     H250253   3.530   3.050   4.830
16671WAT      O50254   0.695   2.406   5.427
16671WAT     H150255   0.619   2.457   5.468
16671WAT     H250256   0.780   2.427   5.475
16672WAT      O50257   5.563   3.877   9.388
16672WAT     H150258   5.465   3.880   9.402
16672WAT     H250259   5.596   3.967   9.359
16673WAT      O50260   6.370   9.761   0.155
16673WAT     H150261   6.435   9.772   0.231
16673WAT     H250262   6.402   9.688   0.094
16674WAT      O50263   3.947   9.412   8.366
16674WAT     H150264   3.903   9.497   8.397
16674WAT     H250265   3.988   9.427   8.276
16675WAT      O50266   3.026   0.388   7.724
16675WAT     H150267   2.968   0.437   7.659
16675WAT     H250268   3.121   0.413   7.709
16676WAT      O50269   4.871   7.271   5.177
16676WAT     H150270   4.799   7.338   5.161
16676WAT     H250271   4.831   7.189   5.219
16677WAT      O50272   4.252   2.490   9.846
16677WAT     H150273   4.185   2.455   9.912
16677WAT     H250274   4.205   2.543   9.776
16678WAT      O50275   3.493   2.132   6.938
16678WAT     H150276   3.446   2.066   6.996
16678WAT     H250277   3.546   2.084   6.868
16679WAT      O50278   4.921   5.797   2.145
16679WAT     H150279   4.908   5.740   2.226
16679WAT     H250280   4.950   5.889   2.174
16680WAT      O50281   7.371   2.429   6.944
16680WAT     H150282   7.345   2.346   6.992
16680WAT     H250283   7.431   2.406   6.867
16681WAT      O50284   9.297   4.686   0.418
16681WAT     H150285   9.246   4.720   0.498
16681WAT     H250286   9.306   4.587   0.425
16682WAT      O50287   8.449   5.136   2.191
16682WAT     H150288   8.405   5.136   2.280
16682WAT     H250289   8.491   5.226   2.174
16683WAT      O50290   3.650   7.108   1.416
16683WAT     H150291   3.731   7.063   1.379
16683WAT     H250292   3.676   7.165   1.494
16684WAT      O50293   7.497   7.606   7.816
16684WAT     H150294   7.489   7.567   7.908
16684WAT     H250295   7.420   7.667   7.798
16685WAT      O50296   1.632   7.562   2.206
16685WAT     H150297   1.564   7.545   2.277
16685WAT     H250298   1.650   7.661   2.200
16686WAT      O50299   7.889   1.627   5.994
16686WAT     H150300   7.826   1.705   6.003
16686WAT     H250301   7.966   1.654   5.937
16687WAT      O50302   9.761   7.310   9.568
16687WAT     H150303   9.816   7.347   9.493
16687WAT     H250304   9.758   7.210   9.561
16688WAT      O50305   9.692   0.016   5.432
16688WAT     H150306   9.743  -0.008   5.514
16688WAT     H250307   9.706   0.113   5.411
16689WAT      O50308   5.689   4.914   5.780
16689WAT     H150309   5.608   4.915   5.839
16689WAT     H250310   5.672   4.854   5.701
16690WAT      O50311   3.199   9.240   6.436
16690WAT     H150312   3.277   9.300   6.418
16690WAT     H250313   3.213   9.192   6.522
16691WAT      O50314   9.005   9.829   7.421
16691WAT     H150315   8.950   9.766   7.365
16691WAT     H250316   9.086   9.856   7.370
16692WAT      O50317   4.065   1.222   7.540
16692WAT     H150318   4.033   1.228   7.635
16692WAT     H250319   4.138   1.154   7.534
16693WAT      O50320   1.666   2.178   4.835
16693WAT     H150321   1.689   2.166   4.738
16693WAT     H250322   1.737   2.231   4.880
16694WAT      O50323   3.043   9.121   0.192
16694WAT     H150324   3.057   9.189   0.264
16694WAT     H250325   3.090   9.036   0.217
16695WAT      O50326   9.104   7.539   1.157
16695WAT     H150327   9.108   7.516   1.254
16695WAT     H250328   9.161   7.476   1.105
16696WAT      O50329   1.179   5.781   0.175
16696WAT     H150330   1.117   5.853   0.145
16696WAT     H250331   1.163   5.699   0.120
16697WAT      O50332   5.483   2.890   1.720
16697WAT     H150333   5.531   2.910   1.805
16697WAT     H250334   5.546   2.900   1.643
16698WAT      O50335   1.407   9.621   3.410
16698WAT     H150336   1.477   9.692   3.406
16698WAT     H250337   1.427   9.559   3.486
16699WAT      O50338   5.203   4.264   6.800
16699WAT     H150339   5.303   4.267   6.800
16699WAT     H250340   5.172   4.173   6.773
16700WAT      O50341   4.122   6.611   2.128
16700WAT     H150342   4.122   6.565   2.039
16700WAT     H250343   4.202   6.581   2.180
16701WAT      O50344   0.029   2.792   1.729
16701WAT     H150345   0.118   2.778   1.685
16701WAT     H250346   0.011   2.716   1.792
16702WAT      O50347   0.063   8.925   2.183
16702WAT     H150348   0.002   8.851   2.210
16702WAT     H250349   0.072   8.991   2.258
16703WAT      O50350   2.886   1.167   3.321
16703WAT     H150351   2.942   1.188   3.242
16703WAT     H250352   2.790   1.159   3.293
16704WAT      O50353   4.025   1.293   8.743
16704WAT     H150354   3.996   1.203   8.773
16704WAT     H250355   4.062   1.344   8.821
16705WAT      O50356   0.028   4.022   6.305
16705WAT     H150357   0.078   3.935   6.302
16705WAT     H250358   0.093   4.098   6.299
16706WAT      O50359   2.949   5.551   3.904
16706WAT     H150360   2.891   5.500   3.968
16706WAT     H250361   2.928   5.649   3.911
16707WAT      O50362   9.153   9.439   2.819
16707WAT     H150363   9.089   9.498   2.869
16707WAT     H250364   9.105   9.356   2.790
16708WAT      O50365   7.464   3.476   6.644
16708WAT     H150366   7.384   3.435   6.687
16708WAT     H250367   7.499   3.550   6.703
16709WAT      O50368   2.857   8.601   0.798
16709WAT     H150369   2.874   8.606   0.700
16709WAT     H250370   2.759   8.611   0.816
16710WAT      O50371   2.201   9.062   6.009
16710WAT     H150372   2.133   9.095   6.075
16710WAT     H250373   2.248   9.140   5.968
16711WAT      O50374   9.844   1.290   2.589
16711WAT     H150375   9.864   1.281   2.492
16711WAT     H250376   9.771   1.226   2.614
16712WAT      O50377   0.564   4.964   0.219
16712WAT     H150378   0.594   5.041   0.274
16712WAT     H250379   0.491   4.994   0.157
16713WAT      O50380   0.132   8.242   7.123
16713WAT     H150381   0.192   8.262   7.201
16713WAT     H250382   0.037   8.238   7.153
16714WAT      O50383   2.113   8.718   3.545
16714WAT     H150384   2.128   8.740   3.449
16714WAT     H250385   2.183   8.653   3.576
16715WAT      O50386   8.205   1.711   9.651
16715WAT     H150387   8.252   1.796   9.630
16715WAT     H250388   8.119   1.706   9.600
16716WAT      O50389   0.641   5.717   8.701
16716WAT     H150390   0.736   5.704   8.673
16716WAT     H250391   0.581   5.672   8.635
16717WAT      O50392   4.952   5.194   2.414
16717WAT     H150393   4.921   5.110   2.459
16717WAT     H250394   5.052   5.197   2.414
16718WAT      O50395   2.929   4.103   0.504
16718WAT     H150396   2.945   4.017   0.552
16718WAT     H250397   2.843   4.098   0.453
16719WAT      O50398   7.285   5.055   6.197
16719WAT     H150399   7.234   5.140   6.183
16719WAT     H250400   7.328   5.027   6.111
16720WAT      O50401   6.759   5.565   4.626
16720WAT     H150402   6.800   5.476   4.607
16720WAT     H250403   6.680   5.578   4.565
16721WAT      O50404   5.033   7.224   7.974
16721WAT     H150405   5.027   7.142   8.031
16721WAT     H250406   5.042   7.304   8.032
16722WAT      O50407   7.184   6.425   4.368
16722WAT     H150408   7.216   6.518   4.350
16722WAT     H250409   7.117   6.427   4.442
16723WAT      O50410   1.641   9.172   3.932
16723WAT     H150411   1.550   9.187   3.972
16723WAT     H250412   1.632   9.157   3.834
16724WAT      O50413   8.652   8.326   6.304
16724WAT     H150414   8.677   8.420   6.329
16724WAT     H250415   8.635   8.321   6.206
16725WAT      O50416   0.925   4.305   3.475
16725WAT     H150417   0.924   4.283   3.378
16725WAT     H250418   0.919   4.221   3.529
16726WAT      O50419   6.632   5.390   8.315
16726WAT     H150420   6.716   5.351   8.352
16726WAT     H250421   6.554   5.336   8.347
16727WAT      O50422   5.280   6.594   0.423
16727WAT     H150423   5.188   6.576   0.459
16727WAT     H250424   5.298   6.692   0.423
16728WAT      O50425   3.971   4.690   5.925
16728WAT     H150426   3.963   4.785   5.895
16728WAT     H250427   4.026   4.686   6.009
16729WAT      O50428   8.963   0.739   1.083
16729WAT     H150429   8.994   0.834   1.088
16729WAT     H250430   8.949   0.703   1.176
16730WAT      O50431   5.537   8.607   3.155
16730WAT     H150432   5.604   8.674   3.123
16730WAT     H250433   5.479   8.579   3.078
16731WAT      O50434   1.960   1.023   4.793
16731WAT     H150435   2.025   1.094   4.818
16731WAT     H250436   1.878   1.032   4.849
16732WAT      O50437   0.450   7.070   0.118
16732WAT     H150438   0.350   7.065   0.124
16732WAT     H250439   0.479   7.166   0.117
16733WAT      O50440   8.744   3.619   3.430
16733WAT     H150441   8.706   3.536   3.388
16733WAT     H250442   8.843   3.622   3.412
16734WAT      O50443   1.054   0.228   8.881
16734WAT     H150444   1.114   0.275   8.817
16734WAT     H250445   0.962   0.267   8.874
16735WAT      O50446   1.126   2.890   9.331
16735WAT     H150447   1.203   2.931   9.381
16735WAT     H250448   1.066   2.842   9.395
16736WAT      O50449   6.345   3.537   3.404
16736WAT     H150450   6.278   3.582   3.345
16736WAT     H250451   6.392   3.605   3.460
16737WAT      O50452   5.233   0.249   3.929
16737WAT     H150453   5.139   0.222   3.906
16737WAT     H250454   5.284   0.266   3.845
16738WAT      O50455   5.749   0.924   6.291
16738WAT     H150456   5.794   0.843   6.330
16738WAT     H250457   5.655   0.930   6.325
16739WAT      O50458   6.744   4.731   8.366
16739WAT     H150459   6.681   4.656   8.388
16739WAT     H250460   6.743   4.798   8.440
16740WAT      O50461   8.991   8.025   6.893
16740WAT     H150462   8.900   7.994   6.865
16740WAT     H250463   9.054   7.947   6.891
16741WAT      O50464   2.226   4.397   4.659
16741WAT     H150465   2.186   4.471   4.605
16741WAT     H250466   2.180   4.393   4.748
16742WAT      O50467   5.443   8.113   4.573
16742WAT     H150468   5.515   8.047   4.555
16742WAT     H250469   5.379   8.116   4.496
16743WAT      O50470   6.178   3.442   6.398
16743WAT     H150471   6.275   3.418   6.395
16743WAT     H250472   6.157   3.508   6.325
16744WAT      O50473   6.060   2.961   6.003
16744WAT     H150474   6.087   3.006   5.918
16744WAT     H250475   5.993   2.889   5.983
16745WAT      O50476   6.194   6.029   1.488
16745WAT     H150477   6.116   5.985   1.533
16745WAT     H250478   6.163   6.108   1.436
16746WAT      O50479   8.611   2.186   3.317
16746WAT     H150480   8.555   2.103   3.315
16746WAT     H250481   8.564   2.256   3.370
16747WAT      O50482   8.390   3.525   2.212
16747WAT     H150483   8.404   3.562   2.120
16747WAT     H250484   8.344   3.593   2.269
16748WAT      O50485   5.133   2.756   5.532
16748WAT     H150486   5.167   2.688   5.597
16748WAT     H250487   5.084   2.828   5.581
16749WAT      O50488   3.104   4.910   2.930
16749WAT     H150489   3.152   4.905   3.017
16749WAT     H250490   3.008   4.931   2.947
16750WAT      O50491   6.634   8.662   0.100
16750WAT     H150492   6.730   8.667   0.071
16750WAT     H250493   6.600   8.569   0.084
16751WAT      O50494   1.059   8.478   9.500
16751WAT     H150495   1.129   8.428   9.450
16751WAT     H250496   0.969   8.438   9.480
16752WAT      O50497   7.899   0.747   2.675
16752WAT     H150498   7.855   0.837   2.681
16752WAT     H250499   7.955   0.743   2.592
16753WAT      O50500   6.899   7.582   5.365
16753WAT     H150501   6.855   7.506   5.414
16753WAT     H250502   6.875   7.576   5.268
16754WAT      O50503   9.030   4.345   8.899
16754WAT     H150504   9.082   4.398   8.832
16754WAT     H250505   9.049   4.379   8.991
16755WAT      O50506   5.501   1.148   0.174
16755WAT     H150507   5.481   1.133   0.077
16755WAT     H250508   5.584   1.204   0.182
16756WAT      O50509   8.523   2.316   9.816
16756WAT     H150510   8.451   2.383   9.802
16756WAT     H250511   8.593   2.354   9.876
16757WAT      O50512   2.894   3.289   3.165
16757WAT     H150513   2.954   3.280   3.245
16757WAT     H250514   2.798   3.286   3.194
16758WAT      O50515   5.373   5.551   7.351
16758WAT     H150516   5.418   5.466   7.376
16758WAT     H250517   5.315   5.536   7.271
16759WAT      O50518   7.546   5.978   7.747
16759WAT     H150519   7.496   6.060   7.722
16759WAT     H250520   7.641   5.987   7.717
16760WAT      O50521   5.247   6.611   7.028
16760WAT     H150522   5.300   6.652   7.102
16760WAT     H250523   5.210   6.684   6.970
16761WAT      O50524   9.642   0.147   9.101
16761WAT     H150525   9.615   0.146   9.197
16761WAT     H250526   9.604   0.227   9.056
16762WAT      O50527   3.137   2.690   3.663
16762WAT     H150528   3.049   2.727   3.633
16762WAT     H250529   3.123   2.598   3.700
16763WAT      O50530   3.745   4.058   2.421
16763WAT     H150531   3.767   4.071   2.517
16763WAT     H250532   3.661   4.005   2.413
16764WAT      O50533   7.569   7.435   6.629
16764WAT     H150534   7.649   7.379   6.608
16764WAT     H250535   7.598   7.530   6.645
16765WAT      O50536   7.165   0.173   0.413
16765WAT     H150537   7.191   0.112   0.338
16765WAT     H250538   7.197   0.266   0.392
16766WAT      O50539   0.248   3.168   1.122
16766WAT     H150540   0.281   3.209   1.037
16766WAT     H250541   0.160   3.209   1.147
16767WAT      O50542   8.536   7.950   7.963
16767WAT     H150543   8.603   7.892   7.916
16767WAT     H250544   8.454   7.896   7.984
16768WAT      O50545   0.471   9.703   9.547
16768WAT     H150546   0.380   9.743   9.533
16768WAT     H250547   0.538   9.754   9.493
16769WAT      O50548   8.424   5.197   2.949
16769WAT     H150549   8.439   5.290   2.983
16769WAT     H250550   8.500   5.139   2.977
16770WAT      O50551   0.032   3.351   6.829
16770WAT     H150552   0.052   3.261   6.869
16770WAT     H250553   0.042   3.421   6.899
16771WAT      O50554   2.546   9.526   4.869
16771WAT     H150555   2.529   9.558   4.962
16771WAT     H250556   2.532   9.427   4.864
16772WAT      O50557   0.265   4.407   4.692
16772WAT     H150558   0.357   4.444   4.675
16772WAT     H250559   0.273   4.309   4.714
16773WAT      O50560   6.638   0.794   4.406
16773WAT     H150561   6.709   0.863   4.417
16773WAT     H250562   6.570   0.826   4.340
16774WAT      O50563   0.882   0.269   1.309
16774WAT     H150564   0.835   0.350   1.276
16774WAT     H250565   0.978   0.271   1.278
16775WAT      O50566   4.967   2.945   6.256
16775WAT     H150567   5.020   2.882   6.199
16775WAT     H250568   4.893   2.985   6.202
16776WAT      O50569   4.923   0.062   3.103
16776WAT     H150570   4.940  -0.021   3.050
16776WAT     H250571   4.832   0.058   3.143
16777WAT      O50572   8.646   0.714   9.487
16777WAT     H150573   8.633   0.616   9.469
16777WAT     H250574   8.637   0.731   9.585
16778WAT      O50575   4.130   1.458   8.929
16778WAT     H150576   4.115   1.555   8.948
16778WAT     H250577   4.114   1.405   9.013
16779WAT      O50578   9.094   7.657   4.325
16779WAT     H150579   9.012   7.656   4.382
16779WAT     H250580   9.086   7.730   4.257
16780WAT      O50581   0.639   4.215   0.271
16780WAT     H150582   0.602   4.145   0.210
16780WAT     H250583   0.729   4.186   0.304
16781WAT      O50584   7.892   8.631   7.370
16781WAT     H150585   7.971   8.571   7.380
16781WAT     H250586   7.819   8.583   7.323
16782WAT      O50587   7.865   8.663   5.296
16782WAT     H150588   7.893   8.743   5.243
16782WAT     H250589   7.881   8.580   5.243
16783WAT      O50590   1.584   8.751   7.784
16783WAT     H150591   1.507   8.765   7.847
16783WAT     H250592   1.669   8.754   7.835
16784WAT      O50593   2.417   3.846   0.013
16784WAT     H150594   2.418   3.881  -0.081
16784WAT     H250595   2.413   3.746   0.011
16785WAT      O50596   9.176   8.678   3.354
16785WAT     H150597   9.190   8.674   3.453
16785WAT     H250598   9.093   8.729   3.335
16786WAT      O50599   7.011   2.950   0.069
16786WAT     H150600   7.038   2.975  -0.023
16786WAT     H250601   6.912   2.960   0.080
16787WAT      O50602   5.320   3.649   2.583
16787WAT     H150603   5.399   3.604   2.625
16787WAT     H250604   5.236   3.603   2.612
16788WAT      O50605   1.829   3.425   6.423
16788WAT     H150606   1.843   3.430   6.324
16788WAT     H250607   1.893   3.487   6.469
16789WAT      O50608   8.579   1.558   2.023
16789WAT     H150609   8.583   1.458   2.018
16789WAT     H250610   8.515   1.585   2.096
16790WAT      O50611   8.345   6.818   7.671
16790WAT     H150612   8.324   6.911   7.641
16790WAT     H250613   8.279   6.791   7.742
16791WAT      O50614   8.567   1.941   8.545
16791WAT     H150615   8.523   2.021   8.586
16791WAT     H250616   8.524   1.919   8.458
16792WAT      O50617   8.097   7.423   6.415
16792WAT     H150618   8.060   7.512   6.442
16792WAT     H250619   8.048   7.350   6.464
16793WAT      O50620   7.362   7.825   9.290
16793WAT     H150621   7.333   7.738   9.329
16793WAT     H250622   7.282   7.882   9.274
16794WAT      O50623   4.397   6.735   1.966
16794WAT     H150624   4.478   6.782   2.000
16794WAT     H250625   4.349   6.693   2.043
16795WAT      O50626   3.709   2.350   8.236
16795WAT     H150627   3.698   2.251   8.251
16795WAT     H250628   3.788   2.366   8.176
16796WAT      O50629   8.266   2.785   4.696
16796WAT     H150630   8.349   2.752   4.741
16796WAT     H250631   8.242   2.726   4.620
16797WAT      O50632   8.003   7.959   6.443
16797WAT     H150633   8.093   7.978   6.405
16797WAT     H250634   7.994   8.003   6.532
16798WAT      O50635   9.198   8.493   4.864
16798WAT     H150636   9.167   8.585   4.886
16798WAT     H250637   9.277   8.498   4.803
16799WAT      O50638   3.450   1.259   2.840
16799WAT     H150639   3.450   1.358   2.855
16799WAT     H250640   3.357   1.227   2.824
16800WAT      O50641   8.832   0.587   5.129
16800WAT     H150642   8.883   0.503   5.108
16800WAT     H250643   8.735   0.572   5.113
16801WAT      O50644   4.267   9.683   4.881
16801WAT     H150645   4.325   9.624   4.937
16801WAT     H250646   4.171   9.668   4.906
16802WAT      O50647   9.407   7.581   6.379
16802WAT     H150648   9.404   7.597   6.280
16802WAT     H250649   9.391   7.485   6.398
16803WAT      O50650   3.972   0.187   4.140
16803WAT     H150651   3.953   0.147   4.051
16803WAT     H250652   4.070   0.186   4.158
16804WAT      O50653   8.072   9.289   2.855
16804WAT     H150654   8.086   9.266   2.759
16804WAT     H250655   8.020   9.374   2.862
16805WAT      O50656   0.799   9.210   7.925
16805WAT     H150657   0.815   9.307   7.907
16805WAT     H250658   0.749   9.201   8.011
16806WAT      O50659   1.973   3.444   4.080
16806WAT     H150660   2.016   3.374   4.024
16806WAT     H250661   1.966   3.411   4.174
16807WAT      O50662   9.803   5.572   2.867
16807WAT     H150663   9.869   5.497   2.871
16807WAT     H250664   9.848   5.654   2.833
16808WAT      O50665   9.560   9.430   6.063
16808WAT     H150666   9.612   9.514   6.077
16808WAT     H250667   9.515   9.405   6.148
16809WAT      O50668   0.581   4.315   4.501
16809WAT     H150669   0.616   4.245   4.564
16809WAT     H250670   0.532   4.384   4.553
16810WAT      O50671   3.138   1.652   5.022
16810WAT     H150672   3.199   1.723   4.988
16810WAT     H250673   3.048   1.662   4.979
16811WAT      O50674   5.554   2.084   1.111
16811WAT     H150675   5.607   2.026   1.173
16811WAT     H250676   5.502   2.150   1.164
16812WAT      O50677   3.599   8.534   7.664
16812WAT     H150678   3.655   8.460   7.625
16812WAT     H250679   3.520   8.494   7.710
16813WAT      O50680   4.192   5.506   7.097
16813WAT     H150681   4.130   5.481   7.172
16813WAT     H250682   4.287   5.497   7.127
16814WAT      O50683   0.670   8.840   4.155
16814WAT     H150684   0.647   8.924   4.204
16814WAT     H250685   0.758   8.805   4.187
16815WAT      O50686   8.059   6.609   1.970
16815WAT     H150687   8.002   6.650   1.898
16815WAT     H250688   8.149   6.587   1.933
16816WAT      O50689   0.154   5.361   5.581
16816WAT     H150690   0.146   5.404   5.670
16816WAT     H250691   0.250   5.360   5.553
16817WAT      O50692   1.203   3.118   6.621
16817WAT     H150693   1.187   3.184   6.547
16817WAT     H250694   1.216   3.167   6.707
16818WAT      O50695   6.880   0.620   5.804
16818WAT     H150696   6.893   0.627   5.903
16818WAT     H250697   6.847   0.708   5.769
16819WAT      O50698   2.630   2.561   4.926
16819WAT     H150699   2.588   2.539   5.014
16819WAT     H250700   2.650   2.659   4.922
16820WAT      O50701   5.000   6.034   6.221
16820WAT     H150702   4.933   6.006   6.289
16820WAT     H250703   4.953   6.061   6.137
16821WAT      O50704   1.848   9.682   5.268
16821WAT     H150705   1.843   9.736   5.352
16821WAT     H250706   1.852   9.585   5.291
16822WAT      O50707   3.466   2.616   6.853
16822WAT     H150708   3.370   2.641   6.842
16822WAT     H250709   3.511   2.620   6.763
16823WAT      O50710   0.021   3.359   4.670
16823WAT     H150711   0.029   3.441   4.614
16823WAT     H250712  -0.033   3.379   4.752
16824WAT      O50713   0.666   3.380   0.395
16824WAT     H150714   0.610   3.443   0.342
16824WAT     H250715   0.662   3.289   0.353
16825WAT      O50716   9.249   6.900   1.830
16825WAT     H150717   9.262   6.833   1.757
16825WAT     H250718   9.255   6.992   1.791
16826WAT      O50719   1.164   3.541   8.719
16826WAT     H150720   1.251   3.501   8.689
16826WAT     H250721   1.145   3.623   8.665
16827WAT      O50722   4.480   4.028   4.256
16827WAT     H150723   4.557   3.977   4.293
16827WAT     H250724   4.421   4.061   4.330
16828WAT      O50725   1.168   6.629   2.411
16828WAT     H150726   1.235   6.643   2.483
16828WAT     H250727   1.076   6.634   2.449
16829WAT      O50728   9.416   8.290   2.067
16829WAT     H150729   9.480   8.367   2.076
16829WAT     H250730   9.421   8.234   2.149
16830WAT      O50731   7.552   6.985   5.422
16830WAT     H150732   7.477   7.047   5.446
16830WAT     H250733   7.583   7.005   5.329
16831WAT      O50734   9.586   0.367   8.917
16831WAT     H150735   9.550   0.460   8.903
16831WAT     H250736   9.590   0.320   8.829
16832WAT      O50737   7.733   3.478   7.750
16832WAT     H150738   7.712   3.469   7.847
16832WAT     H250739   7.650   3.464   7.696
16833WAT      O50740   8.375   3.699   0.123
16833WAT     H150741   8.330   3.618   0.161
16833WAT     H250742   8.469   3.675   0.096
16834WAT      O50743   5.581   2.354   7.061
16834WAT     H150744   5.633   2.362   6.976
16834WAT     H250745   5.566   2.257   7.082
16835WAT      O50746   5.634   0.497   7.712
16835WAT     H150747   5.601   0.518   7.620
16835WAT     H250748   5.699   0.421   7.707
16836WAT      O50749   8.531   7.869   1.488
16836WAT     H150750   8.572   7.959   1.471
16836WAT     H250751   8.470   7.845   1.413
16837WAT      O50752   5.098   5.968   8.581
16837WAT     H150753   5.138   5.876   8.576
16837WAT     H250754   5.154   6.024   8.643
16838WAT      O50755   2.012   6.442   7.975
16838WAT     H150756   2.054   6.406   8.058
16838WAT     H250757   2.029   6.380   7.899
16839WAT      O50758   6.136   0.444   7.719
16839WAT     H150759   6.203   0.517   7.719
16839WAT     H250760   6.161   0.376   7.650
16840WAT      O50761   7.098   1.820   3.818
16840WAT     H150762   7.129   1.728   3.796
16840WAT     H250763   7.177   1.880   3.832
16841WAT      O50764   8.850   1.872   4.825
16841WAT     H150765   8.752   1.858   4.840
16841WAT     H250766   8.884   1.940   4.891
16842WAT      O50767   5.359   4.525   1.792
16842WAT     H150768   5.422   4.523   1.870
16842WAT     H250769   5.411   4.519   1.707
16843WAT      O50770   5.619   3.145   5.472
16843WAT     H150771   5.548   3.196   5.521
16843WAT     H250772   5.593   3.048   5.470
16844WAT      O50773   3.229   0.351   5.735
16844WAT     H150774   3.280   0.265   5.736
16844WAT     H250775   3.206   0.377   5.829
16845WAT      O50776   7.678   0.949   0.536
16845WAT     H150777   7.735   1.023   0.570
16845WAT     H250778   7.675   0.874   0.602
16846WAT      O50779   0.018   6.029   4.751
16846WAT     H150780  -0.066   6.082   4.757
16846WAT     H250781   0.087   6.067   4.813
16847WAT      O50782   9.232   8.269   9.767
16847WAT     H150783   9.270   8.217   9.843
16847WAT     H250784   9.229   8.211   9.685
16848WAT      O50785   1.580   4.965   2.579
16848WAT     H150786   1.520   5.000   2.507
16848WAT     H250787   1.525   4.922   2.651
16849WAT      O50788   0.834   5.030   1.346
16849WAT     H150789   0.844   4.994   1.439
16849WAT     H250790   0.767   5.104   1.345
16850WAT      O50791   8.293   5.521   6.980
16850WAT     H150792   8.280   5.616   7.009
16850WAT     H250793   8.380   5.487   7.014
16851WAT      O50794   3.960   1.244   7.823
16851WAT     H150795   4.041   1.214   7.875
16851WAT     H250796   3.897   1.167   7.815
16852WAT      O50797   2.900   9.425   4.371
16852WAT     H150798   2.813   9.428   4.322
16852WAT     H250799   2.972   9.393   4.309
16853WAT      O50800   9.814   5.081   1.166
16853WAT     H150801   9.809   4.993   1.214
16853WAT     H250802   9.725   5.125   1.169
16854WAT      O50803   1.640   1.107   0.776
16854WAT     H150804   1.616   1.094   0.872
16854WAT     H250805   1.565   1.154   0.730
16855WAT      O50806   4.646   1.189   3.982
16855WAT     H150807   4.564   1.225   3.938
16855WAT     H250808   4.666   1.098   3.946
16856WAT      O50809   8.219   3.694   4.729
16856WAT     H150810   8.155   3.769   4.751
16856WAT     H250811   8.181   3.639   4.655
16857WAT      O50812   8.239   5.369   8.981
16857WAT     H150813   8.279   5.460   8.988
16857WAT     H250814   8.312   5.301   8.970
16858WAT      O50815   1.784   3.052   6.967
16858WAT     H150816   1.801   3.089   7.059
16858WAT     H250817   1.707   3.100   6.925
16859WAT      O50818   2.117   1.514   9.859
16859WAT     H150819   2.164   1.499   9.946
16859WAT     H250820   2.184   1.534   9.788
16860WAT      O50821   9.783   2.153   0.785
16860WAT     H150822   9.876   2.157   0.820
16860WAT     H250823   9.785   2.128   0.688
16861WAT      O50824   8.384   3.931   9.539
16861WAT     H150825   8.391   4.020   9.493
16861WAT     H250826   8.429   3.936   9.628
16862WAT      O50827   9.724   5.552   6.833
16862WAT     H150828   9.822   5.537   6.818
16862WAT     H250829   9.690   5.616   6.764
16863WAT      O50830   1.290   6.426   6.121
16863WAT     H150831   1.341   6.511   6.137
16863WAT     H250832   1.226   6.410   6.196
16864WAT      O50833   9.828   0.710   2.474
16864WAT     H150834   9.827   0.610   2.481
16864WAT     H250835   9.787   0.749   2.556
16865WAT      O50836   2.931   8.161   8.833
16865WAT     H150837   2.962   8.156   8.738
16865WAT     H250838   3.010   8.162   8.894
16866WAT      O50839   9.119   8.374   7.301
16866WAT     H150840   9.109   8.445   7.231
16866WAT     H250841   9.138   8.286   7.257
16867WAT      O50842   7.558   2.763   5.884
16867WAT     H150843   7.545   2.748   5.982
16867WAT     H250844   7.511   2.847   5.857
16868WAT      O50845   8.688   8.906   3.144
16868WAT     H150846   8.691   8.877   3.239
16868WAT     H250847   8.618   8.977   3.133
16869WAT      O50848   0.512   4.003   4.056
16869WAT     H150849   0.432   3.954   4.023
16869WAT     H250850   0.594   3.971   4.009
16870WAT      O50851   5.919   7.852   2.330
16870WAT     H150852   5.989   7.838   2.260
16870WAT     H250853   5.877   7.943   2.318
16871WAT      O50854   4.486   2.735   6.032
16871WAT     H150855   4.424   2.739   6.111
16871WAT     H250856   4.580   2.753   6.063
16872WAT      O50857   5.930   0.253   0.943
16872WAT     H150858   5.935   0.293   0.851
16872WAT     H250859   5.991   0.174   0.948
16873WAT      O50860   4.110   1.771   7.496
16873WAT     H150861   4.067   1.833   7.431
16873WAT     H250862   4.140   1.823   7.576
16874WAT      O50863   8.010   4.032   8.990
16874WAT     H150864   8.020   4.086   8.906
16874WAT     H250865   8.021   4.091   9.069
16875WAT      O50866   9.325   0.006   1.943
16875WAT     H150867   9.249   0.034   2.001
16875WAT     H250868   9.350   0.082   1.883
16876WAT      O50869   4.607   8.125   8.177
16876WAT     H150870   4.611   8.123   8.077
16876WAT     H250871   4.566   8.041   8.211
16877WAT      O50872   6.871   5.788   2.833
16877WAT     H150873   6.841   5.849   2.759
16877WAT     H250874   6.791   5.743   2.873
16878WAT      O50875   0.769   8.408   6.119
16878WAT     H150876   0.763   8.309   6.117
16878WAT     H250877   0.746   8.445   6.029
16879WAT      O50878   3.318   7.186   3.287
16879WAT     H150879   3.378   7.196   3.208
16879WAT     H250880   3.366   7.134   3.358
16880WAT      O50881   2.737   0.426   3.226
16880WAT     H150882   2.640   0.449   3.216
16880WAT     H250883   2.776   0.478   3.302
16881WAT      O50884   7.335   9.566   3.683
16881WAT     H150885   7.421   9.614   3.698
16881WAT     H250886   7.354   9.471   3.659
16882WAT      O50887   1.266   5.247   0.662
16882WAT     H150888   1.332   5.302   0.714
16882WAT     H250889   1.181   5.298   0.652
16883WAT      O50890   6.141   0.785   0.612
16883WAT     H150891   6.185   0.780   0.702
16883WAT     H250892   6.182   0.859   0.559
16884WAT      O50893   5.359   4.316   3.893
16884WAT     H150894   5.278   4.346   3.942
16884WAT     H250895   5.434   4.303   3.958
16885WAT      O50896   6.790   0.917   5.038
16885WAT     H150897   6.740   0.836   5.008
16885WAT     H250898   6.756   0.997   4.987
16886WAT      O50899   6.919   3.140   4.967
16886WAT     H150900   7.003   3.178   4.928
16886WAT     H250901   6.842   3.199   4.944
16887WAT      O50902   5.738   0.259   3.314
16887WAT     H150903   5.783   0.169   3.315
16887WAT     H250904   5.806   0.330   3.296
16888WAT      O50905   0.795   0.090   6.336
16888WAT     H150906   0.840   0.067   6.422
16888WAT     H250907   0.846   0.050   6.260
16889WAT      O50908   5.931   5.966   1.440
16889WAT     H150909   5.914   5.965   1.341
16889WAT     H250910   5.895   5.882   1.481
16890WAT      O50911   1.019   1.685   5.802
16890WAT     H150912   0.939   1.737   5.831
16890WAT     H250913   1.100   1.744   5.808
16891WAT      O50914   4.811   6.759   3.463
16891WAT     H150915   4.725   6.741   3.510
16891WAT     H250916   4.873   6.806   3.526
16892WAT      O50917   2.573   9.037   7.344
16892WAT     H150918   2.575   8.962   7.410
16892WAT     H250919   2.481   9.076   7.340
16893WAT      O50920   4.183   3.340   2.559
16893WAT     H150921   4.093   3.385   2.566
16893WAT     H250922   4.200   3.315   2.464
16894WAT      O50923   1.170   2.153   8.174
16894WAT     H150924   1.196   2.244   8.141
16894WAT     H250925   1.086   2.124   8.128
16895WAT      O50926   1.209   2.662   8.299
16895WAT     H150927   1.232   2.695   8.208
16895WAT     H250928   1.291   2.625   8.343
16896WAT      O50929   5.401   9.793   8.498
16896WAT     H150930   5.367   9.706   8.533
16896WAT     H250931   5.500   9.799   8.513
16897WAT      O50932   9.652   1.318   8.839
16897WAT     H150933   9.710   1.237   8.838
16897WAT     H250934   9.559   1.293   8.868
16898WAT      O50935   5.361   9.456   2.912
16898WAT     H150936   5.451   9.480   2.947
16898WAT     H250937   5.357   9.471   2.814
16899WAT      O50938   2.522   1.939   7.973
16899WAT     H150939   2.475   1.920   8.060
16899WAT     H250940   2.609   1.889   7.971
16900WAT      O50941   0.153   5.565   2.635
16900WAT     H150942   0.081   5.608   2.581
16900WAT     H250943   0.207   5.504   2.576
16901WAT      O50944   3.133   5.946   9.556
16901WAT     H150945   3.134   6.042   9.585
16901WAT     H250946   3.117   5.887   9.636
16902WAT      O50947   2.777   9.805   7.452
16902WAT     H150948   2.742   9.740   7.519
16902WAT     H250949   2.875   9.818   7.466
16903WAT      O50950   1.972   6.601   2.760
16903WAT     H150951   1.993   6.587   2.663
16903WAT     H250952   1.984   6.515   2.809
16904WAT      O50953   8.562   3.019   8.502
16904WAT     H150954   8.463   3.031   8.516
16904WAT     H250955   8.611   3.095   8.546
16905WAT      O50956   7.368   3.528   0.304
16905WAT     H150957   7.437   3.599   0.316
16905WAT     H250958   7.357   3.477   0.390
16906WAT      O50959   0.298   4.334   3.318
16906WAT     H150960   0.232   4.292   3.380
16906WAT     H250961   0.327   4.267   3.250
16907WAT      O50962   0.884   0.780   7.552
16907WAT     H150963   0.982   0.778   7.532
16907WAT     H250964   0.845   0.690   7.534
16908WAT      O50965   4.016   2.278   7.445
16908WAT     H150966   4.066   2.356   7.482
16908WAT     H250967   4.067   2.240   7.367
16909WAT      O50968   0.895   9.341   9.633
16909WAT     H150969   0.991   9.316   9.647
16909WAT     H250970   0.843   9.260   9.608
16910WAT      O50971   8.820   7.359   4.269
16910WAT     H150972   8.866   7.337   4.183
16910WAT     H250973   8.871   7.432   4.316
16911WAT      O50974   2.946   2.895   0.078
16911WAT     H150975   2.903   2.862   0.163
16911WAT     H250976   3.045   2.893   0.088
16912WAT      O50977   2.528   9.032   8.681
16912WAT     H150978   2.476   9.057   8.762
16912WAT     H250979   2.619   9.074   8.685
16913WAT      O50980   0.485   5.842   8.890
16913WAT     H150981   0.390   5.856   8.863
16913WAT     H250982   0.527   5.774   8.829
16914WAT      O50983   5.840   3.134   2.172
16914WAT     H150984   5.757   3.169   2.215
16914WAT     H250985   5.845   3.035   2.186
16915WAT      O50986   7.057   2.172   8.742
16915WAT     H150987   7.117   2.244   8.707
16915WAT     H250988   7.073   2.160   8.840
16916WAT      O50989   8.426   0.342   7.729
16916WAT     H150990   8.365   0.271   7.695
16916WAT     H250991   8.431   0.337   7.828
16917WAT      O50992   0.382   4.156   8.176
16917WAT     H150993   0.367   4.072   8.125
16917WAT     H250994   0.297   4.183   8.222
16918WAT      O50995   8.642   4.282   3.649
16918WAT     H150996   8.717   4.310   3.709
16918WAT     H250997   8.556   4.318   3.684
16919WAT      O50998   2.807   3.738   0.306
16919WAT     H150999   2.737   3.695   0.362
16919WAT     H251000   2.890   3.682   0.306
16920WAT      O51001   4.106   0.626   1.859
16920WAT     H151002   4.130   0.532   1.885
16920WAT     H251003   4.007   0.636   1.861
16921WAT      O51004   3.233   2.834   0.138
16921WAT     H151005   3.275   2.873   0.220
16921WAT     H251006   3.192   2.745   0.161
16922WAT      O51007   8.948   0.316   2.399
16922WAT     H151008   8.947   0.394   2.461
16922WAT     H251009   8.865   0.315   2.344
16923WAT      O51010   0.087   5.374   7.762
16923WAT     H151011   0.165   5.330   7.718
16923WAT     H251012   0.100   5.373   7.861
16924WAT      O51013   8.463   0.660   3.569
16924WAT     H151014   8.414   0.674   3.483
16924WAT     H251015   8.546   0.717   3.570
16925WAT      O51016   0.374   2.294   6.263
16925WAT     H151017   0.311   2.369   6.242
16925WAT     H251018   0.439   2.284   6.188
16926WAT      O51019   9.823   9.545   4.882
16926WAT     H151020   9.754   9.611   4.912
16926WAT     H251021   9.854   9.568   4.789
16927WAT      O51022   3.026   8.133   8.580
16927WAT     H151023   2.961   8.066   8.545
16927WAT     H251024   3.117   8.112   8.544
16928WAT      O51025   1.114   2.218   4.580
16928WAT     H151026   1.058   2.293   4.544
16928WAT     H251027   1.124   2.230   4.679
16929WAT      O51028   5.203   1.722   9.551
16929WAT     H151029   5.116   1.679   9.574
16929WAT     H251030   5.204   1.745   9.453
16930WAT      O51031   0.321   9.012   2.778
16930WAT     H151032   0.265   8.949   2.725
16930WAT     H251033   0.417   9.005   2.748
16931WAT      O51034   3.452   7.041   9.734
16931WAT     H151035   3.362   7.025   9.774
16931WAT     H251036   3.482   6.960   9.684
16932WAT      O51037   1.430   0.532   1.131
16932WAT     H151038   1.347   0.518   1.185
16932WAT     H251039   1.508   0.495   1.180
16933WAT      O51040   1.551   1.765   6.630
16933WAT     H151041   1.500   1.765   6.716
16933WAT     H251042   1.637   1.716   6.642
16934WAT      O51043   5.619   1.250   7.044
16934WAT     H151044   5.659   1.288   6.960
16934WAT     H251045   5.519   1.254   7.037
16935WAT      O51046   1.551   8.296   3.300
16935WAT     H151047   1.570   8.284   3.397
16935WAT     H251048   1.492   8.375   3.287
16936WAT      O51049   4.400   0.032   6.326
16936WAT     H151050   4.438   0.122   6.306
16936WAT     H251051   4.382   0.023   6.424
16937WAT      O51052   3.180   0.502   6.824
16937WAT     H151053   3.266   0.524   6.869
16937WAT     H251054   3.198   0.455   6.738
16938WAT      O51055   6.240   0.093   3.257
16938WAT     H151056   6.319   0.093   3.196
16938WAT     H251057   6.167   0.148   3.218
16939WAT      O51058   1.712   4.671   8.102
16939WAT     H151059   1.705   4.770   8.114
16939WAT     H251060   1.624   4.635   8.072
16940WAT      O51061   8.009   8.654   6.996
16940WAT     H151062   7.921   8.696   6.975
16940WAT     H251063   8.072   8.724   7.029
16941WAT      O51064   2.741   2.470   9.149
16941WAT     H151065   2.650   2.504   9.124
16941WAT     H251066   2.802   2.548   9.167
16942WAT      O51067   9.862   5.416   0.437
16942WAT     H151068   9.955   5.420   0.401
16942WAT     H251069   9.857   5.345   0.508
16943WAT      O51070   2.401   7.422   6.462
16943WAT     H151071   2.401   7.522   6.458
16943WAT     H251072   2.494   7.389   6.477
16944WAT      O51073   8.924   3.431   8.852
16944WAT     H151074   8.857   3.500   8.823
16944WAT     H251075   8.989   3.415   8.778
16945WAT      O51076   0.164   7.668   7.910
16945WAT     H151077   0.098   7.691   7.839
16945WAT     H251078   0.226   7.598   7.877
16946WAT      O51079   1.885   2.473   1.149
16946WAT     H151080   1.837   2.526   1.079
16946WAT     H251081   1.848   2.381   1.153
16947WAT      O51082   4.375   7.013   2.557
16947WAT     H151083   4.373   7.112   2.571
16947WAT     H251084   4.284   6.980   2.534
16948WAT      O51085   4.772   0.719   3.301
16948WAT     H151086   4.739   0.703   3.208
16948WAT     H251087   4.717   0.666   3.365
16949WAT      O51088   2.717   2.320   8.782
16949WAT     H151089   2.702   2.309   8.684
16949WAT     H251090   2.778   2.398   8.798
16950WAT      O51091   2.474   7.395   4.273
16950WAT     H151092   2.432   7.449   4.346
16950WAT     H251093   2.571   7.382   4.291
16951WAT      O51094   1.893   5.873   1.023
16951WAT     H151095   1.904   5.857   1.121
16951WAT     H251096   1.844   5.797   0.981
16952WAT      O51097   9.276   0.326   7.305
16952WAT     H151098   9.265   0.425   7.299
16952WAT     H251099   9.313   0.301   7.394
16953WAT      O51100   0.103   0.913   7.879
16953WAT     H151101   0.045   0.929   7.799
16953WAT     H251102   0.067   0.964   7.957
16954WAT      O51103   4.133   6.959   6.805
16954WAT     H151104   4.105   6.999   6.717
16954WAT     H251105   4.124   7.028   6.877
16955WAT      O51106   9.456   7.187   1.523
16955WAT     H151107   9.551   7.171   1.551
16955WAT     H251108   9.455   7.234   1.435
16956WAT      O51109   1.906   9.595   1.153
16956WAT     H151110   1.908   9.675   1.212
16956WAT     H251111   1.922   9.623   1.058
16957WAT      O51112   4.737   0.528   3.050
16957WAT     H151113   4.816   0.471   3.071
16957WAT     H251114   4.767   0.619   3.022
16958WAT      O51115   4.604   7.928   6.257
16958WAT     H151116   4.584   7.835   6.288
16958WAT     H251117   4.524   7.986   6.271
16959WAT      O51118   6.538   7.561   6.061
16959WAT     H151119   6.594   7.487   6.098
16959WAT     H251120   6.560   7.646   6.109
16960WAT      O51121   1.403   9.764   4.238
16960WAT     H151122   1.486   9.820   4.233
16960WAT     H251123   1.382   9.728   4.147
16961WAT      O51124   6.611   1.466   3.587
16961WAT     H151125   6.676   1.539   3.612
16961WAT     H251126   6.518   1.502   3.591
16962WAT      O51127   8.231   0.997   5.249
16962WAT     H151128   8.244   1.090   5.215
16962WAT     H251129   8.133   0.979   5.259
16963WAT      O51130   5.843   7.913   1.677
16963WAT     H151131   5.864   7.842   1.609
16963WAT     H251132   5.905   7.991   1.664
16964WAT      O51133   9.113   3.973   2.758
16964WAT     H151134   9.134   4.015   2.846
16964WAT     H251135   9.048   4.030   2.708
16965WAT      O51136   4.684   4.935   3.977
16965WAT     H151137   4.763   4.910   3.921
16965WAT     H251138   4.645   4.853   4.017
16966WAT      O51139   1.182   7.602   6.005
16966WAT     H151140   1.224   7.646   6.084
16966WAT     H251141   1.145   7.513   6.032
16967WAT      O51142   8.635   8.502   7.695
16967WAT     H151143   8.729   8.501   7.730
16967WAT     H251144   8.602   8.409   7.683
16968WAT      O51145   6.586   6.219   8.075
16968WAT     H151146   6.505   6.260   8.116
16968WAT     H251147   6.578   6.221   7.975
16969WAT      O51148   6.832   1.370   6.192
16969WAT     H151149   6.895   1.431   6.144
16969WAT     H251150   6.862   1.358   6.286
16970WAT      O51151   3.538   6.644   7.711
16970WAT     H151152   3.587   6.611   7.792
16970WAT     H251153   3.601   6.695   7.653
16971WAT      O51154   7.794   3.489   2.738
16971WAT     H151155   7.796   3.390   2.730
16971WAT     H251156   7.699   3.521   2.741
16972WAT      O51157   0.172   0.693   3.461
16972WAT     H151158   0.138   0.627   3.528
16972WAT     H251159   0.193   0.647   3.376
16973WAT      O51160   1.762   8.850   0.743
16973WAT     H151161   1.677   8.798   0.727
16973WAT     H251162   1.754   8.902   0.827
16974WAT      O51163   0.910   7.172   4.484
16974WAT     H151164   0.948   7.178   4.576
16974WAT     H251165   0.816   7.206   4.484
16975WAT      O51166   6.327   1.250   8.993
16975WAT     H151167   6.389   1.314   8.947
16975WAT     H251168   6.245   1.238   8.938
16976WAT      O51169   9.241   1.386   6.884
16976WAT     H151170   9.333   1.393   6.923
16976WAT     H251171   9.240   1.431   6.794
16977WAT      O51172   6.220   4.026   5.283
16977WAT     H151173   6.196   3.963   5.209
16977WAT     H251174   6.139   4.044   5.338
16978WAT      O51175   2.884   1.898   7.959
16978WAT     H151176   2.910   1.807   7.925
16978WAT     H251177   2.863   1.892   8.057
16979WAT      O51178   8.943   5.836   0.121
16979WAT     H151179   8.961   5.809   0.027
16979WAT     H251180   8.852   5.877   0.128
16980WAT      O51181   1.426   2.049   8.180
16980WAT     H151182   1.334   2.083   8.165
16980WAT     H251183   1.426   1.949   8.176
16981WAT      O51184   0.410   7.355   4.101
16981WAT     H151185   0.352   7.416   4.156
16981WAT     H251186   0.359   7.272   4.080
16982WAT      O51187   4.444   9.410   7.566
16982WAT     H151188   4.389   9.492   7.585
16982WAT     H251189   4.396   9.352   7.500
16983WAT      O51190   5.440   9.102   3.678
16983WAT     H151191   5.382   9.170   3.723
16983WAT     H251192   5.384   9.044   3.620
16984WAT      O51193   2.213   6.984   3.759
16984WAT     H151194   2.271   6.904   3.773
16984WAT     H251195   2.268   7.067   3.767
16985WAT      O51196   2.002   9.761   5.041
16985WAT     H151197   1.965   9.720   5.125
16985WAT     H251198   1.962   9.852   5.029
16986WAT      O51199   6.170   4.634   6.698
16986WAT     H151200   6.086   4.678   6.667
16986WAT     H251201   6.193   4.667   6.789
16987WAT      O51202   1.580   6.989   3.790
16987WAT     H151203   1.596   6.981   3.888
16987WAT     H251204   1.665   6.970   3.741
16988WAT      O51205   7.870   9.796   3.216
16988WAT     H151206   7.869   9.728   3.143
16988WAT     H251207   7.951   9.854   3.206
16989WAT      O51208   9.326   9.473   1.875
16989WAT     H151209   9.318   9.528   1.792
16989WAT     H251210   9.386   9.521   1.940
16990WAT      O51211   8.291   6.111   1.959
16990WAT     H151212   8.309   6.039   1.892
16990WAT     H251213   8.229   6.179   1.919
16991WAT      O51214   0.067   7.568   6.736
16991WAT     H151215   0.019   7.515   6.806
16991WAT     H251216   0.157   7.528   6.721
16992WAT      O51217   3.944   6.356   4.715
16992WAT     H151218   3.902   6.268   4.739
16992WAT     H251219   4.040   6.341   4.690
16993WAT      O51220   5.081   7.975   3.772
16993WAT     H151221   5.163   8.031   3.763
16993WAT     H251222   5.046   7.952   3.682
16994WAT      O51223   2.480   1.958   8.460
16994WAT     H151224   2.418   1.935   8.384
16994WAT     H251225   2.447   2.039   8.507
16995WAT      O51226   8.528   0.397   2.660
16995WAT     H151227   8.458   0.430   2.723
16995WAT     H251228   8.605   0.461   2.658
16996WAT      O51229   3.533   6.670   3.969
16996WAT     H151230   3.633   6.676   3.973
16996WAT     H251231   3.504   6.668   3.874
16997WAT      O51232   8.481   3.193   5.940
16997WAT     H151233   8.515   3.122   5.878
16997WAT     H251234   8.403   3.157   5.992
16998WAT      O51235   5.120   7.837   5.294
16998WAT     H151236   5.030   7.843   5.250
16998WAT     H251237   5.191   7.828   5.225
16999WAT      O51238   8.289   9.442   7.256
16999WAT     H151239   8.345   9.361   7.274
16999WAT     H251240   8.314   9.515   7.320
17000WAT      O51241   7.975   2.421   6.754
17000WAT     H151242   7.969   2.328   6.717
17000WAT     H251243   7.883   2.460   6.761
17001WAT      O51244   2.496   5.100   2.946
17001WAT     H151245   2.486   5.002   2.964
17001WAT     H251246   2.585   5.118   2.905
17002WAT      O51247   3.042   0.049   6.976
17002WAT     H151248   3.057   0.148   6.968
17002WAT     H251249   3.063   0.020   7.069
17003WAT      O51250   9.654   2.946   5.249
17003WAT     H151251   9.623   2.959   5.155
17003WAT     H251252   9.596   2.878   5.294
17004WAT      O51253   3.051   6.579   1.406
17004WAT     H151254   3.121   6.618   1.347
17004WAT     H251255   2.999   6.653   1.448
17005WAT      O51256   3.488   1.236   0.842
17005WAT     H151257   3.527   1.292   0.768
17005WAT     H251258   3.493   1.139   0.816
17006WAT      O51259   0.129   8.983   7.777
17006WAT     H151260   0.173   8.976   7.867
17006WAT     H251261   0.180   9.048   7.721
17007WAT      O51262   6.829   1.945   3.464
17007WAT     H151263   6.794   1.873   3.404
17007WAT     H251264   6.849   1.906   3.555
17008WAT      O51265   4.542   7.951   9.520
17008WAT     H151266   4.574   7.911   9.434
17008WAT     H251267   4.458   7.905   9.550
17009WAT      O51268   6.666   0.683   0.942
17009WAT     H151269   6.682   0.777   0.973
17009WAT     H251270   6.631   0.685   0.848
17010WAT      O51271   5.609   0.498   3.825
17010WAT     H151272   5.657   0.515   3.739
17010WAT     H251273   5.535   0.433   3.810
17011WAT      O51274   2.013   5.819   3.222
17011WAT     H151275   2.037   5.878   3.300
17011WAT     H251276   1.914   5.818   3.210
17012WAT      O51277   5.808   5.445   3.559
17012WAT     H151278   5.800   5.434   3.460
17012WAT     H251279   5.873   5.378   3.595
17013WAT      O51280   6.501   8.309   5.420
17013WAT     H151281   6.582   8.257   5.392
17013WAT     H251282   6.420   8.251   5.414
17014WAT      O51283   3.297   1.509   5.542
17014WAT     H151284   3.234   1.442   5.582
17014WAT     H251285   3.354   1.465   5.472
17015WAT      O51286   4.339   5.018   5.184
17015WAT     H151287   4.272   5.088   5.208
17015WAT     H251288   4.430   5.057   5.183
17016WAT      O51289   1.921   2.425   1.873
17016WAT     H151290   1.941   2.500   1.936
17016WAT     H251291   2.007   2.383   1.843
17017WAT      O51292   5.290   7.261   7.875
17017WAT     H151293   5.221   7.219   7.933
17017WAT     H251294   5.247   7.291   7.789
17018WAT      O51295   7.142   7.928   8.912
17018WAT     H151296   7.136   8.018   8.956
17018WAT     H251297   7.211   7.873   8.959
17019WAT      O51298   2.463   4.641   7.518
17019WAT     H151299   2.500   4.603   7.603
17019WAT     H251300   2.537   4.675   7.461
17020WAT      O51301   4.771   4.992   2.512
17020WAT     H151302   4.808   4.937   2.587
17020WAT     H251303   4.743   4.931   2.437
17021WAT      O51304   6.301   0.086   8.540
17021WAT     H151305   6.208   0.101   8.507
17021WAT     H251306   6.324  -0.011   8.533
17022WAT      O51307   1.857   4.564   6.623
17022WAT     H151308   1.875   4.471   6.589
17022WAT     H251309   1.919   4.629   6.579
17023WAT      O51310   6.471   7.427   1.966
17023WAT     H151311   6.373   7.442   1.954
17023WAT     H251312   6.491   7.419   2.064
17024WAT      O51313   0.885   3.437   6.294
17024WAT     H151314   0.943   3.362   6.261
17024WAT     H251315   0.790   3.409   6.292
17025WAT      O51316   6.887   1.071   2.818
17025WAT     H151317   6.967   1.121   2.851
17025WAT     H251318   6.917   1.000   2.754
17026WAT      O51319   6.571   6.749   4.734
17026WAT     H151320   6.551   6.822   4.669
17026WAT     H251321   6.610   6.788   4.817
17027WAT      O51322   1.977   6.423   8.783
17027WAT     H151323   1.893   6.382   8.818
17027WAT     H251324   1.981   6.410   8.684
17028WAT      O51325   4.567   0.131   9.294
17028WAT     H151326   4.660   0.096   9.277
17028WAT     H251327   4.521   0.145   9.206
17029WAT      O51328   1.446   2.957   2.097
17029WAT     H151329   1.488   2.979   2.009
17029WAT     H251330   1.415   2.862   2.096
17030WAT      O51331   1.713   6.194   4.731
17030WAT     H151332   1.650   6.221   4.804
17030WAT     H251333   1.701   6.255   4.652
17031WAT      O51334   2.246   6.254   2.160
17031WAT     H151335   2.159   6.236   2.205
17031WAT     H251336   2.236   6.332   2.098
17032WAT      O51337   4.378   1.600   1.944
17032WAT     H151338   4.454   1.555   1.992
17032WAT     H251339   4.409   1.629   1.853
17033WAT      O51340   0.158   6.401   0.079
17033WAT     H151341   0.101   6.482   0.064
17033WAT     H251342   0.160   6.379   0.176
17034WAT      O51343   6.719   1.155   8.883
17034WAT     H151344   6.703   1.234   8.942
17034WAT     H251345   6.726   1.186   8.788
17035WAT      O51346   9.463   5.465   2.544
17035WAT     H151347   9.484   5.477   2.640
17035WAT     H251348   9.371   5.501   2.525
17036WAT      O51349   1.808   7.746   0.654
17036WAT     H151350   1.905   7.747   0.629
17036WAT     H251351   1.780   7.653   0.677
17037WAT      O51352   6.879   3.688   9.695
17037WAT     H151353   6.856   3.747   9.771
17037WAT     H251354   6.930   3.608   9.728
17038WAT      O51355   5.742   4.082   6.561
17038WAT     H151356   5.736   4.019   6.638
17038WAT     H251357   5.691   4.044   6.483
17039WAT      O51358   8.932   2.073   8.524
17039WAT     H151359   8.889   1.986   8.499
17039WAT     H251360   9.013   2.056   8.580
17040WAT      O51361   6.745   4.352   8.186
17040WAT     H151362   6.690   4.429   8.153
17040WAT     H251363   6.689   4.269   8.186
17041WAT      O51364   3.833   8.544   9.720
17041WAT     H151365   3.920   8.506   9.750
17041WAT     H251366   3.841   8.644   9.712
17042WAT      O51367   4.742   0.371   1.913
17042WAT     H151368   4.644   0.390   1.909
17042WAT     H251369   4.771   0.366   2.008
17043WAT      O51370   9.434   6.541   8.510
17043WAT     H151371   9.531   6.536   8.535
17043WAT     H251372   9.405   6.452   8.474
17044WAT      O51373   7.240   4.330   4.761
17044WAT     H151374   7.269   4.320   4.856
17044WAT     H251375   7.303   4.392   4.714
17045WAT      O51376   1.415   0.551   6.799
17045WAT     H151377   1.362   0.543   6.715
17045WAT     H251378   1.453   0.462   6.824
17046WAT      O51379   2.087   5.677   5.875
17046WAT     H151380   2.086   5.775   5.852
17046WAT     H251381   2.002   5.655   5.924
17047WAT      O51382   0.447   8.749   8.667
17047WAT     H151383   0.485   8.842   8.664
17047WAT     H251384   0.427   8.725   8.761
17048WAT      O51385   3.151   9.050   2.794
17048WAT     H151386   3.251   9.050   2.799
17048WAT     H251387   3.121   8.996   2.716
17049WAT      O51388   4.164   7.251   5.387
17049WAT     H151389   4.160   7.155   5.412
17049WAT     H251390   4.240   7.295   5.435
17050WAT      O51391   3.717   0.381   7.900
17050WAT     H151392   3.729   0.288   7.865
17050WAT     H251393   3.750   0.446   7.832
17051WAT      O51394   0.527   4.497   4.192
17051WAT     H151395   0.585   4.548   4.256
17051WAT     H251396   0.570   4.409   4.170
17052WAT      O51397   2.781   4.944   1.187
17052WAT     H151398   2.788   4.845   1.180
17052WAT     H251399   2.761   4.982   1.096
17053WAT      O51400   9.206   5.175   2.614
17053WAT     H151401   9.277   5.122   2.660
17053WAT     H251402   9.205   5.268   2.651
17054WAT      O51403   2.702   0.347   4.999
17054WAT     H151404   2.701   0.445   5.014
17054WAT     H251405   2.631   0.323   4.933
17055WAT      O51406   6.937   7.336   9.044
17055WAT     H151407   6.907   7.364   9.136
17055WAT     H251408   6.929   7.413   8.981
17056WAT      O51409   3.127   0.612   4.513
17056WAT     H151410   3.096   0.706   4.494
17056WAT     H251411   3.064   0.570   4.579
17057WAT      O51412   9.879   8.699   4.730
17057WAT     H151413   9.825   8.763   4.675
17057WAT     H251414   9.851   8.706   4.826
17058WAT      O51415   6.185   6.985   7.075
17058WAT     H151416   6.170   7.066   7.019
17058WAT     H251417   6.099   6.935   7.085
17059WAT      O51418   8.377   4.895   1.570
17059WAT     H151419   8.435   4.815   1.552
17059WAT     H251420   8.323   4.880   1.652
17060WAT      O51421   2.861   2.578   0.126
17060WAT     H151422   2.942   2.630   0.155
17060WAT     H251423   2.889   2.486   0.100
17061WAT      O51424   5.127   7.851   8.624
17061WAT     H151425   5.083   7.918   8.565
17061WAT     H251426   5.223   7.839   8.596
17062WAT      O51427   8.445   6.861   4.820
17062WAT     H151428   8.436   6.961   4.818
17062WAT     H251429   8.454   6.827   4.727
17063WAT      O51430   9.242   9.677   6.133
17063WAT     H151431   9.303   9.746   6.093
17063WAT     H251432   9.212   9.614   6.061
17064WAT      O51433   8.223   2.292   4.878
17064WAT     H151434   8.202   2.288   4.975
17064WAT     H251435   8.139   2.283   4.824
17065WAT      O51436   4.653   2.103   7.174
17065WAT     H151437   4.635   2.105   7.076
17065WAT     H251438   4.731   2.163   7.194
17066WAT      O51439   1.359   3.215   6.048
17066WAT     H151440   1.318   3.130   6.082
17066WAT     H251441   1.426   3.248   6.115
17067WAT      O51442   5.333   2.800   9.809
17067WAT     H151443   5.331   2.714   9.757
17067WAT     H251444   5.330   2.779   9.907
17068WAT      O51445   9.484   1.409   6.986
17068WAT     H151446   9.533   1.366   6.910
17068WAT     H251447   9.549   1.436   7.057
17069WAT      O51448   4.477   7.298   5.388
17069WAT     H151449   4.522   7.269   5.304
17069WAT     H251450   4.465   7.219   5.448
17070WAT      O51451   7.178   9.618   7.247
17070WAT     H151452   7.085   9.586   7.266
17070WAT     H251453   7.215   9.666   7.327
17071WAT      O51454   8.739   3.645   9.015
17071WAT     H151455   8.827   3.616   9.054
17071WAT     H251456   8.706   3.726   9.062
17072WAT      O51457   6.542   4.968   9.650
17072WAT     H151458   6.535   5.030   9.572
17072WAT     H251459   6.618   4.997   9.708
17073WAT      O51460   5.569   3.243   8.165
17073WAT     H151461   5.560   3.162   8.223
17073WAT     H251462   5.608   3.318   8.219
17074WAT      O51463   3.447   6.810   2.855
17074WAT     H151464   3.492   6.889   2.811
17074WAT     H251465   3.504   6.729   2.842
17075WAT      O51466   6.456   0.509   1.736
17075WAT     H151467   6.474   0.415   1.707
17075WAT     H251468   6.370   0.540   1.696
17076WAT      O51469   2.327   3.585   0.723
17076WAT     H151470   2.365   3.675   0.745
17076WAT     H251471   2.231   3.582   0.751
17077WAT      O51472   5.680   2.656   5.122
17077WAT     H151473   5.705   2.732   5.062
17077WAT     H251474   5.735   2.659   5.205
17078WAT      O51475   0.949   9.696   1.147
17078WAT     H151476   0.953   9.780   1.093
17078WAT     H251477   1.008   9.627   1.105
17079WAT      O51478   7.950   5.221   3.815
17079WAT     H151479   8.038   5.197   3.857
17079WAT     H251480   7.967   5.275   3.732
17080WAT      O51481   2.512   7.077   6.400
17080WAT     H151482   2.518   7.128   6.314
17080WAT     H251483   2.591   7.015   6.407
17081WAT      O51484   7.991   3.504   9.779
17081WAT     H151485   8.061   3.572   9.802
17081WAT     H251486   7.931   3.541   9.708
17082WAT      O51487   8.298   6.086   2.626
17082WAT     H151488   8.321   6.017   2.695
17082WAT     H251489   8.208   6.123   2.645
17083WAT      O51490   1.171   6.890   0.299
17083WAT     H151491   1.091   6.865   0.246
17083WAT     H251492   1.164   6.987   0.326
17084WAT      O51493   3.859   9.754   8.881
17084WAT     H151494   3.780   9.806   8.850
17084WAT     H251495   3.861   9.753   8.981
17085WAT      O51496   4.388   2.316   3.231
17085WAT     H151497   4.414   2.378   3.157
17085WAT     H251498   4.361   2.368   3.311
17086WAT      O51499   4.845   1.814   1.192
17086WAT     H151500   4.823   1.782   1.284
17086WAT     H251501   4.942   1.802   1.174
17087WAT      O51502   1.190   5.265   6.167
17087WAT     H151503   1.112   5.316   6.133
17087WAT     H251504   1.169   5.229   6.258
17088WAT      O51505   2.189   6.540   8.898
17088WAT     H151506   2.256   6.534   8.824
17088WAT     H251507   2.107   6.488   8.872
17089WAT      O51508   0.613   9.301   8.412
17089WAT     H151509   0.543   9.307   8.341
17089WAT     H251510   0.654   9.391   8.426
17090WAT      O51511   9.221   8.921   7.152
17090WAT     H151512   9.161   8.885   7.224
17090WAT     H251513   9.278   8.848   7.116
17091WAT      O51514   2.350   4.290   6.374
17091WAT     H151515   2.343   4.254   6.280
17091WAT     H251516   2.268   4.342   6.396
17092WAT      O51517   6.977   5.492   4.352
17092WAT     H151518   6.969   5.592   4.350
17092WAT     H251519   6.895   5.451   4.312
17093WAT      O51520   3.028   0.710   0.384
17093WAT     H151521   3.070   0.670   0.465
17093WAT     H251522   2.965   0.782   0.411
17094WAT      O51523   6.769   1.758   2.913
17094WAT     H151524   6.747   1.664   2.887
17094WAT     H251525   6.768   1.816   2.832
17095WAT      O51526   3.092   7.469   5.260
17095WAT     H151527   3.152   7.495   5.184
17095WAT     H251528   3.096   7.370   5.274
17096WAT      O51529   4.633   5.793   2.692
17096WAT     H151530   4.564   5.731   2.728
17096WAT     H251531   4.680   5.838   2.768
17097WAT      O51532   7.566   5.043   7.915
17097WAT     H151533   7.475   5.020   7.880
17097WAT     H251534   7.618   4.959   7.930
17098WAT      O51535   2.572   3.307   9.230
17098WAT     H151536   2.565   3.407   9.224
17098WAT     H251537   2.482   3.269   9.253
17099WAT      O51538   4.469   6.356   9.531
17099WAT     H151539   4.408   6.278   9.526
17099WAT     H251540   4.443   6.415   9.608
17100WAT      O51541   9.345   2.040   0.912
17100WAT     H151542   9.421   2.007   0.856
17100WAT     H251543   9.380   2.102   0.982
17101WAT      O51544   0.674   1.794   4.185
17101WAT     H151545   0.709   1.820   4.275
17101WAT     H251546   0.691   1.868   4.120
17102WAT      O51547   6.925   1.852   9.039
17102WAT     H151548   6.937   1.821   9.133
17102WAT     H251549   7.000   1.817   8.983
17103WAT      O51550   4.299   6.058   8.533
17103WAT     H151551   4.348   5.981   8.492
17103WAT     H251552   4.350   6.142   8.516
17104WAT      O51553   7.842   7.975   3.153
17104WAT     H151554   7.873   8.058   3.106
17104WAT     H251555   7.763   7.937   3.105
17105WAT      O51556   8.529   1.217   6.647
17105WAT     H151557   8.543   1.137   6.589
17105WAT     H251558   8.483   1.289   6.594
17106WAT      O51559   5.823   0.524   2.144
17106WAT     H151560   5.793   0.439   2.102
17106WAT     H251561   5.904   0.558   2.096
17107WAT      O51562   2.125   5.638   5.531
17107WAT     H151563   2.126   5.596   5.621
17107WAT     H251564   2.043   5.609   5.481
17108WAT      O51565   7.818   5.599   1.594
17108WAT     H151566   7.724   5.631   1.607
17108WAT     H251567   7.871   5.616   1.677
17109WAT      O51568   3.154   9.650   5.092
17109WAT     H151569   3.245   9.635   5.131
17109WAT     H251570   3.094   9.687   5.162
17110WAT      O51571   6.523   7.973   9.424
17110WAT     H151572   6.435   7.960   9.471
17110WAT     H251573   6.513   8.040   9.351
17111WAT      O51574   7.474   0.631   2.538
17111WAT     H151575   7.390   0.636   2.593
17111WAT     H251576   7.449   0.625   2.441
17112WAT      O51577   9.820   2.105   0.495
17112WAT     H151578   9.725   2.105   0.464
17112WAT     H251579   9.872   2.037   0.445
17113WAT      O51580   6.735   2.086   2.423
17113WAT     H151581   6.823   2.046   2.400
17113WAT     H251582   6.663   2.019   2.405
17114WAT      O51583   7.900   0.540   5.191
17114WAT     H151584   7.840   0.479   5.243
17114WAT     H251585   7.872   0.541   5.095
17115WAT      O51586   5.852   1.833   3.323
17115WAT     H151587   5.815   1.761   3.264
17115WAT     H251588   5.804   1.833   3.410
17116WAT      O51589   1.631   0.345   7.762
17116WAT     H151590   1.679   0.432   7.774
17116WAT     H251591   1.697   0.275   7.734
17117WAT      O51592   8.546   2.208   5.291
17117WAT     H151593   8.489   2.278   5.334
17117WAT     H251594   8.509   2.186   5.201
17118WAT      O51595   0.395   3.355   1.452
17118WAT     H151596   0.493   3.348   1.433
17118WAT     H251597   0.361   3.267   1.486
17119WAT      O51598   3.077   5.015   4.016
17119WAT     H151599   3.122   5.072   3.947
17119WAT     H251600   3.145   4.964   4.068
17120WAT      O51601   5.235   1.429   1.738
17120WAT     H151602   5.219   1.479   1.823
17120WAT     H251603   5.330   1.398   1.735
17121WAT      O51604   2.291   9.196   0.368
17121WAT     H151605   2.290   9.296   0.368
17121WAT     H251606   2.215   9.162   0.424
17122WAT      O51607   7.960   7.636   8.400
17122WAT     H151608   7.970   7.597   8.492
17122WAT     H251609   7.885   7.701   8.399
17123WAT      O51610   3.486   5.160   0.718
17123WAT     H151611   3.556   5.228   0.697
17123WAT     H251612   3.454   5.118   0.633
17124WAT      O51613   0.156   7.297   1.272
17124WAT     H151614   0.171   7.337   1.181
17124WAT     H251615   0.240   7.253   1.304
17125WAT      O51616   1.495   5.570   7.692
17125WAT     H151617   1.490   5.663   7.656
17125WAT     H251618   1.409   5.522   7.675
17126WAT      O51619   4.107   7.281   8.522
17126WAT     H151620   4.176   7.210   8.533
17126WAT     H251621   4.150   7.364   8.486
17127WAT      O51622   3.598   2.304   2.302
17127WAT     H151623   3.526   2.336   2.364
17127WAT     H251624   3.638   2.220   2.338
17128WAT      O51625   8.422   0.148   6.852
17128WAT     H151626   8.485   0.108   6.919
17128WAT     H251627   8.345   0.190   6.899
17129WAT      O51628   5.144   7.501   2.550
17129WAT     H151629   5.131   7.485   2.648
17129WAT     H251630   5.123   7.597   2.529
17130WAT      O51631   3.864   6.291   8.445
17130WAT     H151632   3.855   6.350   8.364
17130WAT     H251633   3.774   6.255   8.470
17131WAT      O51634   7.302   0.106   6.757
17131WAT     H151635   7.231   0.058   6.706
17131WAT     H251636   7.356   0.039   6.809
17132WAT      O51637   7.568   7.502   4.608
17132WAT     H151638   7.582   7.404   4.615
17132WAT     H251639   7.471   7.521   4.592
17133WAT      O51640   2.123   5.364   6.178
17133WAT     H151641   2.194   5.363   6.248
17133WAT     H251642   2.162   5.400   6.092
17134WAT      O51643   0.587   0.734   8.994
17134WAT     H151644   0.595   0.833   8.997
17134WAT     H251645   0.490   0.708   8.998
17135WAT      O51646   4.826   8.395   0.517
17135WAT     H151647   4.838   8.372   0.420
17135WAT     H251648   4.840   8.313   0.572
17136WAT      O51649   0.078   5.493   5.818
17136WAT     H151650   0.135   5.546   5.881
17136WAT     H251651   0.031   5.556   5.756
17137WAT      O51652   3.384   9.394   6.347
17137WAT     H151653   3.324   9.467   6.382
17137WAT     H251654   3.427   9.424   6.263
17138WAT      O51655   8.293   1.398   1.460
17138WAT     H151656   8.255   1.306   1.457
17138WAT     H251657   8.379   1.397   1.512
17139WAT      O51658   0.950   1.220   1.510
17139WAT     H151659   0.896   1.271   1.576
17139WAT     H251660   0.963   1.126   1.542
17140WAT      O51661   0.828   7.251   1.422
17140WAT     H151662   0.768   7.257   1.342
17140WAT     H251663   0.808   7.167   1.472
17141WAT      O51664   5.981   9.496   6.231
17141WAT     H151665   5.916   9.426   6.261
17141WAT     H251666   5.939   9.586   6.236
17142WAT      O51667   6.651   9.506   6.681
17142WAT     H151668   6.659   9.594   6.635
17142WAT     H251669   6.555   9.479   6.686
17143WAT      O51670   6.943   9.210   0.617
17143WAT     H151671   6.846   9.204   0.640
17143WAT     H251672   6.988   9.124   0.640
17144WAT      O51673   9.054   5.498   1.810
17144WAT     H151674   9.136   5.505   1.867
17144WAT     H251675   9.081   5.482   1.715
17145WAT      O51676   7.576   9.295   3.016
17145WAT     H151677   7.536   9.231   3.081
17145WAT     H251678   7.543   9.274   2.924
17146WAT      O51679   0.728   2.761   9.095
17146WAT     H151680   0.804   2.754   9.031
17146WAT     H251681   0.643   2.780   9.045
17147WAT      O51682   0.607   2.690   6.691
17147WAT     H151683   0.600   2.759   6.619
17147WAT     H251684   0.516   2.652   6.710
17148WAT      O51685   2.713   1.943   7.156
17148WAT     H151686   2.789   2.007   7.157
17148WAT     H251687   2.681   1.928   7.250
17149WAT      O51688   0.477   8.362   9.350
17149WAT     H151689   0.572   8.383   9.373
17149WAT     H251690   0.466   8.355   9.251
17150WAT      O51691   3.275   5.303   0.860
17150WAT     H151692   3.275   5.265   0.953
17150WAT     H251693   3.340   5.252   0.804
17151WAT      O51694   9.706   1.225   3.520
17151WAT     H151695   9.609   1.216   3.498
17151WAT     H251696   9.735   1.150   3.579
17152WAT      O51697   1.080   7.588   7.440
17152WAT     H151698   1.073   7.597   7.539
17152WAT     H251699   0.999   7.630   7.397
17153WAT      O51700   6.310   5.569   9.231
17153WAT     H151701   6.262   5.640   9.180
17153WAT     H251702   6.337   5.496   9.168
17154WAT      O51703   2.964   6.910   5.533
17154WAT     H151704   2.899   6.857   5.587
17154WAT     H251705   3.036   6.850   5.498
17155WAT      O51706   5.665   3.133   6.812
17155WAT     H151707   5.599   3.156   6.741
17155WAT     H251708   5.617   3.112   6.897
17156WAT      O51709   4.942   3.000   2.844
17156WAT     H151710   4.995   3.008   2.929
17156WAT     H251711   4.967   2.916   2.796
17157WAT      O51712   8.747   0.685   2.366
17157WAT     H151713   8.821   0.727   2.419
17157WAT     H251714   8.692   0.757   2.322
17158WAT      O51715   9.029   4.513   3.867
17158WAT     H151716   9.007   4.560   3.781
17158WAT     H251717   8.948   4.508   3.924
17159WAT      O51718   6.603   5.189   3.128
17159WAT     H151719   6.594   5.126   3.205
17159WAT     H251720   6.603   5.137   3.043
17160WAT      O51721   0.839   5.513   0.322
17160WAT     H151722   0.872   5.587   0.380
17160WAT     H251723   0.828   5.430   0.376
17161WAT      O51724   7.587   6.003   8.279
17161WAT     H151725   7.619   6.036   8.190
17161WAT     H251726   7.585   6.078   8.344
17162WAT      O51727   4.438   6.516   9.787
17162WAT     H151728   4.536   6.494   9.787
17162WAT     H251729   4.426   6.613   9.803
17163WAT      O51730   6.262   4.640   8.965
17163WAT     H151731   6.275   4.584   8.883
17163WAT     H251732   6.238   4.733   8.939
17164WAT      O51733   8.408   9.824   0.338
17164WAT     H151734   8.458   9.865   0.414
17164WAT     H251735   8.392   9.894   0.267
17165WAT      O51736   2.659   1.016   4.047
17165WAT     H151737   2.585   1.081   4.061
17165WAT     H251738   2.647   0.971   3.959
17166WAT      O51739   7.810   3.412   6.953
17166WAT     H151740   7.782   3.319   6.976
17166WAT     H251741   7.774   3.436   6.863
17167WAT      O51742   3.748   7.653   7.703
17167WAT     H151743   3.697   7.716   7.645
17167WAT     H251744   3.845   7.661   7.683
17168WAT      O51745   6.686   8.563   6.367
17168WAT     H151746   6.759   8.531   6.307
17168WAT     H251747   6.649   8.650   6.331
17169WAT      O51748   9.828   4.097   8.885
17169WAT     H151749   9.760   4.043   8.835
17169WAT     H251750   9.880   4.036   8.946
17170WAT      O51751   3.580   0.768   3.032
17170WAT     H151752   3.571   0.854   2.982
17170WAT     H251753   3.604   0.695   2.969
17171WAT      O51754   4.407   0.122   1.239
17171WAT     H151755   4.404   0.203   1.297
17171WAT     H251756   4.445   0.045   1.290
17172WAT      O51757   5.984   6.753   9.265
17172WAT     H151758   6.044   6.698   9.323
17172WAT     H251759   5.892   6.753   9.304
17173WAT      O51760   7.707   5.521   0.649
17173WAT     H151761   7.780   5.467   0.692
17173WAT     H251762   7.665   5.467   0.576
17174WAT      O51763   8.243   4.868   3.228
17174WAT     H151764   8.211   4.962   3.236
17174WAT     H251765   8.242   4.841   3.132
17175WAT      O51766   8.053   2.956   0.739
17175WAT     H151767   8.093   2.960   0.830
17175WAT     H251768   8.125   2.944   0.671
17176WAT      O51769   8.016   8.551   2.935
17176WAT     H151770   7.954   8.597   2.872
17176WAT     H251771   7.969   8.530   3.020
17177WAT      O51772   3.189   5.917   4.783
17177WAT     H151773   3.145   5.828   4.786
17177WAT     H251774   3.208   5.942   4.688
17178WAT      O51775   0.363   7.113   6.353
17178WAT     H151776   0.443   7.098   6.295
17178WAT     H251777   0.280   7.111   6.298
17179WAT      O51778   5.081   0.937   5.880
17179WAT     H151779   5.060   0.863   5.943
17179WAT     H251780   5.149   0.907   5.814
17180WAT      O51781   4.383   7.561   6.426
17180WAT     H151782   4.342   7.625   6.361
17180WAT     H251783   4.436   7.611   6.494
17181WAT      O51784   0.865   0.590   1.603
17181WAT     H151785   0.790   0.649   1.631
17181WAT     H251786   0.830   0.501   1.574
17182WAT      O51787   6.378   2.652   0.017
17182WAT     H151788   6.449   2.702   0.067
17182WAT     H251789   6.334   2.586   0.078
17183WAT      O51790   6.284   8.229   6.100
17183WAT     H151791   6.382   8.206   6.095
17183WAT     H251792   6.236   8.185   6.025
17184WAT      O51793   5.820   5.225   8.726
17184WAT     H151794   5.747   5.160   8.708
17184WAT     H251795   5.816   5.299   8.660
17185WAT      O51796   8.992   8.940   8.422
17185WAT     H151797   8.910   8.986   8.389
17185WAT     H251798   9.048   8.912   8.344
17186WAT      O51799   4.265   2.316   5.292
17186WAT     H151800   4.345   2.355   5.338
17186WAT     H251801   4.289   2.293   5.198
17187WAT      O51802   1.224   2.689   4.886
17187WAT     H151803   1.254   2.696   4.790
17187WAT     H251804   1.176   2.773   4.912
17188WAT      O51805   7.744   2.123   8.168
17188WAT     H151806   7.812   2.112   8.096
17188WAT     H251807   7.759   2.210   8.216
17189WAT      O51808   0.851   8.072   1.700
17189WAT     H151809   0.817   8.005   1.634
17189WAT     H251810   0.867   8.028   1.788
17190WAT      O51811   1.681   3.462   7.964
17190WAT     H151812   1.616   3.423   7.899
17190WAT     H251813   1.673   3.415   8.052
17191WAT      O51814   2.335   9.346   9.797
17191WAT     H151815   2.355   9.253   9.766
17191WAT     H251816   2.242   9.350   9.832
17192WAT      O51817   0.788   6.877   7.170
17192WAT     H151818   0.759   6.823   7.090
17192WAT     H251819   0.741   6.843   7.252
17193WAT      O51820   7.660   1.514   9.269
17193WAT     H151821   7.755   1.521   9.237
17193WAT     H251822   7.646   1.576   9.346
17194WAT      O51823   3.775   6.629   6.114
17194WAT     H151824   3.796   6.640   6.017
17194WAT     H251825   3.715   6.550   6.127
17195WAT      O51826   5.584   7.695   0.416
17195WAT     H151827   5.553   7.605   0.446
17195WAT     H251828   5.507   7.759   0.414
17196WAT      O51829   2.221   5.980   4.427
17196WAT     H151830   2.274   5.910   4.380
17196WAT     H251831   2.266   6.069   4.418
17197WAT      O51832   6.377   4.949   5.882
17197WAT     H151833   6.384   4.953   5.982
17197WAT     H251834   6.408   4.859   5.850
17198WAT      O51835   2.368   8.938   1.234
17198WAT     H151836   2.338   8.998   1.159
17198WAT     H251837   2.463   8.958   1.256
17199WAT      O51838   2.308   3.923   3.235
17199WAT     H151839   2.280   3.978   3.314
17199WAT     H251840   2.229   3.904   3.178
17200WAT      O51841   3.912   5.734   9.581
17200WAT     H151842   3.961   5.724   9.494
17200WAT     H251843   3.822   5.691   9.573
17201WAT      O51844   3.890   5.487   6.748
17201WAT     H151845   3.888   5.487   6.848
17201WAT     H251846   3.886   5.581   6.715
17202WAT      O51847   8.127   1.923   6.922
17202WAT     H151848   8.094   1.846   6.976
17202WAT     H251849   8.123   2.006   6.976
17203WAT      O51850   9.386   7.532   8.277
17203WAT     H151851   9.382   7.435   8.253
17203WAT     H251852   9.405   7.541   8.375
17204WAT      O51853   5.574   7.819   2.145
17204WAT     H151854   5.629   7.893   2.184
17204WAT     H251855   5.633   7.741   2.126
17205WAT      O51856   5.236   5.264   2.700
17205WAT     H151857   5.199   5.334   2.760
17205WAT     H251858   5.335   5.256   2.716
17206WAT      O51859   9.309   0.555   9.528
17206WAT     H151860   9.220   0.517   9.504
17206WAT     H251861   9.370   0.481   9.557
17207WAT      O51862   4.501   0.997   4.654
17207WAT     H151863   4.581   0.938   4.636
17207WAT     H251864   4.420   0.955   4.614
17208WAT      O51865   7.853   8.186   4.172
17208WAT     H151866   7.913   8.258   4.207
17208WAT     H251867   7.903   8.100   4.168
17209WAT      O51868   1.967   5.967   8.825
17209WAT     H151869   1.915   5.884   8.804
17209WAT     H251870   2.065   5.945   8.829
17210WAT      O51871   0.771   7.145   4.810
17210WAT     H151872   0.704   7.153   4.737
17210WAT     H251873   0.751   7.063   4.864
17211WAT      O51874   2.299   8.310   6.654
17211WAT     H151875   2.358   8.390   6.643
17211WAT     H251876   2.203   8.340   6.656
17212WAT      O51877   1.853   1.311   9.605
17212WAT     H151878   1.824   1.261   9.524
17212WAT     H251879   1.947   1.342   9.592
17213WAT      O51880   1.363   0.993   7.109
17213WAT     H151881   1.378   0.946   7.196
17213WAT     H251882   1.401   1.085   7.114
17214WAT      O51883   9.098   4.930   3.188
17214WAT     H151884   9.002   4.914   3.206
17214WAT     H251885   9.131   4.864   3.121
17215WAT      O51886   9.879   7.054   4.788
17215WAT     H151887   9.898   7.046   4.886
17215WAT     H251888   9.833   6.971   4.756
17216WAT      O51889   3.965   4.727   7.481
17216WAT     H151890   3.871   4.701   7.503
17216WAT     H251891   3.979   4.823   7.505
17217WAT      O51892   3.392   4.159   6.900
17217WAT     H151893   3.402   4.245   6.951
17217WAT     H251894   3.327   4.172   6.825
17218WAT      O51895   7.196   5.613   2.615
17218WAT     H151896   7.236   5.616   2.706
17218WAT     H251897   7.215   5.524   2.573
17219WAT      O51898   2.096   3.066   9.641
17219WAT     H151899   2.072   2.990   9.581
17219WAT     H251900   2.127   3.030   9.729
17220WAT      O51901   7.558   1.837   4.690
17220WAT     H151902   7.496   1.773   4.734
17220WAT     H251903   7.629   1.787   4.641
17221WAT      O51904   8.418   1.751   6.086
17221WAT     H151905   8.388   1.658   6.108
17221WAT     H251906   8.459   1.752   5.996
17222WAT      O51907   9.112   1.771   7.081
17222WAT     H151908   9.031   1.779   7.022
17222WAT     H251909   9.130   1.675   7.101
17223WAT      O51910   7.039   7.772   3.242
17223WAT     H151911   7.122   7.718   3.231
17223WAT     H251912   7.004   7.798   3.152
17224WAT      O51913   6.121   7.637   9.018
17224WAT     H151914   6.076   7.609   9.103
17224WAT     H251915   6.200   7.695   9.039
17225WAT      O51916   4.575   8.093   7.894
17225WAT     H151917   4.655   8.133   7.849
17225WAT     H251918   4.492   8.130   7.853
17226WAT      O51919   2.938   2.056   4.523
17226WAT     H151920   2.964   2.132   4.583
17226WAT     H251921   3.019   2.003   4.498
17227WAT      O51922   7.248   2.005   5.185
17227WAT     H151923   7.290   1.948   5.256
17227WAT     H251924   7.154   2.028   5.211
17228WAT      O51925   7.880   6.524   2.132
17228WAT     H151926   7.953   6.572   2.083
17228WAT     H251927   7.895   6.530   2.230
17229WAT      O51928   7.752   7.557   9.361
17229WAT     H151929   7.728   7.602   9.447
17229WAT     H251930   7.669   7.525   9.315
17230WAT      O51931   5.150   3.854   3.510
17230WAT     H151932   5.108   3.910   3.439
17230WAT     H251933   5.250   3.862   3.505
17231WAT      O51934   5.319   3.954   3.905
17231WAT     H151935   5.245   3.893   3.877
17231WAT     H251936   5.305   3.980   4.001
17232WAT      O51937   3.873   8.824   7.953
17232WAT     H151938   3.879   8.747   8.016
17232WAT     H251939   3.846   8.792   7.863
17233WAT      O51940   9.136   8.854   5.207
17233WAT     H151941   9.207   8.864   5.137
17233WAT     H251942   9.164   8.783   5.272
17234WAT      O51943   0.615   1.742   0.998
17234WAT     H151944   0.632   1.645   0.986
17234WAT     H251945   0.599   1.785   0.908
17235WAT      O51946   7.248   0.650   5.812
17235WAT     H151947   7.207   0.595   5.739
17235WAT     H251948   7.347   0.651   5.801
17236WAT      O51949   7.066   1.460   2.663
17236WAT     H151950   7.138   1.405   2.705
17236WAT     H251951   7.047   1.424   2.571
17237WAT      O51952   8.362   8.740   4.811
17237WAT     H151953   8.355   8.839   4.796
17237WAT     H251954   8.389   8.722   4.906
17238WAT      O51955   5.901   6.819   8.344
17238WAT     H151956   5.817   6.809   8.398
17238WAT     H251957   5.958   6.890   8.385
17239WAT      O51958   6.388   7.138   4.173
17239WAT     H151959   6.469   7.079   4.171
17239WAT     H251960   6.417   7.234   4.171
17240WAT      O51961   1.238   5.292   4.264
17240WAT     H151962   1.300   5.359   4.222
17240WAT     H251963   1.179   5.253   4.194
17241WAT      O51964   8.116   2.361   4.040
17241WAT     H151965   8.116   2.351   4.139
17241WAT     H251966   8.039   2.309   4.002
17242WAT      O51967   9.256   1.198   1.465
17242WAT     H151968   9.246   1.201   1.565
17242WAT     H251969   9.281   1.105   1.437
17243WAT      O51970   5.636   1.447   6.499
17243WAT     H151971   5.546   1.473   6.533
17243WAT     H251972   5.663   1.510   6.427
17244WAT      O51973   1.582   7.875   0.876
17244WAT     H151974   1.539   7.850   0.789
17244WAT     H251975   1.642   7.954   0.863
17245WAT      O51976   1.551   8.588   3.101
17245WAT     H151977   1.584   8.560   3.011
17245WAT     H251978   1.454   8.566   3.110
17246WAT      O51979   5.938   1.065   0.190
17246WAT     H151980   5.884   0.997   0.240
17246WAT     H251981   5.984   1.125   0.255
17247WAT      O51982   3.836   5.137   7.921
17247WAT     H151983   3.867   5.043   7.902
17247WAT     H251984   3.820   5.147   8.019
17248WAT      O51985   7.341   4.508   1.921
17248WAT     H151986   7.327   4.472   2.013
17248WAT     H251987   7.257   4.553   1.889
17249WAT      O51988   2.424   2.085   6.845
17249WAT     H151989   2.346   2.101   6.785
17249WAT     H251990   2.503   2.057   6.790
17250WAT      O51991   1.834   6.021   3.415
17250WAT     H151992   1.845   6.117   3.391
17250WAT     H251993   1.744   5.989   3.385
17251WAT      O51994   6.992   5.673   6.070
17251WAT     H151995   6.904   5.717   6.090
17251WAT     H251996   7.026   5.627   6.152
17252WAT      O51997   3.508   6.992   2.229
17252WAT     H151998   3.538   7.072   2.281
17252WAT     H251999   3.519   7.010   2.131
17253WAT      O52000   8.428   5.325   2.422
17253WAT     H152001   8.524   5.348   2.408
17253WAT     H252002   8.370   5.402   2.396
17254WAT      O52003   3.650   4.051   6.984
17254WAT     H152004   3.559   4.078   6.951
17254WAT     H252005   3.667   3.955   6.960
17255WAT      O52006   0.270   4.915   1.822
17255WAT     H152007   0.279   4.923   1.922
17255WAT     H252008   0.340   4.853   1.787
17256WAT      O52009   7.869   2.655   9.501
17256WAT     H152010   7.820   2.698   9.577
17256WAT     H252011   7.903   2.565   9.530
17257WAT      O52012   3.174   8.376   3.138
17257WAT     H152013   3.233   8.398   3.060
17257WAT     H252014   3.080   8.362   3.106
17258WAT      O52015   5.921   7.055   9.820
17258WAT     H152016   5.905   7.007   9.907
17258WAT     H252017   6.007   7.107   9.826
17259WAT      O52018   2.313   1.977   5.407
17259WAT     H152019   2.338   2.056   5.352
17259WAT     H252020   2.238   1.927   5.363
17260WAT      O52021   5.792   2.431   4.996
17260WAT     H152022   5.753   2.516   5.033
17260WAT     H252023   5.784   2.358   5.064
17261WAT      O52024   6.063   2.140   5.164
17261WAT     H152025   6.104   2.217   5.213
17261WAT     H252026   5.964   2.155   5.158
17262WAT      O52027   0.143   6.389   5.385
17262WAT     H152028   0.097   6.311   5.428
17262WAT     H252029   0.210   6.356   5.319
17263WAT      O52030   9.172   9.184   8.228
17263WAT     H152031   9.140   9.227   8.144
17263WAT     H252032   9.123   9.224   8.306
17264WAT      O52033   0.411   6.638   5.065
17264WAT     H152034   0.327   6.692   5.061
17264WAT     H252035   0.457   6.641   4.977
17265WAT      O52036   3.376   1.973   2.236
17265WAT     H152037   3.333   1.994   2.148
17265WAT     H252038   3.354   1.879   2.263
17266WAT      O52039   5.019   7.409   3.242
17266WAT     H152040   5.068   7.435   3.326
17266WAT     H252041   4.939   7.354   3.265
17267WAT      O52042   4.697   9.266   5.337
17267WAT     H152043   4.680   9.214   5.253
17267WAT     H252044   4.654   9.356   5.331
17268WAT      O52045   6.640   2.611   3.780
17268WAT     H152046   6.724   2.566   3.751
17268WAT     H252047   6.618   2.582   3.874
17269WAT      O52048   8.462   0.861   0.253
17269WAT     H152049   8.419   0.772   0.243
17269WAT     H252050   8.557   0.857   0.223
17270WAT      O52051   6.658   8.944   5.279
17270WAT     H152052   6.692   8.982   5.365
17270WAT     H252053   6.593   8.871   5.298
17271WAT      O52054   6.412   1.461   6.877
17271WAT     H152055   6.314   1.471   6.890
17271WAT     H252056   6.452   1.417   6.957
17272WAT      O52057   6.793   8.196   1.069
17272WAT     H152058   6.695   8.214   1.067
17272WAT     H252059   6.828   8.208   1.162
17273WAT      O52060   6.831   9.566   7.977
17273WAT     H152061   6.753   9.569   7.914
17273WAT     H252062   6.810   9.621   8.058
17274WAT      O52063   8.454   6.624   5.456
17274WAT     H152064   8.451   6.628   5.356
17274WAT     H252065   8.428   6.532   5.485
17275WAT      O52066   6.046   1.785   0.031
17275WAT     H152067   5.980   1.726   0.077
17275WAT     H252068   6.036   1.879   0.063
17276WAT      O52069   2.112   2.388   2.864
17276WAT     H152070   2.202   2.424   2.838
17276WAT     H252071   2.107   2.378   2.963
17277WAT      O52072   9.106   8.339   6.607
17277WAT     H152073   9.103   8.417   6.545
17277WAT     H252074   9.096   8.255   6.554
17278WAT      O52075   3.152   2.026   6.254
17278WAT     H152076   3.230   1.963   6.254
17278WAT     H252077   3.091   2.002   6.179
17279WAT      O52078   5.159   8.635   2.422
17279WAT     H152079   5.210   8.709   2.465
17279WAT     H252080   5.076   8.616   2.476
17280WAT      O52081   1.225   9.507   9.182
17280WAT     H152082   1.239   9.411   9.160
17280WAT     H252083   1.159   9.515   9.256
17281WAT      O52084   4.452   9.676   2.870
17281WAT     H152085   4.506   9.615   2.928
17281WAT     H252086   4.378   9.716   2.923
17282WAT      O52087   0.879   8.052   6.324
17282WAT     H152088   0.928   8.102   6.395
17282WAT     H252089   0.791   8.020   6.361
17283WAT      O52090   3.162   8.684   7.538
17283WAT     H152091   3.179   8.654   7.443
17283WAT     H252092   3.080   8.640   7.572
17284WAT      O52093   5.899   7.972   6.293
17284WAT     H152094   5.880   8.066   6.322
17284WAT     H252095   5.815   7.918   6.297
17285WAT      O52096   0.305   1.150   3.334
17285WAT     H152097   0.384   1.109   3.287
17285WAT     H252098   0.297   1.246   3.306
17286WAT      O52099   4.530   6.823   8.357
17286WAT     H152100   4.581   6.820   8.272
17286WAT     H252101   4.582   6.874   8.426
17287WAT      O52102   3.785   6.203   7.032
17287WAT     H152103   3.736   6.118   7.055
17287WAT     H252104   3.721   6.279   7.035
17288WAT      O52105   8.573   3.833   2.245
17288WAT     H152106   8.667   3.834   2.212
17288WAT     H252107   8.511   3.854   2.170
17289WAT      O52108   8.979   7.910   8.675
17289WAT     H152109   8.971   8.010   8.670
17289WAT     H252110   9.071   7.885   8.705
17290WAT      O52111   8.528   1.541   4.456
17290WAT     H152112   8.449   1.603   4.445
17290WAT     H252113   8.559   1.544   4.551
17291WAT      O52114   0.522   8.093   7.150
17291WAT     H152115   0.461   8.019   7.121
17291WAT     H252116   0.607   8.088   7.098
17292WAT      O52117   3.216   5.510   3.887
17292WAT     H152118   3.232   5.503   3.788
17292WAT     H252119   3.119   5.532   3.902
17293WAT      O52120   0.423   0.167   0.868
17293WAT     H152121   0.464   0.257   0.851
17293WAT     H252122   0.356   0.147   0.797
17294WAT      O52123   4.108   5.241   7.643
17294WAT     H152124   4.053   5.319   7.674
17294WAT     H252125   4.202   5.252   7.674
17295WAT      O52126   4.072   4.330   0.947
17295WAT     H152127   4.082   4.354   1.044
17295WAT     H252128   3.976   4.308   0.928
17296WAT      O52129   3.079   1.298   5.297
17296WAT     H152130   2.983   1.297   5.325
17296WAT     H252131   3.113   1.392   5.296
17297WAT      O52132   4.203   9.008   2.308
17297WAT     H152133   4.281   9.007   2.371
17297WAT     H252134   4.236   9.000   2.214
17298WAT      O52135   0.553   6.786   0.964
17298WAT     H152136   0.466   6.750   1.000
17298WAT     H252137   0.619   6.711   0.957
17299WAT      O52138   5.226   2.188   5.413
17299WAT     H152139   5.169   2.162   5.491
17299WAT     H252140   5.168   2.223   5.339
17300WAT      O52141   0.878   3.460   3.101
17300WAT     H152142   0.824   3.376   3.098
17300WAT     H252143   0.820   3.537   3.124
17301WAT      O52144   8.289   7.522   6.802
17301WAT     H152145   8.242   7.605   6.829
17301WAT     H252146   8.290   7.458   6.879
17302WAT      O52147   7.863   6.810   2.226
17302WAT     H152148   7.959   6.839   2.223
17302WAT     H252149   7.856   6.717   2.191
17303WAT      O52150   5.902   9.649   3.631
17303WAT     H152151   5.842   9.727   3.649
17303WAT     H252152   5.996   9.672   3.654
17304WAT      O52153   3.914   8.264   0.516
17304WAT     H152154   3.842   8.216   0.566
17304WAT     H252155   3.879   8.296   0.428
17305WAT      O52156   6.822   6.714   3.425
17305WAT     H152157   6.841   6.646   3.354
17305WAT     H252158   6.777   6.793   3.384
17306WAT      O52159   5.622   0.559   4.730
17306WAT     H152160   5.560   0.574   4.653
17306WAT     H252161   5.663   0.468   4.722
17307WAT      O52162   1.853   7.418   6.151
17307WAT     H152163   1.844   7.490   6.082
17307WAT     H252164   1.852   7.459   6.243
17308WAT      O52165   7.241   7.951   7.191
17308WAT     H152166   7.221   7.932   7.095
17308WAT     H252167   7.340   7.964   7.202
17309WAT      O52168   2.050   7.086   2.254
17309WAT     H152169   1.987   7.068   2.178
17309WAT     H252170   2.142   7.054   2.230
17310WAT      O52171   5.595   5.982   2.550
17310WAT     H152172   5.552   6.070   2.568
17310WAT     H252173   5.596   5.927   2.633
17311WAT      O52174   5.403   4.791   9.813
17311WAT     H152175   5.428   4.777   9.908
17311WAT     H252176   5.455   4.728   9.754
17312WAT      O52177   0.330   3.899   9.179
17312WAT     H152178   0.358   3.945   9.263
17312WAT     H252179   0.286   3.812   9.202
17313WAT      O52180   3.235   8.962   5.223
17313WAT     H152181   3.228   9.035   5.291
17313WAT     H252182   3.241   8.874   5.269
17314WAT      O52183   5.487   7.831   3.073
17314WAT     H152184   5.585   7.818   3.056
17314WAT     H252185   5.436   7.815   2.988
17315WAT      O52186   1.724   1.228   6.110
17315WAT     H152187   1.725   1.133   6.078
17315WAT     H252188   1.816   1.255   6.138
17316WAT      O52189   7.132   8.411   5.465
17316WAT     H152190   7.112   8.446   5.373
17316WAT     H252191   7.228   8.430   5.488
17317WAT      O52192   7.388   9.452   3.338
17317WAT     H152193   7.419   9.471   3.245
17317WAT     H252194   7.288   9.461   3.342
17318WAT      O52195   6.540   2.256   1.731
17318WAT     H152196   6.509   2.171   1.688
17318WAT     H252197   6.474   2.328   1.713
17319WAT      O52198   9.292   2.550   3.921
17319WAT     H152199   9.339   2.636   3.900
17319WAT     H252200   9.194   2.562   3.908
17320WAT      O52201   2.886   3.372   6.714
17320WAT     H152202   2.967   3.315   6.707
17320WAT     H252203   2.847   3.386   6.623
17321WAT      O52204   9.533   5.016   0.735
17321WAT     H152205   9.599   4.976   0.671
17321WAT     H252206   9.501   4.945   0.798
17322WAT      O52207   0.573   2.316   6.466
17322WAT     H152208   0.498   2.282   6.410
17322WAT     H252209   0.647   2.348   6.407
17323WAT      O52210   9.117   0.984   7.185
17323WAT     H152211   9.086   1.061   7.242
17323WAT     H252212   9.119   1.013   7.089
17324WAT      O52213   1.893   6.925   8.338
17324WAT     H152214   1.901   6.872   8.253
17324WAT     H252215   1.975   6.909   8.394
17325WAT      O52216   4.460   0.778   8.103
17325WAT     H152217   4.423   0.751   8.015
17325WAT     H252218   4.393   0.758   8.175
17326WAT      O52219   0.544   6.780   5.981
17326WAT     H152220   0.534   6.683   5.958
17326WAT     H252221   0.529   6.793   6.079
17327WAT      O52222   5.467   8.658   9.498
17327WAT     H152223   5.451   8.701   9.410
17327WAT     H252224   5.506   8.567   9.484
17328WAT      O52225   0.736   2.047   5.076
17328WAT     H152226   0.721   2.072   5.171
17328WAT     H252227   0.834   2.054   5.055
17329WAT      O52228   3.583   3.133   2.513
17329WAT     H152229   3.666   3.135   2.569
17329WAT     H252230   3.524   3.209   2.541
17330WAT      O52231   5.186   4.145   9.284
17330WAT     H152232   5.098   4.188   9.306
17330WAT     H252233   5.178   4.046   9.296
17331WAT      O52234   1.975   0.888   2.065
17331WAT     H152235   1.953   0.808   2.009
17331WAT     H252236   2.073   0.888   2.086
17332WAT      O52237   9.318   9.812   8.647
17332WAT     H152238   9.349   9.747   8.578
17332WAT     H252239   9.246   9.770   8.702
17333WAT      O52240   7.554   5.540   4.006
17333WAT     H152241   7.637   5.510   3.960
17333WAT     H252242   7.494   5.586   3.940
17334WAT      O52243   6.026   8.014   7.947
17334WAT     H152244   6.035   7.914   7.947
17334WAT     H252245   6.109   8.054   7.908
17335WAT      O52246   9.062   6.599   4.476
17335WAT     H152247   9.046   6.501   4.480
17335WAT     H252248   9.159   6.618   4.494
17336WAT      O52249   8.065   3.583   6.617
17336WAT     H152250   7.981   3.576   6.671
17336WAT     H252251   8.141   3.610   6.677
17337WAT      O52252   8.223   2.318   8.592
17337WAT     H152253   8.128   2.302   8.619
17337WAT     H252254   8.243   2.266   8.509
17338WAT      O52255   3.265   8.701   9.444
17338WAT     H152256   3.184   8.647   9.422
17338WAT     H252257   3.342   8.640   9.465
17339WAT      O52258   2.539   7.676   2.372
17339WAT     H152259   2.633   7.690   2.340
17339WAT     H252260   2.501   7.594   2.330
17340WAT      O52261   1.273   1.050   4.869
17340WAT     H152262   1.293   0.992   4.948
17340WAT     H252263   1.354   1.056   4.811
17341WAT      O52264   6.581   2.668   3.288
17341WAT     H152265   6.500   2.679   3.346
17341WAT     H252266   6.590   2.748   3.229
17342WAT      O52267   5.098   8.630   8.748
17342WAT     H152268   5.068   8.678   8.831
17342WAT     H252269   5.110   8.696   8.674
17343WAT      O52270   6.577   5.876   3.762
17343WAT     H152271   6.643   5.892   3.688
17343WAT     H252272   6.493   5.838   3.724
17344WAT      O52273   2.223   3.713   9.689
17344WAT     H152274   2.250   3.786   9.627
17344WAT     H252275   2.175   3.642   9.638
17345WAT      O52276   3.534   0.022   7.506
17345WAT     H152277   3.510   0.115   7.534
17345WAT     H252278   3.504   0.007   7.411
17346WAT      O52279   1.474   4.618   3.590
17346WAT     H152280   1.441   4.524   3.596
17346WAT     H252281   1.398   4.681   3.607
17347WAT      O52282   8.906   7.857   7.200
17347WAT     H152283   8.896   7.801   7.118
17347WAT     H252284   8.873   7.807   7.279
17348WAT      O52285   7.135   3.716   0.477
17348WAT     H152286   7.194   3.756   0.406
17348WAT     H252287   7.176   3.632   0.510
17349WAT      O52288   8.932   3.705   1.055
17349WAT     H152289   8.888   3.697   0.966
17349WAT     H252290   9.026   3.738   1.043
17350WAT      O52291   8.127   9.523   4.956
17350WAT     H152292   8.192   9.534   4.880
17350WAT     H252293   8.035   9.511   4.919
17351WAT      O52294   8.277   2.333   5.366
17351WAT     H152295   8.292   2.432   5.368
17351WAT     H252296   8.195   2.311   5.419
17352WAT      O52297   5.186   1.711   6.812
17352WAT     H152298   5.196   1.619   6.851
17352WAT     H252299   5.142   1.770   6.879
17353WAT      O52300   0.668   8.093   9.408
17353WAT     H152301   0.579   8.119   9.369
17353WAT     H252302   0.697   8.005   9.371
17354WAT      O52303   0.859   2.875   1.943
17354WAT     H152304   0.877   2.938   2.019
17354WAT     H252305   0.937   2.875   1.880
17355WAT      O52306   8.254   0.750   0.999
17355WAT     H152307   8.353   0.754   1.009
17355WAT     H252308   8.229   0.671   0.943
17356WAT      O52309   6.589   5.393   4.994
17356WAT     H152310   6.574   5.305   5.039
17356WAT     H252311   6.542   5.394   4.906
17357WAT      O52312   5.686   9.136   0.935
17357WAT     H152313   5.689   9.208   0.866
17357WAT     H252314   5.743   9.059   0.906
17358WAT      O52315   0.865   2.984   6.440
17358WAT     H152316   0.859   2.890   6.476
17358WAT     H252317   0.860   3.049   6.516
17359WAT      O52318   1.324   9.734   1.305
17359WAT     H152319   1.292   9.828   1.317
17359WAT     H252320   1.279   9.694   1.225
17360WAT      O52321   6.842   7.601   7.928
17360WAT     H152322   6.789   7.645   7.855
17360WAT     H252323   6.802   7.512   7.950
17361WAT      O52324   1.420   8.969   6.067
17361WAT     H152325   1.374   8.936   5.985
17361WAT     H252326   1.518   8.980   6.049
17362WAT      O52327   2.337   4.280   9.607
17362WAT     H152328   2.371   4.324   9.524
17362WAT     H252329   2.368   4.332   9.687
17363WAT      O52330   2.236   5.333   7.265
17363WAT     H152331   2.271   5.351   7.357
17363WAT     H252332   2.226   5.420   7.215
17364WAT      O52333   1.203   3.814   3.100
17364WAT     H152334   1.128   3.773   3.152
17364WAT     H252335   1.168   3.847   3.013
17365WAT      O52336   2.309   4.459   7.042
17365WAT     H152337   2.301   4.429   7.137
17365WAT     H252338   2.386   4.523   7.034
17366WAT      O52339   4.119   9.548   0.504
17366WAT     H152340   4.209   9.542   0.547
17366WAT     H252341   4.127   9.593   0.416
17367WAT      O52342   0.083   1.955   1.780
17367WAT     H152343   0.015   1.973   1.852
17367WAT     H252344   0.054   1.877   1.725
17368WAT      O52345   3.109   6.237   5.032
17368WAT     H152346   3.010   6.231   5.018
17368WAT     H252347   3.140   6.330   5.014
17369WAT      O52348   5.097   0.764   2.255
17369WAT     H152349   5.011   0.753   2.207
17369WAT     H252350   5.165   0.701   2.218
17370WAT      O52351   1.152   6.994   1.290
17370WAT     H152352   1.099   6.978   1.373
17370WAT     H252353   1.250   6.982   1.311
17371WAT      O52354   4.308   0.106   4.770
17371WAT     H152355   4.255   0.045   4.828
17371WAT     H252356   4.403   0.074   4.766
17372WAT      O52357   1.344   6.263   0.026
17372WAT     H152358   1.361   6.205   0.105
17372WAT     H252359   1.253   6.303   0.033
17373WAT      O52360   3.617   5.381   5.398
17373WAT     H152361   3.653   5.411   5.486
17373WAT     H252362   3.519   5.363   5.406
17374WAT      O52363   5.550   7.009   3.547
17374WAT     H152364   5.574   7.072   3.621
17374WAT     H252365   5.453   6.988   3.552
17375WAT      O52366   1.128   9.673   4.653
17375WAT     H152367   1.212   9.721   4.629
17375WAT     H252368   1.105   9.609   4.580
17376WAT      O52369   2.211   9.374   3.685
17376WAT     H152370   2.244   9.425   3.606
17376WAT     H252371   2.179   9.284   3.656
17377WAT      O52372   5.574   4.003   0.196
17377WAT     H152373   5.576   3.918   0.144
17377WAT     H252374   5.486   4.011   0.243
17378WAT      O52375   6.475   9.692   8.459
17378WAT     H152376   6.562   9.740   8.474
17378WAT     H252377   6.461   9.625   8.532
17379WAT      O52378   0.968   5.283   6.664
17379WAT     H152379   0.968   5.280   6.764
17379WAT     H252380   0.908   5.212   6.628
17380WAT      O52381   1.442   8.883   3.370
17380WAT     H152382   1.391   8.964   3.340
17380WAT     H252383   1.463   8.891   3.467
17381WAT      O52384   4.347   0.284   7.243
17381WAT     H152385   4.292   0.330   7.313
17381WAT     H252386   4.376   0.350   7.174
17382WAT      O52387   6.796   3.489   3.024
17382WAT     H152388   6.857   3.567   3.008
17382WAT     H252389   6.741   3.473   2.942
17383WAT      O52390   6.421   4.202   5.588
17383WAT     H152391   6.480   4.134   5.630
17383WAT     H252392   6.461   4.293   5.600
17384WAT      O52393   1.945   8.410   3.733
17384WAT     H152394   2.002   8.479   3.777
17384WAT     H252395   1.857   8.404   3.782
17385WAT      O52396   1.402   9.260   5.872
17385WAT     H152397   1.377   9.257   5.969
17385WAT     H252398   1.354   9.335   5.828
17386WAT      O52399   9.400   9.150   5.579
17386WAT     H152400   9.376   9.145   5.482
17386WAT     H252401   9.494   9.183   5.589
17387WAT      O52402   8.505   8.724   3.731
17387WAT     H152403   8.542   8.653   3.670
17387WAT     H252404   8.435   8.776   3.683
17388WAT      O52405   8.180   4.407   7.023
17388WAT     H152406   8.134   4.401   6.935
17388WAT     H252407   8.139   4.480   7.078
17389WAT      O52408   6.475   3.278   4.326
17389WAT     H152409   6.404   3.227   4.374
17389WAT     H252410   6.506   3.354   4.383
17390WAT      O52411   0.273   3.303   5.408
17390WAT     H152412   0.313   3.230   5.353
17390WAT     H252413   0.342   3.375   5.422
17391WAT      O52414   2.647   2.158   5.175
17391WAT     H152415   2.656   2.072   5.123
17391WAT     H252416   2.717   2.162   5.246
17392WAT      O52417   0.256   7.540   7.079
17392WAT     H152418   0.258   7.577   7.172
17392WAT     H252419   0.166   7.500   7.061
17393WAT      O52420   8.822   1.764   3.967
17393WAT     H152421   8.787   1.777   4.059
17393WAT     H252422   8.790   1.676   3.931
17394WAT      O52423   3.002   2.819   9.720
17394WAT     H152424   2.980   2.814   9.817
17394WAT     H252425   3.003   2.914   9.690
17395WAT      O52426   9.220   6.295   8.987
17395WAT     H152427   9.145   6.287   8.921
17395WAT     H252428   9.184   6.290   9.080
17396WAT      O52429   9.295   1.769   5.087
17396WAT     H152430   9.332   1.833   5.154
17396WAT     H252431   9.230   1.818   5.028
17397WAT      O52432   2.471   1.229   0.233
17397WAT     H152433   2.476   1.192   0.141
17397WAT     H252434   2.390   1.288   0.241
17398WAT      O52435   7.194   5.094   9.807
17398WAT     H152436   7.186   5.039   9.724
17398WAT     H252437   7.159   5.186   9.790
17399WAT      O52438   3.189   5.280   7.439
17399WAT     H152439   3.260   5.214   7.416
17399WAT     H252440   3.099   5.243   7.415
17400WAT      O52441   7.024   8.494   4.871
17400WAT     H152442   7.033   8.410   4.819
17400WAT     H252443   7.014   8.572   4.809
17401WAT      O52444   8.141   8.056   8.029
17401WAT     H152445   8.112   7.996   7.955
17401WAT     H252446   8.226   8.101   8.005
17402WAT      O52447   1.974   9.645   2.397
17402WAT     H152448   1.916   9.681   2.324
17402WAT     H252449   1.988   9.715   2.466
17403WAT      O52450   6.841   7.087   2.598
17403WAT     H152451   6.913   7.020   2.612
17403WAT     H252452   6.806   7.081   2.505
17404WAT      O52453   7.702   7.580   5.910
17404WAT     H152454   7.721   7.489   5.947
17404WAT     H252455   7.644   7.630   5.974
17405WAT      O52456   5.865   8.606   4.520
17405WAT     H152457   5.865   8.514   4.482
17405WAT     H252458   5.958   8.633   4.544
17406WAT      O52459   9.717   0.599   0.393
17406WAT     H152460   9.654   0.676   0.404
17406WAT     H252461   9.782   0.599   0.469
17407WAT      O52462   9.174   2.202   2.456
17407WAT     H152463   9.148   2.254   2.375
17407WAT     H252464   9.147   2.107   2.446
17408WAT      O52465   8.324   8.978   6.317
17408WAT     H152466   8.348   8.974   6.220
17408WAT     H252467   8.251   9.045   6.331
17409WAT      O52468   7.740   2.256   1.542
17409WAT     H152469   7.798   2.333   1.515
17409WAT     H252470   7.655   2.290   1.582
17410WAT      O52471   1.482   7.169   1.549
17410WAT     H152472   1.455   7.096   1.612
17410WAT     H252473   1.474   7.258   1.596
17411WAT      O52474   7.871   1.453   4.282
17411WAT     H152475   7.816   1.370   4.296
17411WAT     H252476   7.811   1.527   4.250
17412WAT      O52477   7.630   7.563   8.702
17412WAT     H152478   7.602   7.583   8.796
17412WAT     H252479   7.727   7.540   8.700
17413WAT      O52480   1.782   3.219   0.396
17413WAT     H152481   1.684   3.220   0.414
17413WAT     H252482   1.801   3.269   0.311
17414WAT      O52483   8.802   8.813   3.882
17414WAT     H152484   8.705   8.833   3.874
17414WAT     H252485   8.818   8.715   3.875
17415WAT      O52486   6.039   7.139   8.983
17415WAT     H152487   6.049   7.233   8.950
17415WAT     H252488   6.061   7.135   9.081
17416WAT      O52489   4.545   7.729   0.157
17416WAT     H152490   4.636   7.713   0.120
17416WAT     H252491   4.503   7.806   0.108
17417WAT      O52492   7.496   2.044   1.370
17417WAT     H152493   7.523   2.124   1.316
17417WAT     H252494   7.517   2.060   1.466
17418WAT      O52495   1.710   0.913   4.069
17418WAT     H152496   1.775   0.922   4.144
17418WAT     H252497   1.722   0.824   4.025
17419WAT      O52498   0.957   0.356   3.662
17419WAT     H152499   1.057   0.364   3.670
17419WAT     H252500   0.918   0.332   3.751
17420WAT      O52501   2.760   6.119   4.085
17420WAT     H152502   2.708   6.165   4.157
17420WAT     H252503   2.775   6.024   4.110
17421WAT      O52504   3.639   0.792   2.216
17421WAT     H152505   3.546   0.766   2.189
17421WAT     H252506   3.696   0.797   2.134
17422WAT      O52507   0.482   1.931   2.060
17422WAT     H152508   0.529   2.015   2.086
17422WAT     H252509   0.449   1.939   1.966
17423WAT      O52510   1.390   7.803   6.735
17423WAT     H152511   1.318   7.873   6.741
17423WAT     H252512   1.370   7.741   6.660
17424WAT      O52513   2.439   6.608   4.557
17424WAT     H152514   2.479   6.686   4.606
17424WAT     H252515   2.392   6.549   4.621
17425WAT      O52516   1.332   7.581   0.256
17425WAT     H152517   1.349   7.497   0.204
17425WAT     H252518   1.251   7.568   0.314
17426WAT      O52519   6.665   3.198   7.308
17426WAT     H152520   6.645   3.105   7.340
17426WAT     H252521   6.636   3.208   7.213
17427WAT      O52522   3.138   9.659   8.153
17427WAT     H152523   3.122   9.696   8.062
17427WAT     H252524   3.061   9.682   8.213
17428WAT      O52525   1.907   7.345   2.553
17428WAT     H152526   1.933   7.340   2.650
17428WAT     H252527   1.989   7.340   2.496
17429WAT      O52528   0.763   5.496   5.911
17429WAT     H152529   0.775   5.539   5.821
17429WAT     H252530   0.772   5.566   5.982
17430WAT      O52531   1.481   0.568   8.835
17430WAT     H152532   1.551   0.639   8.825
17430WAT     H252533   1.392   0.607   8.810
17431WAT      O52534   6.578   4.928   1.940
17431WAT     H152535   6.480   4.946   1.927
17431WAT     H252536   6.630   5.011   1.922
17432WAT      O52537   1.676   1.867   4.187
17432WAT     H152538   1.748   1.913   4.135
17432WAT     H252539   1.691   1.883   4.284
17433WAT      O52540   4.663   1.390   2.614
17433WAT     H152541   4.668   1.471   2.671
17433WAT     H252542   4.570   1.381   2.576
17434WAT      O52543   3.764   1.765   5.730
17434WAT     H152544   3.769   1.854   5.776
17434WAT     H252545   3.825   1.766   5.651
17435WAT      O52546   5.992   4.444   8.210
17435WAT     H152547   5.999   4.544   8.220
17435WAT     H252548   5.932   4.408   8.281
17436WAT      O52549   0.879   2.552   0.882
17436WAT     H152550   0.806   2.488   0.904
17436WAT     H252551   0.879   2.571   0.784
17437WAT      O52552   6.718   6.053   3.526
17437WAT     H152553   6.670   6.075   3.611
17437WAT     H252554   6.776   6.130   3.499
17438WAT      O52555   3.174   2.974   2.144
17438WAT     H152556   3.154   3.043   2.214
17438WAT     H252557   3.272   2.974   2.125
17439WAT      O52558   3.638   4.859   5.617
17439WAT     H152559   3.723   4.836   5.568
17439WAT     H252560   3.648   4.833   5.713
17440WAT      O52561   5.256   0.707   7.379
17440WAT     H152562   5.239   0.698   7.280
17440WAT     H252563   5.177   0.672   7.429
17441WAT      O52564   0.009   3.264   3.896
17441WAT     H152565  -0.058   3.283   3.968
17441WAT     H252566   0.067   3.344   3.882
17442WAT      O52567   4.849   2.374   3.273
17442WAT     H152568   4.928   2.314   3.285
17442WAT     H252569   4.840   2.434   3.352
17443WAT      O52570   8.473   1.830   8.325
17443WAT     H152571   8.387   1.861   8.284
17443WAT     H252572   8.491   1.735   8.299
17444WAT      O52573   6.188   6.517   2.901
17444WAT     H152574   6.093   6.543   2.885
17444WAT     H252575   6.192   6.425   2.938
17445WAT      O52576   5.749   6.408   3.138
17445WAT     H152577   5.717   6.470   3.210
17445WAT     H252578   5.825   6.354   3.172
17446WAT      O52579   4.865   6.089   9.492
17446WAT     H152580   4.823   6.085   9.401
17446WAT     H252581   4.796   6.068   9.561
17447WAT      O52582   1.010   6.956   7.359
17447WAT     H152583   1.016   7.052   7.333
17447WAT     H252584   0.933   6.913   7.311
17448WAT      O52585   2.327   3.286   0.128
17448WAT     H152586   2.325   3.375   0.174
17448WAT     H252587   2.280   3.218   0.185
17449WAT      O52588   7.104   6.810   3.191
17449WAT     H152589   7.131   6.714   3.201
17449WAT     H252590   7.006   6.815   3.169
17450WAT      O52591   1.730   0.023   2.647
17450WAT     H152592   1.823   0.049   2.675
17450WAT     H252593   1.717  -0.075   2.659
17451WAT      O52594   8.078   0.851   9.087
17451WAT     H152595   8.072   0.858   9.186
17451WAT     H252596   8.044   0.935   9.045
17452WAT      O52597   4.415   1.635   5.132
17452WAT     H152598   4.384   1.642   5.227
17452WAT     H252599   4.514   1.621   5.131
17453WAT      O52600   3.441   2.001   7.883
17453WAT     H152601   3.438   1.935   7.807
17453WAT     H252602   3.396   2.086   7.854
17454WAT      O52603   0.966   9.464   7.481
17454WAT     H152604   0.892   9.401   7.504
17454WAT     H252605   1.053   9.425   7.508
17455WAT      O52606   3.518   8.830   9.781
17455WAT     H152607   3.618   8.826   9.777
17455WAT     H252608   3.490   8.861   9.872
17456WAT      O52609   2.480   9.631   2.337
17456WAT     H152610   2.450   9.719   2.301
17456WAT     H252611   2.560   9.644   2.395
17457WAT      O52612   4.157   7.932   0.032
17457WAT     H152613   4.132   7.871   0.106
17457WAT     H252614   4.241   7.982   0.056
17458WAT      O52615   9.154   6.079   6.417
17458WAT     H152616   9.102   6.163   6.432
17458WAT     H252617   9.210   6.087   6.335
17459WAT      O52618   7.988   7.066   5.471
17459WAT     H152619   7.921   7.026   5.533
17459WAT     H252620   8.065   7.003   5.461
17460WAT      O52621   0.734   4.658   9.223
17460WAT     H152622   0.732   4.694   9.316
17460WAT     H252623   0.640   4.654   9.188
17461WAT      O52624   4.215   5.241   8.675
17461WAT     H152625   4.239   5.148   8.645
17461WAT     H252626   4.118   5.245   8.696
17462WAT      O52627   4.167   5.511   1.595
17462WAT     H152628   4.212   5.462   1.670
17462WAT     H252629   4.211   5.488   1.508
17463WAT      O52630   3.087   4.217   2.763
17463WAT     H152631   3.171   4.256   2.802
17463WAT     H252632   3.086   4.234   2.665
17464WAT      O52633   2.049   6.154   5.838
17464WAT     H152634   1.965   6.166   5.786
17464WAT     H252635   2.085   6.062   5.824
17465WAT      O52636   7.937   5.669   8.838
17465WAT     H152637   7.972   5.714   8.920
17465WAT     H252638   8.003   5.679   8.764
17466WAT      O52639   5.452   2.240   6.613
17466WAT     H152640   5.519   2.193   6.556
17466WAT     H252641   5.382   2.176   6.643
17467WAT      O52642   2.736   0.892   8.031
17467WAT     H152643   2.686   0.855   8.110
17467WAT     H252644   2.721   0.833   7.952
17468WAT      O52645   9.063   5.586   8.331
17468WAT     H152646   9.056   5.488   8.316
17468WAT     H252647   9.069   5.605   8.429
17469WAT      O52648   0.813   9.680   8.114
17469WAT     H152649   0.847   9.649   8.025
17469WAT     H252650   0.719   9.649   8.127
17470WAT      O52651   2.203   3.592   6.156
17470WAT     H152652   2.127   3.656   6.146
17470WAT     H252653   2.248   3.606   6.244
17471WAT      O52654   7.577   1.607   2.971
17471WAT     H152655   7.516   1.563   3.037
17471WAT     H252656   7.594   1.545   2.894
17472WAT      O52657   8.666   8.681   2.118
17472WAT     H152658   8.673   8.582   2.100
17472WAT     H252659   8.637   8.728   2.035
17473WAT      O52660   5.187   8.412   0.208
17473WAT     H152661   5.245   8.396   0.288
17473WAT     H252662   5.155   8.506   0.208
17474WAT      O52663   4.172   7.476   3.620
17474WAT     H152664   4.137   7.442   3.533
17474WAT     H252665   4.117   7.440   3.695
17475WAT      O52666   4.252   3.888   6.282
17475WAT     H152667   4.289   3.974   6.246
17475WAT     H252668   4.180   3.855   6.221
17476WAT      O52669   1.615   8.195   4.444
17476WAT     H152670   1.604   8.188   4.345
17476WAT     H252671   1.576   8.281   4.476
17477WAT      O52672   0.721   3.658   1.685
17477WAT     H152673   0.682   3.566   1.676
17477WAT     H252674   0.737   3.696   1.594
17478WAT      O52675   6.131   2.207   3.269
17478WAT     H152676   6.044   2.174   3.303
17478WAT     H252677   6.180   2.133   3.223
17479WAT      O52678   6.805   2.566   0.717
17479WAT     H152679   6.717   2.527   0.741
17479WAT     H252680   6.879   2.509   0.753
17480WAT      O52681   2.644   8.235   8.571
17480WAT     H152682   2.592   8.180   8.636
17480WAT     H252683   2.709   8.293   8.621
17481WAT      O52684   0.319   0.067   5.618
17481WAT     H152685   0.279  -0.022   5.638
17481WAT     H252686   0.335   0.117   5.703
17482WAT      O52687   3.474   9.512   7.384
17482WAT     H152688   3.573   9.526   7.383
17482WAT     H252689   3.433   9.558   7.305
17483WAT      O52690   9.580   5.829   4.204
17483WAT     H152691   9.593   5.858   4.299
17483WAT     H252692   9.518   5.751   4.201
17484WAT      O52693   6.679   3.129   7.899
17484WAT     H152694   6.747   3.169   7.960
17484WAT     H252695   6.635   3.201   7.845
17485WAT      O52696   2.949   2.507   0.409
17485WAT     H152697   2.851   2.524   0.419
17485WAT     H252698   2.970   2.414   0.440
17486WAT      O52699   0.700   5.098   0.442
17486WAT     H152700   0.718   5.181   0.495
17486WAT     H252701   0.667   5.026   0.503
17487WAT      O52702   1.214   4.279   5.631
17487WAT     H152703   1.211   4.179   5.626
17487WAT     H252704   1.124   4.316   5.611
17488WAT      O52705   7.566   3.397   8.606
17488WAT     H152706   7.636   3.335   8.572
17488WAT     H252707   7.602   3.491   8.605
17489WAT      O52708   9.225   6.298   1.320
17489WAT     H152709   9.174   6.218   1.288
17489WAT     H252710   9.281   6.334   1.246
17490WAT      O52711   5.315   8.740   9.110
17490WAT     H152712   5.268   8.671   9.165
17490WAT     H252713   5.413   8.739   9.134
17491WAT      O52714   2.662   6.510   9.804
17491WAT     H152715   2.601   6.486   9.729
17491WAT     H252716   2.737   6.444   9.809
17492WAT      O52717   1.555   8.635   9.772
17492WAT     H152718   1.607   8.580   9.706
17492WAT     H252719   1.616   8.703   9.814
17493WAT      O52720   4.934   5.354   7.117
17493WAT     H152721   4.890   5.432   7.074
17493WAT     H252722   4.865   5.297   7.161
17494WAT      O52723   6.840   0.803   0.712
17494WAT     H152724   6.771   0.769   0.647
17494WAT     H252725   6.824   0.900   0.729
17495WAT      O52726   4.489   9.258   3.880
17495WAT     H152727   4.403   9.247   3.930
17495WAT     H252728   4.472   9.252   3.782
17496WAT      O52729   8.553   9.387   2.640
17496WAT     H152730   8.479   9.320   2.647
17496WAT     H252731   8.539   9.442   2.557
17497WAT      O52732   9.237   0.023   7.194
17497WAT     H152733   9.216   0.116   7.165
17497WAT     H252734   9.216  -0.041   7.120
17498WAT      O52735   5.782   3.264   1.749
17498WAT     H152736   5.732   3.307   1.674
17498WAT     H252737   5.774   3.165   1.743
17499WAT      O52738   1.027   5.768   5.940
17499WAT     H152739   1.095   5.702   5.971
17499WAT     H252740   1.065   5.822   5.865
17500WAT      O52741   7.777   3.706   7.615
17500WAT     H152742   7.789   3.764   7.696
17500WAT     H252743   7.783   3.609   7.643
17501WAT      O52744   3.899   2.824   7.634
17501WAT     H152745   3.993   2.792   7.631
17501WAT     H252746   3.849   2.790   7.554
17502WAT      O52747   0.606   1.242   4.459
17502WAT     H152748   0.533   1.176   4.439
17502WAT     H252749   0.596   1.276   4.552
17503WAT      O52750   1.282   8.224   8.510
17503WAT     H152751   1.201   8.213   8.452
17503WAT     H252752   1.280   8.314   8.553
17504WAT      O52753   5.412   3.431   2.351
17504WAT     H152754   5.506   3.449   2.378
17504WAT     H252755   5.402   3.440   2.252
17505WAT      O52756   4.171   2.201   3.107
17505WAT     H152757   4.254   2.188   3.161
17505WAT     H252758   4.118   2.115   3.106
17506WAT      O52759   7.414   7.041   7.015
17506WAT     H152760   7.437   6.953   7.058
17506WAT     H252761   7.459   7.115   7.065
17507WAT      O52762   9.099   2.821   5.506
17507WAT     H152763   9.106   2.921   5.511
17507WAT     H252764   9.028   2.789   5.569
17508WAT      O52765   7.320   9.808   4.683
17508WAT     H152766   7.235   9.860   4.672
17508WAT     H252767   7.304   9.712   4.662
17509WAT      O52768   7.683   2.170   9.790
17509WAT     H152769   7.647   2.261   9.771
17509WAT     H252770   7.665   2.110   9.712
17510WAT      O52771   3.224   9.489   2.496
17510WAT     H152772   3.206   9.398   2.458
17510WAT     H252773   3.165   9.504   2.575
17511WAT      O52774   6.805   1.475   7.117
17511WAT     H152775   6.714   1.448   7.086
17511WAT     H252776   6.846   1.537   7.049
17512WAT      O52777   1.499   1.517   5.691
17512WAT     H152778   1.513   1.459   5.772
17512WAT     H252779   1.421   1.577   5.707
17513WAT      O52780   7.519   5.950   5.364
17513WAT     H152781   7.609   5.987   5.388
17513WAT     H252782   7.471   6.016   5.305
17514WAT      O52783   3.234   6.995   2.236
17514WAT     H152784   3.334   7.003   2.232
17514WAT     H252785   3.193   7.067   2.180
17515WAT      O52786   6.634   3.604   5.303
17515WAT     H152787   6.595   3.517   5.334
17515WAT     H252788   6.698   3.638   5.371
17516WAT      O52789   1.009   5.010   0.613
17516WAT     H152790   1.097   4.982   0.650
17516WAT     H252791   0.982   5.097   0.655
17517WAT      O52792   7.449   4.311   2.493
17517WAT     H152793   7.480   4.330   2.586
17517WAT     H252794   7.367   4.254   2.496
17518WAT      O52795   3.043   8.440   8.797
17518WAT     H152796   2.964   8.379   8.787
17518WAT     H252797   3.012   8.529   8.831
17519WAT      O52798   0.047   0.804   8.791
17519WAT     H152799  -0.050   0.818   8.807
17519WAT     H252800   0.099   0.875   8.839
17520WAT      O52801   4.287   4.203   9.844
17520WAT     H152802   4.346   4.266   9.793
17520WAT     H252803   4.228   4.256   9.905
17521WAT      O52804   1.836   4.741   8.900
17521WAT     H152805   1.863   4.784   8.813
17521WAT     H252806   1.885   4.654   8.910
17522WAT      O52807   0.682   6.278   7.009
17522WAT     H152808   0.730   6.294   7.096
17522WAT     H252809   0.733   6.321   6.935
17523WAT      O52810   4.531   2.125   2.154
17523WAT     H152811   4.544   2.067   2.234
17523WAT     H252812   4.456   2.189   2.171
17524WAT      O52813   5.614   2.229   4.778
17524WAT     H152814   5.692   2.177   4.812
17524WAT     H252815   5.596   2.203   4.683
17525WAT      O52816   5.551   5.971   0.682
17525WAT     H152817   5.497   6.055   0.687
17525WAT     H252818   5.639   5.986   0.727
17526WAT      O52819   9.804   8.066   7.344
17526WAT     H152820   9.804   8.160   7.377
17526WAT     H252821   9.795   8.003   7.421
17527WAT      O52822   9.818   4.095   6.041
17527WAT     H152823   9.731   4.051   6.020
17527WAT     H252824   9.847   4.069   6.133
17528WAT      O52825   8.961   5.742   6.279
17528WAT     H152826   9.004   5.653   6.293
17528WAT     H252827   8.942   5.785   6.367
17529WAT      O52828   8.467   2.394   1.859
17529WAT     H152829   8.405   2.390   1.937
17529WAT     H252830   8.415   2.411   1.776
17530WAT      O52831   4.119   3.463   6.328
17530WAT     H152832   4.079   3.491   6.241
17530WAT     H252833   4.183   3.388   6.312
17531WAT      O52834   4.133   8.123   7.921
17531WAT     H152835   4.101   8.062   7.993
17531WAT     H252836   4.147   8.070   7.837
17532WAT      O52837   5.167   0.167   7.928
17532WAT     H152838   5.170   0.116   7.841
17532WAT     H252839   5.137   0.260   7.911
17533WAT      O52840   4.391   1.529   1.186
17533WAT     H152841   4.345   1.601   1.238
17533WAT     H252842   4.376   1.441   1.232
17534WAT      O52843   1.647   1.088   4.483
17534WAT     H152844   1.659   1.157   4.412
17534WAT     H252845   1.731   1.082   4.538
17535WAT      O52846   7.286   3.819   2.718
17535WAT     H152847   7.384   3.806   2.704
17535WAT     H252848   7.271   3.892   2.785
17536WAT      O52849   8.959   8.275   9.503
17536WAT     H152850   9.044   8.227   9.526
17536WAT     H252851   8.981   8.368   9.473
17537WAT      O52852   0.529   1.670   1.615
17537WAT     H152853   0.564   1.712   1.531
17537WAT     H252854   0.558   1.725   1.693
17538WAT      O52855   9.396   3.991   5.032
17538WAT     H152856   9.493   3.988   5.008
17538WAT     H252857   9.345   3.929   4.972
17539WAT      O52858   1.658   1.913   3.644
17539WAT     H152859   1.562   1.933   3.662
17539WAT     H252860   1.697   1.987   3.589
17540WAT      O52861   8.314   6.192   4.509
17540WAT     H152862   8.338   6.145   4.423
17540WAT     H252863   8.307   6.125   4.583
17541WAT      O52864   1.844   5.568   3.381
17541WAT     H152865   1.918   5.502   3.393
17541WAT     H252866   1.838   5.595   3.285
17542WAT      O52867   4.985   3.531   6.743
17542WAT     H152868   5.027   3.578   6.665
17542WAT     H252869   4.888   3.515   6.724
17543WAT      O52870   8.544   2.589   3.803
17543WAT     H152871   8.574   2.659   3.867
17543WAT     H252872   8.449   2.563   3.823
17544WAT      O52873   7.608   6.175   1.579
17544WAT     H152874   7.629   6.196   1.674
17544WAT     H252875   7.521   6.125   1.574
17545WAT      O52876   1.267   4.750   6.792
17545WAT     H152877   1.277   4.849   6.784
17545WAT     H252878   1.340   4.713   6.850
17546WAT      O52879   0.967   8.127   9.354
17546WAT     H152880   0.967   8.086   9.445
17546WAT     H252881   1.060   8.129   9.318
17547WAT      O52882   4.216   5.748   2.595
17547WAT     H152883   4.131   5.799   2.577
17547WAT     H252884   4.194   5.653   2.614
17548WAT      O52885   3.104   8.398   9.634
17548WAT     H152886   3.111   8.342   9.717
17548WAT     H252887   3.188   8.389   9.581
17549WAT      O52888   1.791   1.567   6.704
17549WAT     H152889   1.709   1.512   6.717
17549WAT     H252890   1.870   1.519   6.743
17550WAT      O52891   0.380   2.912   4.882
17550WAT     H152892   0.358   2.905   4.979
17550WAT     H252893   0.457   2.852   4.861
17551WAT      O52894   2.939   6.488   5.696
17551WAT     H152895   3.000   6.420   5.737
17551WAT     H252896   2.846   6.452   5.691
17552WAT      O52897   4.748   8.461   0.799
17552WAT     H152898   4.677   8.401   0.762
17552WAT     H252899   4.838   8.423   0.776
17553WAT      O52900   2.156   6.774   4.012
17553WAT     H152901   2.153   6.817   3.922
17553WAT     H252902   2.073   6.719   4.026
17554WAT      O52903   5.048   2.253   8.556
17554WAT     H152904   5.079   2.245   8.651
17554WAT     H252905   5.018   2.164   8.523
17555WAT      O52906   1.625   8.696   4.505
17555WAT     H152907   1.683   8.719   4.426
17555WAT     H252908   1.645   8.759   4.580
17556WAT      O52909   8.228   8.873   8.541
17556WAT     H152910   8.282   8.926   8.476
17556WAT     H252911   8.180   8.934   8.603
17557WAT      O52912   4.783   3.039   0.694
17557WAT     H152913   4.876   3.006   0.702
17557WAT     H252914   4.777   3.132   0.731
17558WAT      O52915   2.649   3.046   4.804
17558WAT     H152916   2.720   2.976   4.797
17558WAT     H252917   2.617   3.069   4.712
17559WAT      O52918   1.766   3.379   4.454
17559WAT     H152919   1.723   3.290   4.467
17559WAT     H252920   1.696   3.448   4.437
17560WAT      O52921   4.847   1.506   4.485
17560WAT     H152922   4.922   1.463   4.535
17560WAT     H252923   4.843   1.604   4.507
17561WAT      O52924   7.078   1.037   4.841
17561WAT     H152925   7.079   1.020   4.742
17561WAT     H252926   7.123   0.960   4.887
17562WAT      O52927   8.546   8.711   6.287
17562WAT     H152928   8.587   8.801   6.302
17562WAT     H252929   8.604   8.641   6.330
17563WAT      O52930   0.652   3.329   6.776
17563WAT     H152931   0.682   3.410   6.825
17563WAT     H252932   0.571   3.291   6.821
17564WAT      O52933   8.082   4.099   6.346
17564WAT     H152934   8.171   4.134   6.377
17564WAT     H252935   8.055   4.022   6.403
17565WAT      O52936   8.383   6.528   8.459
17565WAT     H152937   8.355   6.432   8.456
17565WAT     H252938   8.435   6.551   8.377
17566WAT      O52939   5.204   2.622   4.131
17566WAT     H152940   5.293   2.578   4.140
17566WAT     H252941   5.167   2.605   4.040
17567WAT      O52942   1.694   0.246   3.321
17567WAT     H152943   1.725   0.208   3.234
17567WAT     H252944   1.663   0.340   3.307
17568WAT      O52945   5.564   0.875   0.246
17568WAT     H152946   5.519   0.843   0.329
17568WAT     H252947   5.541   0.971   0.230
17569WAT      O52948   0.800   1.298   2.713
17569WAT     H152949   0.876   1.320   2.651
17569WAT     H252950   0.748   1.221   2.675
17570WAT      O52951   5.122   3.173   2.613
17570WAT     H152952   5.131   3.249   2.549
17570WAT     H252953   5.027   3.141   2.614
17571WAT      O52954   4.452   1.014   6.918
17571WAT     H152955   4.426   1.103   6.956
17571WAT     H252956   4.373   0.953   6.919
17572WAT      O52957   1.508   0.261   0.742
17572WAT     H152958   1.428   0.320   0.735
17572WAT     H252959   1.577   0.291   0.675
17573WAT      O52960   1.038   4.355   1.607
17573WAT     H152961   1.012   4.337   1.702
17573WAT     H252962   1.090   4.277   1.571
17574WAT      O52963   7.568   8.209   1.357
17574WAT     H152964   7.589   8.205   1.259
17574WAT     H252965   7.617   8.137   1.405
17575WAT      O52966   6.405   7.049   9.003
17575WAT     H152967   6.439   6.964   8.963
17575WAT     H252968   6.374   7.031   9.097
17576WAT      O52969   6.959   4.093   8.001
17576WAT     H152970   7.017   4.120   7.925
17576WAT     H252971   6.909   4.173   8.035
17577WAT      O52972   3.435   7.081   6.570
17577WAT     H152973   3.354   7.073   6.628
17577WAT     H252974   3.510   7.121   6.622
17578WAT      O52975   8.740   7.219   1.708
17578WAT     H152976   8.793   7.143   1.671
17578WAT     H252977   8.802   7.285   1.751
17579WAT      O52978   3.598   4.038   2.132
17579WAT     H152979   3.682   4.084   2.159
17579WAT     H252980   3.585   3.956   2.187
17580WAT      O52981   3.332   2.907   3.650
17580WAT     H152982   3.282   2.820   3.652
17580WAT     H252983   3.420   2.893   3.605
17581WAT      O52984   7.601   1.587   1.059
17581WAT     H152985   7.513   1.562   1.019
17581WAT     H252986   7.588   1.668   1.117
17582WAT      O52987   3.205   7.465   9.545
17582WAT     H152988   3.232   7.434   9.454
17582WAT     H252989   3.120   7.419   9.573
17583WAT      O52990   3.223   2.889   4.586
17583WAT     H152991   3.135   2.923   4.551
17583WAT     H252992   3.236   2.923   4.680
17584WAT      O52993   6.356   6.032   9.364
17584WAT     H152994   6.453   6.018   9.381
17584WAT     H252995   6.310   5.943   9.357
17585WAT      O52996   2.637   8.085   9.397
17585WAT     H152997   2.693   8.063   9.477
17585WAT     H252998   2.682   8.052   9.314
17586WAT      O52999   3.745   8.678   6.564
17586WAT     H153000   3.698   8.671   6.652
17586WAT     H253001   3.836   8.637   6.571
17587WAT      O53002   2.033   1.223   0.921
17587WAT     H153003   2.114   1.254   0.871
17587WAT     H253004   2.058   1.149   0.983
17588WAT      O53005   7.216   8.888   8.505
17588WAT     H153006   7.144   8.822   8.485
17588WAT     H253007   7.306   8.844   8.495
17589WAT      O53008   6.226   4.441   2.958
17589WAT     H153009   6.277   4.475   3.036
17589WAT     H253010   6.231   4.506   2.882
17590WAT      O53011   8.661   8.099   2.791
17590WAT     H153012   8.676   8.002   2.772
17590WAT     H253013   8.692   8.120   2.883
17591WAT      O53014   6.234   5.796   0.920
17591WAT     H153015   6.173   5.855   0.972
17591WAT     H253016   6.181   5.742   0.854
17592WAT      O53017   7.509   3.458   7.100
17592WAT     H153018   7.557   3.474   7.186
17592WAT     H253019   7.559   3.391   7.045
17593WAT      O53020   7.451   8.826   9.148
17593WAT     H153021   7.430   8.732   9.120
17593WAT     H253022   7.513   8.867   9.081
17594WAT      O53023   1.040   5.235   9.602
17594WAT     H153024   0.958   5.289   9.583
17594WAT     H253025   1.106   5.290   9.653
17595WAT      O53026   4.511   9.239   7.212
17595WAT     H153027   4.432   9.250   7.273
17595WAT     H253028   4.594   9.231   7.267
17596WAT      O53029   5.544   5.947   8.703
17596WAT     H153030   5.638   5.928   8.733
17596WAT     H253031   5.544   6.029   8.645
17597WAT      O53032   1.279   1.708   2.104
17597WAT     H153033   1.207   1.740   2.165
17597WAT     H253034   1.241   1.641   2.040
17598WAT      O53035   4.952   4.336   2.595
17598WAT     H153036   5.016   4.268   2.559
17598WAT     H253037   5.000   4.397   2.658
17599WAT      O53038   3.571   8.956   1.243
17599WAT     H153039   3.651   8.984   1.191
17599WAT     H253040   3.548   9.026   1.310
17600WAT      O53041   9.438   8.298   4.885
17600WAT     H153042   9.404   8.318   4.977
17600WAT     H253043   9.372   8.239   4.838
17601WAT      O53044   7.115   5.486   9.537
17601WAT     H153045   7.086   5.577   9.507
17601WAT     H253046   7.193   5.495   9.598
17602WAT      O53047   7.620   1.719   2.644
17602WAT     H153048   7.607   1.763   2.555
17602WAT     H253049   7.534   1.675   2.672
17603WAT      O53050   2.286   2.896   3.928
17603WAT     H153051   2.269   2.798   3.917
17603WAT     H253052   2.342   2.912   4.009
17604WAT      O53053   4.518   7.313   5.885
17604WAT     H153054   4.448   7.281   5.948
17604WAT     H253055   4.479   7.382   5.824
17605WAT      O53056   4.422   9.833   9.714
17605WAT     H153057   4.427   9.833   9.614
17605WAT     H253058   4.410   9.926   9.747
17606WAT      O53059   1.934   8.409   0.653
17606WAT     H153060   1.972   8.333   0.706
17606WAT     H253061   1.836   8.395   0.640
17607WAT      O53062   5.765   7.878   7.377
17607WAT     H153063   5.819   7.827   7.443
17607WAT     H253064   5.782   7.842   7.285
17608WAT      O53065   3.156   7.844   4.367
17608WAT     H153066   3.084   7.863   4.301
17608WAT     H253067   3.199   7.756   4.344
17609WAT      O53068   4.826   4.043   4.022
17609WAT     H153069   4.888   4.070   4.096
17609WAT     H253070   4.807   4.121   3.964
17610WAT      O53071   2.388   1.380   0.960
17610WAT     H153072   2.357   1.334   0.877
17610WAT     H253073   2.309   1.420   1.007
17611WAT      O53074   3.408   1.155   5.822
17611WAT     H153075   3.467   1.215   5.769
17611WAT     H253076   3.462   1.106   5.890
17612WAT      O53077   6.786   7.402   8.139
17612WAT     H153078   6.884   7.388   8.123
17612WAT     H253079   6.741   7.314   8.149
17613WAT      O53080   8.962   5.695   6.720
17613WAT     H153081   9.002   5.786   6.725
17613WAT     H253082   8.995   5.640   6.797
17614WAT      O53083   6.522   1.744   4.568
17614WAT     H153084   6.549   1.840   4.576
17614WAT     H253085   6.523   1.716   4.472
17615WAT      O53086   3.556   3.622   7.916
17615WAT     H153087   3.519   3.532   7.937
17615WAT     H253088   3.562   3.676   8.000
17616WAT      O53089   9.254   1.521   6.642
17616WAT     H153090   9.238   1.441   6.585
17616WAT     H253091   9.243   1.604   6.587
17617WAT      O53092   1.423   1.603   1.787
17617WAT     H153093   1.500   1.646   1.740
17617WAT     H253094   1.400   1.656   1.869
17618WAT      O53095   7.029   4.689   9.843
17618WAT     H153096   6.980   4.751   9.905
17618WAT     H253097   6.983   4.688   9.754
17619WAT      O53098   9.558   3.118   5.530
17619WAT     H153099   9.518   3.029   5.551
17619WAT     H253100   9.654   3.119   5.558
17620WAT      O53101   3.019   6.558   6.152
17620WAT     H153102   3.093   6.618   6.120
17620WAT     H253103   3.052   6.464   6.158
17621WAT      O53104   8.200   0.673   7.837
17621WAT     H153105   8.286   0.705   7.798
17621WAT     H253106   8.212   0.658   7.936
17622WAT      O53107   7.966   6.167   6.052
17622WAT     H153108   7.974   6.266   6.038
17622WAT     H253109   8.057   6.126   6.056
17623WAT      O53110   6.854   7.471   4.243
17623WAT     H153111   6.758   7.500   4.238
17623WAT     H253112   6.882   7.430   4.156
17624WAT      O53113   0.531   5.709   4.347
17624WAT     H153114   0.480   5.789   4.318
17624WAT     H253115   0.619   5.737   4.384
17625WAT      O53116   7.423   3.082   7.577
17625WAT     H153117   7.509   3.132   7.575
17625WAT     H253118   7.413   3.029   7.492
17626WAT      O53119   7.955   3.966   2.058
17626WAT     H153120   7.922   3.974   1.964
17626WAT     H253121   7.880   3.982   2.122
17627WAT      O53122   0.386   3.134   3.296
17627WAT     H153123   0.474   3.181   3.284
17627WAT     H253124   0.312   3.200   3.285
17628WAT      O53125   3.922   2.646   5.022
17628WAT     H153126   3.944   2.549   5.024
17628WAT     H253127   3.880   2.673   5.109
17629WAT      O53128   1.854   7.331   1.291
17629WAT     H153129   1.813   7.257   1.343
17629WAT     H253130   1.809   7.417   1.313
17630WAT      O53131   6.793   2.570   0.080
17630WAT     H153132   6.757   2.517   0.003
17630WAT     H253133   6.739   2.549   0.162
17631WAT      O53134   9.562   0.863   5.204
17631WAT     H153135   9.519   0.953   5.204
17631WAT     H253136   9.496   0.795   5.235
17632WAT      O53137   2.440   5.865   5.338
17632WAT     H153138   2.469   5.957   5.364
17632WAT     H253139   2.515   5.817   5.292
17633WAT      O53140   9.178   0.751   4.955
17633WAT     H153141   9.273   0.771   4.931
17633WAT     H253142   9.131   0.836   4.978
17634WAT      O53143   4.101   1.994   8.135
17634WAT     H153144   4.017   1.962   8.091
17634WAT     H253145   4.086   2.085   8.173
17635WAT      O53146   9.084   2.555   0.225
17635WAT     H153147   9.032   2.470   0.226
17635WAT     H253148   9.141   2.560   0.143
17636WAT      O53149   3.871   1.190   9.256
17636WAT     H153150   3.838   1.165   9.165
17636WAT     H253151   3.804   1.162   9.325
17637WAT      O53152   2.163   1.628   0.227
17637WAT     H153153   2.228   1.638   0.153
17637WAT     H253154   2.193   1.682   0.306
17638WAT      O53155   8.340   5.249   6.144
17638WAT     H153156   8.341   5.348   6.160
17638WAT     H253157   8.321   5.232   6.047
17639WAT      O53158   2.840   0.836   8.944
17639WAT     H153159   2.928   0.790   8.933
17639WAT     H253160   2.846   0.928   8.906
17640WAT      O53161   1.169   1.132   5.262
17640WAT     H153162   1.155   1.224   5.299
17640WAT     H253163   1.109   1.119   5.183
17641WAT      O53164   1.191   9.539   3.747
17641WAT     H153165   1.166   9.445   3.771
17641WAT     H253166   1.276   9.538   3.693
17642WAT      O53167   8.524   8.201   0.364
17642WAT     H153168   8.510   8.254   0.281
17642WAT     H253169   8.440   8.150   0.385
17643WAT      O53170   5.008   5.464   2.887
17643WAT     H153171   4.927   5.512   2.920
17643WAT     H253172   5.079   5.530   2.861
17644WAT      O53173   2.046   4.436   7.398
17644WAT     H153174   2.017   4.350   7.440
17644WAT     H253175   1.971   4.502   7.402
17645WAT      O53176   7.372   8.011   0.740
17645WAT     H153177   7.290   8.067   0.725
17645WAT     H253178   7.364   7.965   0.828
17646WAT      O53179   2.160   3.832   4.566
17646WAT     H153180   2.247   3.784   4.579
17646WAT     H253181   2.175   3.911   4.507
17647WAT      O53182   1.515   3.975   4.413
17647WAT     H153183   1.498   3.887   4.368
17647WAT     H253184   1.482   3.971   4.507
17648WAT      O53185   7.355   8.748   5.822
17648WAT     H153186   7.380   8.840   5.850
17648WAT     H253187   7.401   8.681   5.880
17649WAT      O53188   3.093   1.592   3.463
17649WAT     H153189   3.010   1.558   3.506
17649WAT     H253190   3.085   1.583   3.363
17650WAT      O53191   5.940   8.417   3.727
17650WAT     H153192   5.896   8.336   3.764
17650WAT     H253193   5.876   8.465   3.667
17651WAT      O53194   4.580   7.472   7.799
17651WAT     H153195   4.552   7.564   7.828
17651WAT     H253196   4.517   7.439   7.729
17652WAT      O53197   3.636   2.958   6.649
17652WAT     H153198   3.614   3.010   6.567
17652WAT     H253199   3.645   3.019   6.727
17653WAT      O53200   3.947   1.728   3.207
17653WAT     H153201   3.987   1.731   3.115
17653WAT     H253202   3.891   1.646   3.216
17654WAT      O53203   1.693   9.662   6.229
17654WAT     H153204   1.670   9.609   6.310
17654WAT     H253205   1.766   9.616   6.178
17655WAT      O53206   4.587   1.328   3.584
17655WAT     H153207   4.564   1.422   3.559
17655WAT     H253208   4.687   1.318   3.587
17656WAT      O53209   2.907   8.647   0.499
17656WAT     H153210   2.999   8.688   0.495
17656WAT     H253211   2.840   8.712   0.464
17657WAT      O53212   8.957   2.028   5.027
17657WAT     H153213   8.951   2.018   5.127
17657WAT     H253214   9.052   2.016   4.999
17658WAT      O53215   7.376   0.284   7.280
17658WAT     H153216   7.342   0.277   7.373
17658WAT     H253217   7.473   0.258   7.278
17659WAT      O53218   0.166   8.920   5.761
17659WAT     H153219   0.220   8.860   5.820
17659WAT     H253220   0.075   8.931   5.800
17660WAT      O53221   3.555   2.032   6.125
17660WAT     H153222   3.556   2.129   6.101
17660WAT     H253223   3.605   1.980   6.056
17661WAT      O53224   1.020   1.232   7.118
17661WAT     H153225   1.082   1.209   7.042
17661WAT     H253226   0.958   1.304   7.089
17662WAT      O53227   9.029   3.197   8.562
17662WAT     H153228   9.095   3.161   8.496
17662WAT     H253229   9.066   3.279   8.605
17663WAT      O53230   4.913   0.910   4.200
17663WAT     H153231   4.864   0.916   4.287
17663WAT     H253232   4.996   0.855   4.213
17664WAT      O53233   3.663   5.780   8.142
17664WAT     H153234   3.718   5.703   8.175
17664WAT     H253235   3.604   5.813   8.215
17665WAT      O53236   6.233   6.566   7.981
17665WAT     H153237   6.218   6.590   8.077
17665WAT     H253238   6.157   6.601   7.926
17666WAT      O53239   0.061   3.152   4.915
17666WAT     H153240   0.123   3.145   4.994
17666WAT     H253241   0.036   3.247   4.900
17667WAT      O53242   6.277   9.067   6.936
17667WAT     H153243   6.369   9.097   6.963
17667WAT     H253244   6.230   9.030   7.016
17668WAT      O53245   2.918   8.790   5.192
17668WAT     H153246   2.944   8.694   5.189
17668WAT     H253247   2.878   8.811   5.281
17669WAT      O53248   0.557   4.122   5.146
17669WAT     H153249   0.550   4.172   5.232
17669WAT     H253250   0.649   4.083   5.138
17670WAT      O53251   3.236   1.685   2.130
17670WAT     H153252   3.237   1.709   2.033
17670WAT     H253253   3.144   1.654   2.155
17671WAT      O53254   3.335   0.440   1.922
17671WAT     H153255   3.302   0.364   1.977
17671WAT     H253256   3.258   0.485   1.877
17672WAT      O53257   3.153   0.200   5.361
17672WAT     H153258   3.115   0.265   5.426
17672WAT     H253259   3.205   0.249   5.291
17673WAT      O53260   2.648   3.548   4.587
17673WAT     H153261   2.601   3.592   4.664
17673WAT     H253262   2.620   3.453   4.580
17674WAT      O53263   3.918   9.511   9.483
17674WAT     H153264   3.888   9.602   9.510
17674WAT     H253265   3.949   9.512   9.388
17675WAT      O53266   3.186   5.453   1.784
17675WAT     H153267   3.101   5.506   1.789
17675WAT     H253268   3.183   5.380   1.853
17676WAT      O53269   5.844   7.424   0.671
17676WAT     H153270   5.880   7.419   0.765
17676WAT     H253271   5.745   7.436   0.674
17677WAT      O53272   5.278   0.650   2.089
17677WAT     H153273   5.334   0.702   2.025
17677WAT     H253274   5.217   0.589   2.038
17678WAT      O53275   9.475   8.760   8.980
17678WAT     H153276   9.571   8.779   8.997
17678WAT     H253277   9.435   8.714   9.060
17679WAT      O53278   0.136   5.423   2.269
17679WAT     H153279   0.120   5.379   2.181
17679WAT     H253280   0.068   5.391   2.335
17680WAT      O53281   5.669   0.539   8.930
17680WAT     H153282   5.711   0.472   8.992
17680WAT     H253283   5.736   0.609   8.906
17681WAT      O53284   6.517   2.280   1.312
17681WAT     H153285   6.604   2.278   1.262
17681WAT     H253286   6.532   2.319   1.402
17682WAT      O53287   8.574   3.967   0.138
17682WAT     H153288   8.528   3.887   0.177
17682WAT     H253289   8.623   4.016   0.209
17683WAT      O53290   0.487   9.674   5.971
17683WAT     H153291   0.443   9.686   6.059
17683WAT     H253292   0.534   9.758   5.945
17684WAT      O53293   1.713   9.399   1.241
17684WAT     H153294   1.623   9.434   1.265
17684WAT     H253295   1.777   9.475   1.228
17685WAT      O53296   8.372   0.399   4.807
17685WAT     H153297   8.303   0.472   4.812
17685WAT     H253298   8.369   0.344   4.890
17686WAT      O53299   1.061   3.944   7.417
17686WAT     H153300   1.094   3.960   7.510
17686WAT     H253301   1.097   3.857   7.383
17687WAT      O53302   8.367   1.747   3.051
17687WAT     H153303   8.415   1.694   2.980
17687WAT     H253304   8.270   1.753   3.028
17688WAT      O53305   4.015   1.905   9.766
17688WAT     H153306   4.026   1.884   9.669
17688WAT     H253307   3.923   1.878   9.795
17689WAT      O53308   6.700   6.857   4.945
17689WAT     H153309   6.793   6.885   4.968
17689WAT     H253310   6.650   6.835   5.029
17690WAT      O53311   4.819   8.239   6.256
17690WAT     H153312   4.848   8.160   6.310
17690WAT     H253313   4.757   8.295   6.311
17691WAT      O53314   2.882   1.518   3.631
17691WAT     H153315   2.927   1.572   3.702
17691WAT     H253316   2.904   1.421   3.644
17692WAT      O53317   4.144   3.172   9.823
17692WAT     H153318   4.174   3.220   9.906
17692WAT     H253319   4.089   3.092   9.850
17693WAT      O53320   3.526   6.514   2.821
17693WAT     H153321   3.626   6.508   2.823
17693WAT     H253322   3.491   6.516   2.915
17694WAT      O53323   2.797   1.610   9.880
17694WAT     H153324   2.741   1.540   9.926
17694WAT     H253325   2.775   1.700   9.918
17695WAT      O53326   8.334   7.957   6.581
17695WAT     H153327   8.306   7.865   6.553
17695WAT     H253328   8.349   8.013   6.499
17696WAT      O53329   5.365   1.065   1.166
17696WAT     H153330   5.356   1.106   1.075
17696WAT     H253331   5.292   1.099   1.225
17697WAT      O53332   1.458   7.674   5.269
17697WAT     H153333   1.552   7.676   5.305
17697WAT     H253334   1.401   7.617   5.329
17698WAT      O53335   8.522   9.446   4.464
17698WAT     H153336   8.570   9.532   4.452
17698WAT     H253337   8.571   9.388   4.529
17699WAT      O53338   0.287   1.507   1.662
17699WAT     H153339   0.265   1.451   1.743
17699WAT     H253340   0.373   1.555   1.677
17700WAT      O53341   9.630   7.000   9.745
17700WAT     H153342   9.700   7.041   9.686
17700WAT     H253343   9.621   6.903   9.724
17701WAT      O53344   3.141   9.359   0.354
17701WAT     H153345   3.138   9.402   0.444
17701WAT     H253346   3.178   9.424   0.288
17702WAT      O53347   5.526   1.191   4.398
17702WAT     H153348   5.508   1.249   4.477
17702WAT     H253349   5.615   1.146   4.409
17703WAT      O53350   7.116   3.284   6.236
17703WAT     H153351   7.088   3.241   6.322
17703WAT     H253352   7.096   3.223   6.160
17704WAT      O53353   0.065   5.321   3.157
17704WAT     H153354   0.146   5.363   3.115
17704WAT     H253355   0.046   5.367   3.244
17705WAT      O53356   6.686   2.846   7.139
17705WAT     H153357   6.600   2.830   7.188
17705WAT     H253358   6.735   2.760   7.128
17706WAT      O53359   4.261   9.693   8.598
17706WAT     H153360   4.215   9.734   8.676
17706WAT     H253361   4.202   9.697   8.518
17707WAT      O53362   9.777   8.350   2.953
17707WAT     H153363   9.718   8.430   2.942
17707WAT     H253364   9.724   8.272   2.985
17708WAT      O53365   6.030   9.744   6.481
17708WAT     H153366   6.013   9.762   6.385
17708WAT     H253367   5.945   9.718   6.526
17709WAT      O53368   0.335   1.666   5.135
17709WAT     H153369   0.352   1.596   5.204
17709WAT     H253370   0.237   1.684   5.129
17710WAT      O53371   8.304   3.435   6.158
17710WAT     H153372   8.362   3.421   6.078
17710WAT     H253373   8.360   3.434   6.241
17711WAT      O53374   8.076   8.953   4.620
17711WAT     H153375   8.134   8.980   4.696
17711WAT     H253376   7.984   8.990   4.633
17712WAT      O53377   7.388   3.139   9.203
17712WAT     H153378   7.483   3.146   9.233
17712WAT     H253379   7.385   3.109   9.108
17713WAT      O53380   7.088   8.232   6.906
17713WAT     H153381   7.126   8.267   6.821
17713WAT     H253382   7.139   8.269   6.983
17714WAT      O53383   8.175   9.514   2.041
17714WAT     H153384   8.234   9.435   2.025
17714WAT     H253385   8.179   9.575   1.962
17715WAT      O53386   1.970   3.590   3.803
17715WAT     H153387   1.960   3.689   3.798
17715WAT     H253388   1.933   3.556   3.890
17716WAT      O53389   4.221   1.374   6.335
17716WAT     H153390   4.199   1.442   6.265
17716WAT     H253391   4.298   1.407   6.390
17717WAT      O53392   6.463   9.320   5.740
17717WAT     H153393   6.417   9.276   5.818
17717WAT     H253394   6.540   9.263   5.711
17718WAT      O53395   2.761   2.743   6.710
17718WAT     H153396   2.821   2.665   6.727
17718WAT     H253397   2.671   2.726   6.750
17719WAT      O53398   4.941   1.083   6.802
17719WAT     H153399   4.958   0.987   6.779
17719WAT     H253400   4.998   1.109   6.881
17720WAT      O53401   7.672   1.788   6.865
17720WAT     H153402   7.721   1.850   6.927
17720WAT     H253403   7.738   1.740   6.808
17721WAT      O53404   4.260   5.749   7.869
17721WAT     H153405   4.286   5.706   7.783
17721WAT     H253406   4.339   5.798   7.907
17722WAT      O53407   4.981   2.815   5.794
17722WAT     H153408   4.961   2.902   5.750
17722WAT     H253409   4.948   2.740   5.736
17723WAT      O53410   8.487   2.491   5.488
17723WAT     H153411   8.406   2.549   5.481
17723WAT     H253412   8.485   2.441   5.575
17724WAT      O53413   9.217   1.116   7.580
17724WAT     H153414   9.213   1.083   7.486
17724WAT     H253415   9.134   1.089   7.629
17725WAT      O53416   1.854   6.814   7.600
17725WAT     H153417   1.931   6.756   7.626
17725WAT     H253418   1.794   6.828   7.679
17726WAT      O53419   1.469   0.654   1.545
17726WAT     H153420   1.503   0.562   1.530
17726WAT     H253421   1.517   0.718   1.484
17727WAT      O53422   7.438   5.186   5.851
17727WAT     H153423   7.458   5.142   5.763
17727WAT     H253424   7.344   5.165   5.878
17728WAT      O53425   2.803   1.134   6.081
17728WAT     H153426   2.732   1.199   6.053
17728WAT     H253427   2.767   1.041   6.073
17729WAT      O53428   5.294   8.793   5.523
17729WAT     H153429   5.202   8.787   5.560
17729WAT     H253430   5.337   8.878   5.553
17730WAT      O53431   7.994   1.860   6.383
17730WAT     H153432   8.009   1.950   6.424
17730WAT     H253433   7.897   1.845   6.369
17731WAT      O53434   9.501   7.707   3.985
17731WAT     H153435   9.582   7.664   4.025
17731WAT     H253436   9.500   7.804   4.009
17732WAT      O53437   2.429   4.357   2.379
17732WAT     H153438   2.522   4.392   2.372
17732WAT     H253439   2.392   4.379   2.470
17733WAT      O53440   6.131   5.804   7.426
17733WAT     H153441   6.129   5.726   7.488
17733WAT     H253442   6.043   5.852   7.430
17734WAT      O53443   6.661   4.417   3.171
17734WAT     H153444   6.591   4.479   3.205
17734WAT     H253445   6.749   4.439   3.213
17735WAT      O53446   4.307   1.967   4.339
17735WAT     H153447   4.345   2.059   4.323
17735WAT     H253448   4.229   1.974   4.401
17736WAT      O53449   4.005   6.644   7.053
17736WAT     H153450   4.097   6.676   7.077
17736WAT     H253451   3.959   6.610   7.135
17737WAT      O53452   7.205   0.727   0.462
17737WAT     H153453   7.189   0.733   0.561
17737WAT     H253454   7.196   0.818   0.421
17738WAT      O53455   0.326   5.417   2.447
17738WAT     H153456   0.416   5.445   2.413
17738WAT     H253457   0.258   5.433   2.375
17739WAT      O53458   1.439   1.007   0.459
17739WAT     H153459   1.434   1.063   0.542
17739WAT     H253460   1.485   0.921   0.479
17740WAT      O53461   6.562   5.473   3.292
17740WAT     H153462   6.542   5.384   3.251
17740WAT     H253463   6.636   5.463   3.359
17741WAT      O53464   9.360   3.633   7.992
17741WAT     H153465   9.402   3.708   8.042
17741WAT     H253466   9.281   3.598   8.043
17742WAT      O53467   8.172   5.294   9.576
17742WAT     H153468   8.229   5.335   9.504
17742WAT     H253469   8.131   5.210   9.541
17743WAT      O53470   3.998   2.568   8.284
17743WAT     H153471   3.941   2.629   8.339
17743WAT     H253472   4.055   2.512   8.345
17744WAT      O53473   4.891   1.822   4.976
17744WAT     H153474   4.843   1.831   4.888
17744WAT     H253475   4.823   1.807   5.048
17745WAT      O53476   6.821   7.991   6.139
17745WAT     H153477   6.867   8.036   6.215
17745WAT     H253478   6.766   8.058   6.088
17746WAT      O53479   9.221   9.789   1.533
17746WAT     H153480   9.216   9.746   1.623
17746WAT     H253481   9.182   9.881   1.538
17747WAT      O53482   5.782   8.431   6.566
17747WAT     H153483   5.863   8.403   6.618
17747WAT     H253484   5.701   8.384   6.601
17748WAT      O53485   7.507   2.059   2.883
17748WAT     H153486   7.476   2.145   2.925
17748WAT     H253487   7.458   1.982   2.925
17749WAT      O53488   9.005   3.319   9.128
17749WAT     H153489   9.018   3.374   9.045
17749WAT     H253490   8.908   3.293   9.135
17750WAT      O53491   6.907   1.119   8.097
17750WAT     H153492   6.909   1.113   8.197
17750WAT     H253493   6.993   1.160   8.065
17751WAT      O53494   9.611   8.622   4.999
17751WAT     H153495   9.527   8.612   4.946
17751WAT     H253496   9.652   8.711   4.979
17752WAT      O53497   7.994   4.432   8.463
17752WAT     H153498   7.935   4.394   8.535
17752WAT     H253499   7.950   4.512   8.423
17753WAT      O53500   3.046   5.093   9.703
17753WAT     H153501   3.041   4.994   9.710
17753WAT     H253502   3.058   5.119   9.607
17754WAT      O53503   1.248   9.123   8.987
17754WAT     H153504   1.235   9.070   8.903
17754WAT     H253505   1.300   9.206   8.967
17755WAT      O53506   3.816   7.330   6.021
17755WAT     H153507   3.885   7.363   6.085
17755WAT     H253508   3.760   7.259   6.065
17756WAT      O53509   6.998   4.971   3.041
17756WAT     H153510   6.919   4.965   2.980
17756WAT     H253511   7.080   4.994   2.988
17757WAT      O53512   3.871   1.643   8.450
17757WAT     H153513   3.911   1.715   8.507
17757WAT     H253514   3.859   1.560   8.504
17758WAT      O53515   5.366   8.017   8.100
17758WAT     H153516   5.314   8.039   8.018
17758WAT     H253517   5.418   8.098   8.130
17759WAT      O53518   9.326   8.109   3.479
17759WAT     H153519   9.277   8.024   3.498
17759WAT     H253520   9.283   8.185   3.527
17760WAT      O53521   5.785   9.467   3.832
17760WAT     H153522   5.820   9.514   3.751
17760WAT     H253523   5.729   9.389   3.803
17761WAT      O53524   2.963   8.848   1.230
17761WAT     H153525   2.941   8.852   1.133
17761WAT     H253526   2.892   8.798   1.279
17762WAT      O53527   2.798   8.321   7.049
17762WAT     H153528   2.747   8.243   7.085
17762WAT     H253529   2.896   8.306   7.064
17763WAT      O53530   6.013   7.172   3.619
17763WAT     H153531   5.956   7.120   3.682
17763WAT     H253532   6.089   7.215   3.668
17764WAT      O53533   3.552   9.523   8.807
17764WAT     H153534   3.638   9.529   8.757
17764WAT     H253535   3.480   9.571   8.756
17765WAT      O53536   2.744   0.265   7.436
17765WAT     H153537   2.658   0.273   7.385
17765WAT     H253538   2.761   0.170   7.458
17766WAT      O53539   6.660   6.476   1.205
17766WAT     H153540   6.574   6.491   1.157
17766WAT     H253541   6.731   6.451   1.139
17767WAT      O53542   8.684   1.494   3.950
17767WAT     H153543   8.712   1.423   4.014
17767WAT     H253544   8.599   1.466   3.904
17768WAT      O53545   4.725   8.644   1.690
17768WAT     H153546   4.725   8.575   1.762
17768WAT     H253547   4.630   8.662   1.662
17769WAT      O53548   4.039   4.365   6.369
17769WAT     H153549   4.095   4.366   6.287
17769WAT     H253550   4.024   4.271   6.399
17770WAT      O53551   3.739   9.228   5.786
17770WAT     H153552   3.812   9.193   5.727
17770WAT     H253553   3.654   9.179   5.767
17771WAT      O53554   4.850   3.356   9.079
17771WAT     H153555   4.840   3.272   9.025
17771WAT     H253556   4.769   3.413   9.067
17772WAT      O53557   1.834   1.199   7.235
17772WAT     H153558   1.898   1.264   7.275
17772WAT     H253559   1.866   1.106   7.251
17773WAT      O53560   5.857   3.095   7.631
17773WAT     H153561   5.785   3.164   7.625
17773WAT     H253562   5.944   3.135   7.607
17774WAT      O53563   0.409   0.830   7.757
17774WAT     H153564   0.333   0.864   7.813
17774WAT     H253565   0.418   0.887   7.675
17775WAT      O53566   7.771   6.958   7.965
17775WAT     H153567   7.742   6.933   8.057
17775WAT     H253568   7.737   7.049   7.942
17776WAT      O53569   7.408   9.840   3.916
17776WAT     H153570   7.312   9.848   3.891
17776WAT     H253571   7.423   9.881   4.006
17777WAT      O53572   9.529   8.242   4.327
17777WAT     H153573   9.471   8.319   4.352
17777WAT     H253574   9.490   8.157   4.363
17778WAT      O53575   9.457   3.419   8.738
17778WAT     H153576   9.504   3.335   8.713
17778WAT     H253577   9.516   3.475   8.796
17779WAT      O53578   8.157   4.623   2.538
17779WAT     H153579   8.240   4.584   2.576
17779WAT     H253580   8.123   4.695   2.598
17780WAT      O53581   5.138   2.469   7.455
17780WAT     H153582   5.132   2.401   7.382
17780WAT     H253583   5.228   2.511   7.455
17781WAT      O53584   4.027   2.790   9.281
17781WAT     H153585   4.036   2.808   9.379
17781WAT     H253586   4.102   2.731   9.251
17782WAT      O53587   5.299   5.248   1.767
17782WAT     H153588   5.335   5.308   1.838
17782WAT     H253589   5.297   5.154   1.801
17783WAT      O53590   1.012   1.718   0.282
17783WAT     H153591   1.041   1.796   0.227
17783WAT     H253592   0.919   1.691   0.255
17784WAT      O53593   3.552   3.854   9.320
17784WAT     H153594   3.610   3.773   9.322
17784WAT     H253595   3.516   3.867   9.227
17785WAT      O53596   8.096   4.640   0.202
17785WAT     H153597   8.081   4.693   0.285
17785WAT     H253598   8.116   4.701   0.126
17786WAT      O53599   3.519   4.228   0.469
17786WAT     H153600   3.533   4.318   0.510
17786WAT     H253601   3.521   4.158   0.540
17787WAT      O53602   9.258   2.517   7.692
17787WAT     H153603   9.226   2.567   7.772
17787WAT     H253604   9.306   2.434   7.722
17788WAT      O53605   6.441   5.410   0.874
17788WAT     H153606   6.453   5.485   0.940
17788WAT     H253607   6.364   5.432   0.814
17789WAT      O53608   2.291   9.414   6.600
17789WAT     H153609   2.271   9.501   6.556
17789WAT     H253610   2.206   9.375   6.636
17790WAT      O53611   0.059   8.896   9.545
17790WAT     H153612   0.145   8.946   9.536
17790WAT     H253613   0.062   8.837   9.625
17791WAT      O53614   8.516   3.578   7.554
17791WAT     H153615   8.418   3.590   7.543
17791WAT     H253616   8.535   3.485   7.586
17792WAT      O53617   5.829   5.256   6.999
17792WAT     H153618   5.779   5.170   6.996
17792WAT     H253619   5.801   5.309   7.078
17793WAT      O53620   8.202   2.661   8.949
17793WAT     H153621   8.105   2.651   8.929
17793WAT     H253622   8.249   2.575   8.928
17794WAT      O53623   1.063   8.914   1.211
17794WAT     H153624   1.081   9.012   1.201
17794WAT     H253625   1.089   8.867   1.127
17795WAT      O53626   4.675   6.650   5.427
17795WAT     H153627   4.575   6.647   5.439
17795WAT     H253628   4.719   6.611   5.509
17796WAT      O53629   9.182   2.911   5.802
17796WAT     H153630   9.248   2.839   5.823
17796WAT     H253631   9.139   2.892   5.714
17797WAT      O53632   1.524   7.205   7.997
17797WAT     H153633   1.522   7.270   8.073
17797WAT     H253634   1.444   7.145   8.002
17798WAT      O53635   1.948   3.062   3.247
17798WAT     H153636   1.993   2.974   3.264
17798WAT     H253637   1.956   3.119   3.329
17799WAT      O53638   7.385   7.258   4.048
17799WAT     H153639   7.445   7.311   4.109
17799WAT     H253640   7.365   7.312   3.967
17800WAT      O53641   4.790   1.663   5.511
17800WAT     H153642   4.797   1.761   5.491
17800WAT     H253643   4.694   1.638   5.524
17801WAT      O53644   0.859   6.463   3.570
17801WAT     H153645   0.780   6.456   3.631
17801WAT     H253646   0.827   6.473   3.476
17802WAT      O53647   6.544   6.913   0.066
17802WAT     H153648   6.461   6.937   0.015
17802WAT     H253649   6.610   6.988   0.058
17803WAT      O53650   7.083   4.240   1.911
17803WAT     H153651   7.164   4.182   1.917
17803WAT     H253652   7.007   4.186   1.874
17804WAT      O53653   9.721   3.332   8.973
17804WAT     H153654   9.703   3.236   8.996
17804WAT     H253655   9.776   3.374   9.045
17805WAT      O53656   2.906   8.447   2.645
17805WAT     H153657   2.848   8.489   2.575
17805WAT     H253658   2.995   8.493   2.647
17806WAT      O53659   7.000   8.472   5.684
17806WAT     H153660   7.039   8.557   5.718
17806WAT     H253661   7.045   8.446   5.598
17807WAT      O53662   6.676   7.315   5.729
17807WAT     H153663   6.738   7.245   5.763
17807WAT     H253664   6.581   7.288   5.749
17808WAT      O53665   4.147   4.731   0.409
17808WAT     H153666   4.094   4.662   0.361
17808WAT     H253667   4.241   4.699   0.420
17809WAT      O53668   0.174   6.804   3.898
17809WAT     H153669   0.104   6.875   3.909
17809WAT     H253670   0.254   6.828   3.953
17810WAT      O53671   0.824   0.784   7.040
17810WAT     H153672   0.883   0.772   7.120
17810WAT     H253673   0.738   0.736   7.054
17811WAT      O53674   6.926   6.738   6.717
17811WAT     H153675   6.843   6.753   6.771
17811WAT     H253676   6.943   6.818   6.659
17812WAT      O53677   2.249   8.093   1.735
17812WAT     H153678   2.173   8.157   1.741
17812WAT     H253679   2.217   8.000   1.754
17813WAT      O53680   4.990   2.575   0.447
17813WAT     H153681   4.970   2.636   0.370
17813WAT     H253682   4.929   2.496   0.445
17814WAT      O53683   7.769   8.228   6.170
17814WAT     H153684   7.825   8.247   6.250
17814WAT     H253685   7.780   8.132   6.144
17815WAT      O53686   4.568   7.983   8.929
17815WAT     H153687   4.617   7.927   8.995
17815WAT     H253688   4.559   8.076   8.964
17816WAT      O53689   2.861   0.194   3.194
17816WAT     H153690   2.812   0.280   3.210
17816WAT     H253691   2.937   0.188   3.259
17817WAT      O53692   8.681   9.367   7.841
17817WAT     H153693   8.621   9.400   7.914
17817WAT     H253694   8.776   9.390   7.863
17818WAT      O53695   3.748   9.469   5.866
17818WAT     H153696   3.760   9.523   5.782
17818WAT     H253697   3.715   9.378   5.842
17819WAT      O53698   7.488   6.214   4.078
17819WAT     H153699   7.554   6.288   4.091
17819WAT     H253700   7.396   6.247   4.098
17820WAT      O53701   0.714   5.148   4.916
17820WAT     H153702   0.757   5.070   4.872
17820WAT     H253703   0.784   5.213   4.944
17821WAT      O53704   2.508   0.268   2.997
17821WAT     H153705   2.409   0.281   2.999
17821WAT     H253706   2.552   0.351   2.961
17822WAT      O53707   8.579   6.163   2.621
17822WAT     H153708   8.480   6.149   2.618
17822WAT     H253709   8.604   6.233   2.554
17823WAT      O53710   5.304   9.522   0.951
17823WAT     H153711   5.399   9.544   0.932
17823WAT     H253712   5.265   9.590   1.013
17824WAT      O53713   7.375   7.328   4.848
17824WAT     H153714   7.439   7.299   4.777
17824WAT     H253715   7.420   7.324   4.937
17825WAT      O53716   6.394   5.691   4.118
17825WAT     H153717   6.457   5.672   4.043
17825WAT     H253718   6.437   5.756   4.181
17826WAT      O53719   5.205   1.015   5.000
17826WAT     H153720   5.144   1.045   4.928
17826WAT     H253721   5.170   1.045   5.089
17827WAT      O53722   5.356   1.727   4.909
17827WAT     H153723   5.387   1.822   4.911
17827WAT     H253724   5.374   1.688   4.819
17828WAT      O53725   8.022   4.494   0.643
17828WAT     H153726   8.082   4.569   0.614
17828WAT     H253727   7.984   4.449   0.563
17829WAT      O53728   8.289   0.489   4.098
17829WAT     H153729   8.234   0.501   4.181
17829WAT     H253730   8.318   0.394   4.090
17830WAT      O53731   7.896   0.660   8.956
17830WAT     H153732   7.881   0.714   9.039
17830WAT     H253733   7.993   0.637   8.948
17831WAT      O53734   6.304   1.477   9.207
17831WAT     H153735   6.205   1.466   9.216
17831WAT     H253736   6.344   1.391   9.174
17832WAT      O53737   4.470   9.730   1.355
17832WAT     H153738   4.442   9.700   1.447
17832WAT     H253739   4.569   9.721   1.346
17833WAT      O53740   5.160   7.344   7.635
17833WAT     H153741   5.141   7.402   7.556
17833WAT     H253742   5.076   7.295   7.661
17834WAT      O53743   5.197   0.564   2.536
17834WAT     H153744   5.114   0.614   2.509
17834WAT     H253745   5.267   0.574   2.465
17835WAT      O53746   2.643   2.195   1.494
17835WAT     H153747   2.622   2.257   1.569
17835WAT     H253748   2.683   2.247   1.418
17836WAT      O53749   0.713   1.026   4.677
17836WAT     H153750   0.629   1.004   4.728
17836WAT     H253751   0.745   0.945   4.629
17837WAT      O53752   4.580   3.976   7.667
17837WAT     H153753   4.642   4.042   7.709
17837WAT     H253754   4.634   3.900   7.630
17838WAT      O53755   3.001   6.424   7.325
17838WAT     H153756   3.025   6.327   7.325
17838WAT     H253757   3.081   6.478   7.353
17839WAT      O53758   4.822   0.312   5.858
17839WAT     H153759   4.825   0.331   5.760
17839WAT     H253760   4.752   0.244   5.876
17840WAT      O53761   5.475   2.493   3.554
17840WAT     H153762   5.402   2.457   3.612
17840WAT     H253763   5.487   2.591   3.572
17841WAT      O53764   5.597   9.636   9.269
17841WAT     H153765   5.625   9.628   9.365
17841WAT     H253766   5.622   9.727   9.235
17842WAT      O53767   9.335   4.253   8.282
17842WAT     H153768   9.275   4.246   8.202
17842WAT     H253769   9.285   4.221   8.363
17843WAT      O53770   4.814   4.787   7.439
17843WAT     H153771   4.855   4.703   7.474
17843WAT     H253772   4.791   4.847   7.515
17844WAT      O53773   6.057   1.552   2.957
17844WAT     H153774   6.072   1.514   3.048
17844WAT     H253775   6.138   1.536   2.900
17845WAT      O53776   4.881   7.778   0.435
17845WAT     H153777   4.897   7.858   0.377
17845WAT     H253778   4.943   7.704   0.407
17846WAT      O53779   8.168   0.666   1.474
17846WAT     H153780   8.208   0.574   1.466
17846WAT     H253781   8.087   0.661   1.533
17847WAT      O53782   3.219   8.186   5.833
17847WAT     H153783   3.303   8.132   5.820
17847WAT     H253784   3.215   8.259   5.765
17848WAT      O53785   6.297   5.460   4.506
17848WAT     H153786   6.247   5.527   4.452
17848WAT     H253787   6.261   5.368   4.488
17849WAT      O53788   1.742   0.270   6.649
17849WAT     H153789   1.661   0.242   6.700
17849WAT     H253790   1.785   0.347   6.695
17850WAT      O53791   4.936   2.387   2.858
17850WAT     H153792   4.901   2.345   2.774
17850WAT     H253793   4.870   2.374   2.932
17851WAT      O53794   5.822   8.895   0.863
17851WAT     H153795   5.825   8.864   0.958
17851WAT     H253796   5.901   8.859   0.814
17852WAT      O53797   5.542   3.698   2.092
17852WAT     H153798   5.529   3.613   2.042
17852WAT     H253799   5.640   3.717   2.102
17853WAT      O53800   5.348   5.396   0.693
17853WAT     H153801   5.369   5.458   0.769
17853WAT     H253802   5.316   5.308   0.730
17854WAT      O53803   6.978   0.113   2.173
17854WAT     H153804   6.963   0.050   2.250
17854WAT     H253805   6.991   0.206   2.208
17855WAT      O53806   9.055   7.402   4.976
17855WAT     H153807   9.068   7.370   4.882
17855WAT     H253808   8.957   7.400   4.999
17856WAT      O53809   7.540   3.749   2.690
17856WAT     H153810   7.523   3.651   2.696
17856WAT     H253811   7.629   3.770   2.730
17857WAT      O53812   3.290   7.939   7.487
17857WAT     H153813   3.302   7.841   7.476
17857WAT     H253814   3.222   7.972   7.422
17858WAT      O53815   6.991   5.396   4.894
17858WAT     H153816   7.007   5.386   4.796
17858WAT     H253817   6.917   5.460   4.909
17859WAT      O53818   1.421   2.670   0.015
17859WAT     H153819   1.371   2.631  -0.062
17859WAT     H253820   1.485   2.602   0.051
17860WAT      O53821   5.774   3.061   0.263
17860WAT     H153822   5.830   3.143   0.270
17860WAT     H253823   5.757   3.024   0.355
17861WAT      O53824   5.947   6.581   4.882
17861WAT     H153825   6.005   6.514   4.837
17861WAT     H253826   5.919   6.546   4.972
17862WAT      O53827   0.342   6.657   2.571
17862WAT     H153828   0.382   6.574   2.610
17862WAT     H253829   0.257   6.633   2.523
17863WAT      O53830   6.961   8.221   4.503
17863WAT     H153831   7.027   8.154   4.537
17863WAT     H253832   6.898   8.245   4.576
17864WAT      O53833   5.174   6.758   4.692
17864WAT     H153834   5.251   6.711   4.649
17864WAT     H253835   5.134   6.698   4.763
17865WAT      O53836   0.646   9.547   4.954
17865WAT     H153837   0.702   9.571   5.034
17865WAT     H253838   0.550   9.561   4.975
17866WAT      O53839   0.291   7.648   0.008
17866WAT     H153840   0.331   7.731   0.047
17866WAT     H253841   0.346   7.616  -0.068
17867WAT      O53842   8.699   2.521   6.531
17867WAT     H153843   8.726   2.586   6.602
17867WAT     H253844   8.687   2.571   6.445
17868WAT      O53845   5.181   3.640   0.603
17868WAT     H153846   5.161   3.547   0.574
17868WAT     H253847   5.172   3.646   0.703
17869WAT      O53848   6.804   5.549   3.450
17869WAT     H153849   6.851   5.533   3.537
17869WAT     H253850   6.783   5.647   3.441
17870WAT      O53851   5.536   0.368   1.036
17870WAT     H153852   5.480   0.373   1.119
17870WAT     H253853   5.478   0.379   0.956
17871WAT      O53854   4.049   1.757   2.913
17871WAT     H153855   3.955   1.756   2.878
17871WAT     H253856   4.084   1.664   2.920
17872WAT      O53857   0.034   6.563   8.043
17872WAT     H153858   0.083   6.511   8.113
17872WAT     H253859  -0.048   6.604   8.083
17873WAT      O53860   5.279   0.338   9.259
17873WAT     H153861   5.285   0.376   9.352
17873WAT     H253862   5.292   0.412   9.193
17874WAT      O53863   1.313   9.141   8.682
17874WAT     H153864   1.406   9.138   8.717
17874WAT     H253865   1.297   9.064   8.621
17875WAT      O53866   5.348   9.821   7.759
17875WAT     H153867   5.259   9.796   7.721
17875WAT     H253868   5.417   9.815   7.687
17876WAT      O53869   8.751   2.704   2.699
17876WAT     H153870   8.832   2.736   2.749
17876WAT     H253871   8.697   2.782   2.670
17877WAT      O53872   8.180   8.058   8.606
17877WAT     H153873   8.242   8.081   8.530
17877WAT     H253874   8.178   7.959   8.618
17878WAT      O53875   9.871   7.738   8.921
17878WAT     H153876   9.947   7.787   8.879
17878WAT     H253877   9.896   7.642   8.931
17879WAT      O53878   5.448   7.402   2.768
17879WAT     H153879   5.527   7.440   2.720
17879WAT     H253880   5.410   7.472   2.828
17880WAT      O53881   1.710   8.836   1.159
17880WAT     H153882   1.757   8.903   1.101
17880WAT     H253883   1.775   8.765   1.187
17881WAT      O53884   3.837   0.503   4.151
17881WAT     H153885   3.920   0.483   4.203
17881WAT     H253886   3.824   0.602   4.147
17882WAT      O53887   3.735   3.473   2.729
17882WAT     H153888   3.784   3.519   2.803
17882WAT     H253889   3.647   3.518   2.713
17883WAT      O53890   5.784   2.963   7.214
17883WAT     H153891   5.853   3.006   7.155
17883WAT     H253892   5.811   2.869   7.234
17884WAT      O53893   1.595   1.160   0.291
17884WAT     H153894   1.541   1.106   0.355
17884WAT     H253895   1.548   1.246   0.272
17885WAT      O53896   5.638   2.727   3.400
17885WAT     H153897   5.600   2.751   3.490
17885WAT     H253898   5.564   2.702   3.338
17886WAT      O53899   3.049   8.057   3.879
17886WAT     H153900   3.038   8.141   3.825
17886WAT     H253901   3.074   8.082   3.972
17887WAT      O53902   2.702   5.638   1.458
17887WAT     H153903   2.674   5.704   1.527
17887WAT     H253904   2.724   5.685   1.373
17888WAT      O53905   0.534   6.053   1.643
17888WAT     H153906   0.595   6.085   1.571
17888WAT     H253907   0.578   6.064   1.732
17889WAT      O53908   0.799   4.461   2.426
17889WAT     H153909   0.816   4.528   2.354
17889WAT     H253910   0.855   4.379   2.408
17890WAT      O53911   2.890   3.457   4.498
17890WAT     H153912   2.838   3.504   4.570
17890WAT     H253913   2.838   3.462   4.413
17891WAT      O53914   8.005   7.394   1.432
17891WAT     H153915   8.074   7.465   1.448
17891WAT     H253916   7.994   7.381   1.333
17892WAT      O53917   7.589   2.540   4.557
17892WAT     H153918   7.655   2.465   4.555
17892WAT     H253919   7.536   2.539   4.472
17893WAT      O53920   6.666   7.633   1.952
17893WAT     H153921   6.601   7.557   1.958
17893WAT     H253922   6.694   7.661   2.044
17894WAT      O53923   6.090   0.843   1.546
17894WAT     H153924   6.180   0.870   1.581
17894WAT     H253925   6.056   0.912   1.483
17895WAT      O53926   1.818   3.197   5.789
17895WAT     H153927   1.871   3.114   5.807
17895WAT     H253928   1.720   3.174   5.788
17896WAT      O53929   8.668   6.906   8.836
17896WAT     H153930   8.600   6.841   8.870
17896WAT     H253931   8.668   6.987   8.894
17897WAT      O53932   5.412   8.367   0.679
17897WAT     H153933   5.325   8.407   0.706
17897WAT     H253934   5.472   8.439   0.643
17898WAT      O53935   8.178   7.078   0.498
17898WAT     H153936   8.091   7.059   0.453
17898WAT     H253937   8.161   7.122   0.586
17899WAT      O53938   9.751   6.008   8.499
17899WAT     H153939   9.802   6.085   8.460
17899WAT     H253940   9.655   6.014   8.473
17900WAT      O53941   7.538   2.073   1.045
17900WAT     H153942   7.460   2.078   0.982
17900WAT     H253943   7.544   2.158   1.098
17901WAT      O53944   7.825   1.382   2.548
17901WAT     H153945   7.822   1.376   2.648
17901WAT     H253946   7.833   1.478   2.521
17902WAT      O53947   9.226   0.674   4.504
17902WAT     H153948   9.282   0.613   4.448
17902WAT     H253949   9.217   0.762   4.457
17903WAT      O53950   9.320   6.428   7.282
17903WAT     H153951   9.370   6.452   7.365
17903WAT     H253952   9.236   6.483   7.276
17904WAT      O53953   6.049   6.417   3.714
17904WAT     H153954   6.004   6.505   3.697
17904WAT     H253955   6.119   6.429   3.785
17905WAT      O53956   1.913   8.491   9.253
17905WAT     H153957   1.860   8.407   9.242
17905WAT     H253958   1.993   8.472   9.311
17906WAT      O53959   8.752   9.011   4.364
17906WAT     H153960   8.665   8.970   4.391
17906WAT     H253961   8.793   8.957   4.291
17907WAT      O53962   1.243   6.514   5.869
17907WAT     H153963   1.322   6.532   5.811
17907WAT     H253964   1.274   6.490   5.961
17908WAT      O53965   8.553   2.809   3.173
17908WAT     H153966   8.598   2.801   3.084
17908WAT     H253967   8.492   2.888   3.171
17909WAT      O53968   7.963   0.861   7.701
17909WAT     H153969   8.047   0.859   7.756
17909WAT     H253970   7.906   0.938   7.732
17910WAT      O53971   2.177   9.801   0.972
17910WAT     H153972   2.261   9.818   0.920
17910WAT     H253973   2.155   9.881   1.027
17911WAT      O53974   9.391   8.812   4.004
17911WAT     H153975   9.338   8.881   3.954
17911WAT     H253976   9.478   8.852   4.033
17912WAT      O53977   9.143   9.309   4.910
17912WAT     H153978   9.049   9.338   4.892
17912WAT     H253979   9.205   9.348   4.842
17913WAT      O53980   9.737   6.682   3.384
17913WAT     H153981   9.655   6.656   3.335
17913WAT     H253982   9.715   6.752   3.452
17914WAT      O53983   5.429   1.576   9.617
17914WAT     H153984   5.514   1.617   9.582
17914WAT     H253985   5.358   1.646   9.621
17915WAT      O53986   9.351   6.238   5.211
17915WAT     H153987   9.397   6.289   5.283
17915WAT     H253988   9.375   6.141   5.217
17916WAT      O53989   8.584   3.354   0.055
17916WAT     H153990   8.677   3.338   0.086
17916WAT     H253991   8.520   3.308   0.117
17917WAT      O53992   9.744   1.649   7.596
17917WAT     H153993   9.693   1.576   7.642
17917WAT     H253994   9.717   1.738   7.634
17918WAT      O53995   6.269   7.421   0.003
17918WAT     H153996   6.350   7.477  -0.011
17918WAT     H253997   6.239   7.429   0.098
17919WAT      O53998   9.363   6.865   2.990
17919WAT     H153999   9.355   6.813   3.075
17919WAT     H254000   9.309   6.949   2.998
17920WAT      O54001   0.169   1.961   5.275
17920WAT     H154002   0.114   1.888   5.234
17920WAT     H254003   0.121   1.999   5.354
17921WAT      O54004   3.265   3.810   1.728
17921WAT     H154005   3.234   3.715   1.734
17921WAT     H254006   3.338   3.826   1.795
17922WAT      O54007   0.186   4.778   9.334
17922WAT     H154008   0.132   4.700   9.366
17922WAT     H254009   0.235   4.818   9.412
17923WAT      O54010   0.717   3.949   8.976
17923WAT     H154011   0.751   3.903   9.059
17923WAT     H254012   0.758   3.906   8.896
17924WAT      O54013   9.381   6.442   0.755
17924WAT     H154014   9.306   6.505   0.775
17924WAT     H254015   9.350   6.370   0.693
17925WAT      O54016   5.561   8.889   6.167
17925WAT     H154017   5.630   8.844   6.111
17925WAT     H254018   5.560   8.987   6.146
17926WAT      O54019   3.214   0.322   3.047
17926WAT     H154020   3.190   0.385   3.120
17926WAT     H254021   3.309   0.291   3.060
17927WAT      O54022   0.357   0.111   4.418
17927WAT     H154023   0.357   0.149   4.326
17927WAT     H254024   0.266   0.123   4.459
17928WAT      O54025   0.289   6.594   6.549
17928WAT     H154026   0.273   6.659   6.475
17928WAT     H254027   0.309   6.504   6.511
17929WAT      O54028   0.754   3.974   6.809
17929WAT     H154029   0.684   4.001   6.743
17929WAT     H254030   0.826   3.923   6.763
17930WAT      O54031   1.915   8.462   9.661
17930WAT     H154032   1.964   8.465   9.574
17930WAT     H254033   1.817   8.458   9.644
17931WAT      O54034   2.277   4.917   2.353
17931WAT     H154035   2.365   4.965   2.366
17931WAT     H254036   2.289   4.843   2.287
17932WAT      O54037   3.736   1.522   3.906
17932WAT     H154038   3.721   1.446   3.968
17932WAT     H254039   3.677   1.512   3.826
17933WAT      O54040   3.893   0.088   9.407
17933WAT     H154041   3.925   0.162   9.465
17933WAT     H254042   3.893   0.119   9.311
17934WAT      O54043   6.110   5.491   0.357
17934WAT     H154044   6.105   5.572   0.416
17934WAT     H254045   6.052   5.505   0.276
17935WAT      O54046   8.522   7.754   9.715
17935WAT     H154047   8.446   7.703   9.754
17935WAT     H254048   8.545   7.831   9.774
17936WAT      O54049   7.432   8.171   9.244
17936WAT     H154050   7.452   8.269   9.246
17936WAT     H254051   7.410   8.140   9.337
17937WAT      O54052   8.469   3.090   6.781
17937WAT     H154053   8.388   3.145   6.760
17937WAT     H254054   8.441   3.004   6.823
17938WAT      O54055   0.413   7.936   9.698
17938WAT     H154056   0.380   8.025   9.667
17938WAT     H254057   0.512   7.942   9.715
17939WAT      O54058   9.002   3.802   6.146
17939WAT     H154059   8.938   3.736   6.107
17939WAT     H254060   9.083   3.755   6.179
17940WAT      O54061   9.762   5.161   7.694
17940WAT     H154062   9.848   5.211   7.701
17940WAT     H254063   9.701   5.208   7.631
17941WAT      O54064   7.350   4.922   2.355
17941WAT     H154065   7.323   4.893   2.447
17941WAT     H254066   7.358   4.842   2.295
17942WAT      O54067   1.231   7.309   4.776
17942WAT     H154068   1.133   7.302   4.791
17942WAT     H254069   1.259   7.405   4.781
17943WAT      O54070   7.432   7.001   6.069
17943WAT     H154071   7.441   6.913   6.023
17943WAT     H254072   7.460   7.074   6.006
17944WAT      O54073   0.783   8.351   9.514
17944WAT     H154074   0.745   8.285   9.450
17944WAT     H254075   0.834   8.303   9.585
17945WAT      O54076   9.422   6.720   8.180
17945WAT     H154077   9.343   6.727   8.242
17945WAT     H254078   9.397   6.757   8.090
17946WAT      O54079   8.558   2.409   2.246
17946WAT     H154080   8.640   2.394   2.300
17946WAT     H254081   8.583   2.445   2.156
17947WAT      O54082   3.831   2.770   4.229
17947WAT     H154083   3.916   2.809   4.191
17947WAT     H254084   3.805   2.821   4.310
17948WAT      O54085   1.110   8.480   1.533
17948WAT     H154086   1.091   8.520   1.443
17948WAT     H254087   1.209   8.467   1.543
17949WAT      O54088   2.415   3.102   9.434
17949WAT     H154089   2.504   3.069   9.465
17949WAT     H254090   2.384   3.176   9.493
17950WAT      O54091   6.240   2.995   2.705
17950WAT     H154092   6.207   2.915   2.756
17950WAT     H254093   6.234   3.076   2.763
17951WAT      O54094   7.310   4.622   7.866
17951WAT     H154095   7.247   4.691   7.831
17951WAT     H254096   7.396   4.628   7.815
17952WAT      O54097   8.431   7.609   5.023
17952WAT     H154098   8.402   7.577   5.114
17952WAT     H254099   8.385   7.555   4.953
17953WAT      O54100   5.397   0.122   9.322
17953WAT     H154101   5.461   0.081   9.258
17953WAT     H254102   5.353   0.201   9.279
17954WAT      O54103   7.471   0.887   2.202
17954WAT     H154104   7.563   0.873   2.240
17954WAT     H254105   7.403   0.863   2.271
17955WAT      O54106   8.035   2.187   0.528
17955WAT     H154107   7.965   2.252   0.500
17955WAT     H254108   8.105   2.234   0.581
17956WAT      O54109   3.953   1.131   2.157
17956WAT     H154110   4.034   1.074   2.145
17956WAT     H254111   3.880   1.077   2.200
17957WAT      O54112   8.080   2.642   2.861
17957WAT     H154113   8.030   2.710   2.808
17957WAT     H254114   8.100   2.680   2.952
17958WAT      O54115   7.667   2.406   7.772
17958WAT     H154116   7.655   2.472   7.698
17958WAT     H254117   7.765   2.392   7.788
17959WAT      O54118   1.070   7.378   6.077
17959WAT     H154119   1.084   7.282   6.054
17959WAT     H254120   0.973   7.396   6.091
17960WAT      O54121   3.276   7.137   2.703
17960WAT     H154122   3.221   7.108   2.625
17960WAT     H254123   3.231   7.108   2.788
17961WAT      O54124   9.502   6.111   1.043
17961WAT     H154125   9.490   6.073   1.135
17961WAT     H254126   9.511   6.036   0.977
17962WAT      O54127   5.015   1.763   2.059
17962WAT     H154128   5.056   1.819   2.131
17962WAT     H254129   5.000   1.819   1.977
17963WAT      O54130   2.499   4.664   7.018
17963WAT     H154131   2.529   4.699   7.106
17963WAT     H254132   2.573   4.674   6.951
17964WAT      O54133   6.856   3.363   0.702
17964WAT     H154134   6.934   3.364   0.639
17964WAT     H254135   6.885   3.397   0.792
17965WAT      O54136   0.502   5.821   7.526
17965WAT     H154137   0.466   5.873   7.603
17965WAT     H254138   0.571   5.756   7.559
17966WAT      O54139   2.666   6.517   7.010
17966WAT     H154140   2.718   6.594   6.972
17966WAT     H254141   2.652   6.448   6.939
17967WAT      O54142   6.777   8.617   3.843
17967WAT     H154143   6.815   8.645   3.755
17967WAT     H254144   6.819   8.530   3.871
17968WAT      O54145   3.423   3.456   4.029
17968WAT     H154146   3.500   3.393   4.025
17968WAT     H254147   3.361   3.438   3.953
17969WAT      O54148   7.015   1.534   0.240
17969WAT     H154149   6.954   1.521   0.318
17969WAT     H254150   6.995   1.465   0.170
17970WAT      O54151   6.165   8.996   4.715
17970WAT     H154152   6.241   9.020   4.775
17970WAT     H254153   6.095   9.067   4.721
17971WAT      O54154   2.106   0.392   6.129
17971WAT     H154155   2.194   0.353   6.103
17971WAT     H254156   2.051   0.323   6.176
17972WAT      O54157   8.730   7.947   9.325
17972WAT     H154158   8.669   7.952   9.404
17972WAT     H254159   8.775   8.036   9.312
17973WAT      O54160   4.775   8.473   6.715
17973WAT     H154161   4.842   8.545   6.697
17973WAT     H254162   4.730   8.491   6.802
17974WAT      O54163   2.238   6.261   1.728
17974WAT     H154164   2.244   6.340   1.789
17974WAT     H254165   2.194   6.185   1.776
17975WAT      O54166   5.965   1.170   1.926
17975WAT     H154167   6.032   1.099   1.947
17975WAT     H254168   5.887   1.129   1.879
17976WAT      O54169   3.788   1.667   8.882
17976WAT     H154170   3.768   1.752   8.833
17976WAT     H254171   3.767   1.589   8.823
17977WAT      O54172   9.796   0.732   0.961
17977WAT     H154173   9.819   0.784   1.044
17977WAT     H254174   9.880   0.698   0.919
17978WAT      O54175   0.562   8.065   6.073
17978WAT     H154176   0.537   8.062   5.976
17978WAT     H254177   0.660   8.077   6.082
17979WAT      O54178   4.310   2.977   0.289
17979WAT     H154179   4.239   2.955   0.222
17979WAT     H254180   4.283   2.941   0.379
17980WAT      O54181   9.114   9.341   5.168
17980WAT     H154182   9.129   9.350   5.070
17980WAT     H254183   9.076   9.251   5.188
17981WAT      O54184   5.063   6.087   5.138
17981WAT     H154185   5.106   6.007   5.096
17981WAT     H254186   4.976   6.060   5.181
17982WAT      O54187   1.883   6.251   0.188
17982WAT     H154188   1.790   6.287   0.195
17982WAT     H254189   1.879   6.151   0.185
17983WAT      O54190   9.644   3.146   9.312
17983WAT     H154191   9.705   3.084   9.263
17983WAT     H254192   9.666   3.146   9.410
17984WAT      O54193   6.225   9.677   0.395
17984WAT     H154194   6.261   9.644   0.308
17984WAT     H254195   6.127   9.657   0.400
17985WAT      O54196   4.185   7.775   7.053
17985WAT     H154197   4.267   7.797   7.106
17985WAT     H254198   4.104   7.803   7.104
17986WAT      O54199   7.101   7.510   4.437
17986WAT     H154200   7.105   7.439   4.507
17986WAT     H254201   7.006   7.531   4.415
17987WAT      O54202   6.850   7.952   5.634
17987WAT     H154203   6.944   7.982   5.620
17987WAT     H254204   6.830   7.876   5.572
17988WAT      O54205   2.169   8.584   2.871
17988WAT     H154206   2.254   8.581   2.923
17988WAT     H254207   2.092   8.599   2.934
17989WAT      O54208   2.715   6.365   7.655
17989WAT     H154209   2.769   6.431   7.602
17989WAT     H254210   2.770   6.285   7.675
17990WAT      O54211   7.694   8.202   5.497
17990WAT     H154212   7.731   8.141   5.427
17990WAT     H254213   7.753   8.283   5.505
17991WAT      O54214   3.161   3.981   2.157
17991WAT     H154215   3.225   3.906   2.138
17991WAT     H254216   3.143   4.031   2.073
17992WAT      O54217   7.546   6.622   8.036
17992WAT     H154218   7.588   6.681   7.966
17992WAT     H254219   7.449   6.647   8.046
17993WAT      O54220   1.093   8.257   4.782
17993WAT     H154221   0.994   8.248   4.794
17993WAT     H254222   1.127   8.330   4.840
17994WAT      O54223   1.944   1.607   5.803
17994WAT     H154224   1.963   1.511   5.786
17994WAT     H254225   2.022   1.662   5.774
17995WAT      O54226   5.805   8.433   9.595
17995WAT     H154227   5.711   8.448   9.628
17995WAT     H254228   5.811   8.343   9.552
17996WAT      O54229   3.095   7.208   5.304
17996WAT     H154230   3.147   7.175   5.226
17996WAT     H254231   3.147   7.191   5.388
17997WAT      O54232   9.287   5.176   4.955
17997WAT     H154233   9.369   5.219   4.993
17997WAT     H254234   9.307   5.081   4.930
17998WAT      O54235   5.033   9.079   0.456
17998WAT     H154236   5.069   9.114   0.542
17998WAT     H254237   5.105   9.027   0.409
17999WAT      O54238   8.526   9.396   8.928
17999WAT     H154239   8.434   9.390   8.888
17999WAT     H254240   8.532   9.478   8.985
18000WAT      O54241   3.705   8.255   8.649
18000WAT     H154242   3.741   8.170   8.610
18000WAT     H254243   3.665   8.311   8.577
18001WAT      O54244   1.689   6.374   1.952
18001WAT     H154245   1.772   6.319   1.955
18001WAT     H254246   1.631   6.343   1.876
18002WAT      O54247   7.234   8.621   4.984
18002WAT     H154248   7.310   8.620   4.919
18002WAT     H254249   7.149   8.600   4.936
18003WAT      O54250   6.568   2.402   4.489
18003WAT     H154251   6.547   2.326   4.550
18003WAT     H254252   6.658   2.439   4.512
18004WAT      O54253   4.175   1.466   2.060
18004WAT     H154254   4.223   1.521   1.992
18004WAT     H254255   4.234   1.454   2.140
18005WAT      O54256   9.135   7.875   0.080
18005WAT     H154257   9.167   7.803   0.143
18005WAT     H254258   9.184   7.960   0.100
18006WAT      O54259   8.868   6.525   4.008
18006WAT     H154260   8.936   6.551   3.939
18006WAT     H254261   8.838   6.606   4.058
18007WAT      O54262   7.815   9.776   0.078
18007WAT     H154263   7.772   9.775   0.168
18007WAT     H254264   7.751   9.740   0.010
18008WAT      O54265   0.436   3.833   1.160
18008WAT     H154266   0.394   3.910   1.112
18008WAT     H254267   0.392   3.748   1.129
18009WAT      O54268   2.483   9.421   0.114
18009WAT     H154269   2.432   9.417   0.028
18009WAT     H254270   2.572   9.463   0.098
18010WAT      O54271   9.047   9.298   3.605
18010WAT     H154272   9.046   9.322   3.702
18010WAT     H254273   9.058   9.382   3.550
18011WAT      O54274   9.037   0.674   3.528
18011WAT     H154275   9.055   0.770   3.511
18011WAT     H254276   8.946   0.650   3.495
18012WAT      O54277   8.983   1.902   2.016
18012WAT     H154278   8.893   1.916   1.974
18012WAT     H254279   8.976   1.913   2.115
18013WAT      O54280   2.037   0.668   3.973
18013WAT     H154281   2.091   0.694   4.054
18013WAT     H254282   2.083   0.592   3.926
18014WAT      O54283   4.837   5.920   8.489
18014WAT     H154284   4.766   5.971   8.537
18014WAT     H254285   4.920   5.919   8.545
18015WAT      O54286   7.911   4.371   6.068
18015WAT     H154287   7.847   4.328   6.132
18015WAT     H254288   7.964   4.300   6.021
18016WAT      O54289   8.492   8.000   8.851
18016WAT     H154290   8.526   8.020   8.943
18016WAT     H254291   8.481   7.902   8.840
18017WAT      O54292   2.970   3.808   5.107
18017WAT     H154293   3.058   3.768   5.081
18017WAT     H254294   2.903   3.790   5.034
18018WAT      O54295   9.689   5.898   7.539
18018WAT     H154296   9.729   5.948   7.463
18018WAT     H254297   9.748   5.820   7.562
18019WAT      O54298   1.572   4.926   1.855
18019WAT     H154299   1.588   5.009   1.908
18019WAT     H254300   1.659   4.884   1.831
18020WAT      O54301   5.473   7.010   8.389
18020WAT     H154302   5.551   7.015   8.326
18020WAT     H254303   5.420   6.927   8.371
18021WAT      O54304   0.754   2.191   8.607
18021WAT     H154305   0.805   2.256   8.551
18021WAT     H254306   0.806   2.171   8.691
18022WAT      O54307   8.480   5.744   6.796
18022WAT     H154308   8.512   5.755   6.891
18022WAT     H254309   8.525   5.813   6.738
18023WAT      O54310   7.531   2.870   2.604
18023WAT     H154311   7.551   2.798   2.671
18023WAT     H254312   7.435   2.863   2.576
18024WAT      O54313   4.926   2.740   6.930
18024WAT     H154314   4.900   2.646   6.953
18024WAT     H254315   4.901   2.800   7.006
18025WAT      O54316   0.524   9.353   1.091
18025WAT     H154317   0.606   9.409   1.079
18025WAT     H254318   0.525   9.313   1.183
18026WAT      O54319   1.099   1.102   2.706
18026WAT     H154320   1.060   1.193   2.693
18026WAT     H254321   1.046   1.036   2.651
18027WAT      O54322   4.679   2.192   6.279
18027WAT     H154323   4.719   2.281   6.300
18027WAT     H254324   4.580   2.196   6.289
18028WAT      O54325   7.410   8.736   6.894
18028WAT     H154326   7.336   8.686   6.849
18028WAT     H254327   7.399   8.834   6.877
18029WAT      O54328   1.174   8.103   7.231
18029WAT     H154329   1.146   8.187   7.277
18029WAT     H254330   1.134   8.024   7.277
18030WAT      O54331   2.601   2.533   5.985
18030WAT     H154332   2.551   2.499   6.065
18030WAT     H254333   2.698   2.540   6.007
18031WAT      O54334   3.954   4.810   8.435
18031WAT     H154335   3.895   4.765   8.368
18031WAT     H254336   3.932   4.776   8.527
18032WAT      O54337   6.072   4.247   8.774
18032WAT     H154338   6.048   4.160   8.818
18032WAT     H254339   5.989   4.289   8.736
18033WAT      O54340   2.641   9.774   5.307
18033WAT     H154341   2.676   9.727   5.388
18033WAT     H254342   2.572   9.841   5.335
18034WAT      O54343   5.832   5.753   1.617
18034WAT     H154344   5.888   5.741   1.700
18034WAT     H254345   5.735   5.755   1.642
18035WAT      O54346   4.095   5.489   3.428
18035WAT     H154347   4.023   5.435   3.472
18035WAT     H254348   4.078   5.492   3.330
18036WAT      O54349   5.474   6.802   2.325
18036WAT     H154350   5.392   6.854   2.348
18036WAT     H254351   5.523   6.777   2.409
18037WAT      O54352   9.178   1.059   6.557
18037WAT     H154353   9.214   1.023   6.643
18037WAT     H254354   9.195   0.993   6.483
18038WAT      O54355   3.319   7.495   6.112
18038WAT     H154356   3.261   7.428   6.066
18038WAT     H254357   3.377   7.449   6.179
18039WAT      O54358   1.483   4.688   4.756
18039WAT     H154359   1.489   4.778   4.799
18039WAT     H254360   1.526   4.690   4.666
18040WAT      O54361   7.869   8.229   0.229
18040WAT     H154362   7.832   8.138   0.211
18040WAT     H254363   7.969   8.225   0.225
18041WAT      O54364   2.949   0.572   3.626
18041WAT     H154365   3.048   0.572   3.617
18041WAT     H254366   2.925   0.576   3.723
18042WAT      O54367   3.536   1.100   7.028
18042WAT     H154368   3.558   1.007   6.998
18042WAT     H254369   3.597   1.164   6.981
18043WAT      O54370   1.953   0.273   1.570
18043WAT     H154371   2.019   0.204   1.598
18043WAT     H254372   1.992   0.364   1.583
18044WAT      O54373   4.511   9.179   4.856
18044WAT     H154374   4.501   9.127   4.771
18044WAT     H254375   4.452   9.140   4.926
18045WAT      O54376   9.094   4.714   0.236
18045WAT     H154377   9.083   4.808   0.205
18045WAT     H254378   9.178   4.706   0.289
18046WAT      O54379   8.515   6.284   6.487
18046WAT     H154380   8.519   6.274   6.587
18046WAT     H254381   8.421   6.269   6.456
18047WAT      O54382   5.277   8.233   4.095
18047WAT     H154383   5.339   8.168   4.051
18047WAT     H254384   5.306   8.327   4.073
18048WAT      O54385   5.580   8.884   1.166
18048WAT     H154386   5.600   8.798   1.119
18048WAT     H254387   5.661   8.914   1.218
18049WAT      O54388   9.586   4.582   3.123
18049WAT     H154389   9.523   4.513   3.159
18049WAT     H254390   9.615   4.642   3.197
18050WAT      O54391   1.915   6.645   7.181
18050WAT     H154392   1.995   6.633   7.122
18050WAT     H254393   1.879   6.556   7.207
18051WAT      O54394   2.968   5.436   6.080
18051WAT     H154395   2.916   5.421   6.164
18051WAT     H254396   3.065   5.447   6.103
18052WAT      O54397   0.544   7.030   7.398
18052WAT     H154398   0.507   7.078   7.478
18052WAT     H254399   0.590   6.947   7.428
18053WAT      O54400   5.175   5.911   9.025
18053WAT     H154401   5.161   5.937   9.120
18053WAT     H254402   5.117   5.967   8.966
18054WAT      O54403   9.136   9.625   8.273
18054WAT     H154404   9.223   9.610   8.226
18054WAT     H254405   9.121   9.723   8.287
18055WAT      O54406   7.380   8.817   8.215
18055WAT     H154407   7.433   8.901   8.228
18055WAT     H254408   7.381   8.764   8.300
18056WAT      O54409   5.939   8.685   8.960
18056WAT     H154410   5.975   8.637   9.040
18056WAT     H254411   5.875   8.625   8.911
18057WAT      O54412   9.525   4.471   4.913
18057WAT     H154413   9.523   4.495   4.816
18057WAT     H254414   9.621   4.466   4.944
18058WAT      O54415   7.423   6.727   2.208
18058WAT     H154416   7.330   6.754   2.186
18058WAT     H254417   7.435   6.629   2.189
18059WAT      O54418   5.829   9.748   8.348
18059WAT     H154419   5.754   9.740   8.282
18059WAT     H254420   5.897   9.811   8.313
18060WAT      O54421   7.655   0.559   1.623
18060WAT     H154422   7.609   0.516   1.545
18060WAT     H254423   7.700   0.488   1.678
18061WAT      O54424   0.428   2.590   9.785
18061WAT     H154425   0.381   2.671   9.820
18061WAT     H254426   0.520   2.614   9.755
18062WAT      O54427   5.188   1.006   2.344
18062WAT     H154428   5.124   1.070   2.387
18062WAT     H254429   5.140   0.921   2.321
18063WAT      O54430   2.134   6.580   7.342
18063WAT     H154431   2.041   6.574   7.307
18063WAT     H254432   2.163   6.675   7.346
18064WAT      O54433   4.834   7.734   2.472
18064WAT     H154434   4.776   7.773   2.543
18064WAT     H254435   4.930   7.751   2.494
18065WAT      O54436   2.944   0.497   3.887
18065WAT     H154437   2.869   0.467   3.947
18065WAT     H254438   3.000   0.417   3.862
18066WAT      O54439   4.445   2.589   9.585
18066WAT     H154440   4.360   2.617   9.540
18066WAT     H254441   4.523   2.632   9.539
18067WAT      O54442   0.158   7.257   3.582
18067WAT     H154443   0.174   7.284   3.677
18067WAT     H254444   0.168   7.337   3.523
18068WAT      O54445   1.985   7.595   5.226
18068WAT     H154446   2.040   7.519   5.260
18068WAT     H254447   1.969   7.661   5.299
18069WAT      O54448   9.238   2.813   3.098
18069WAT     H154449   9.155   2.865   3.117
18069WAT     H254450   9.283   2.850   3.017
18070WAT      O54451   9.185   0.385   8.420
18070WAT     H154452   9.244   0.461   8.392
18070WAT     H254453   9.226   0.337   8.497
18071WAT      O54454   4.775   0.309   3.736
18071WAT     H154455   4.796   0.361   3.653
18071WAT     H254456   4.716   0.231   3.712
18072WAT      O54457   4.982   4.666   9.492
18072WAT     H154458   4.956   4.573   9.518
18072WAT     H254459   4.910   4.730   9.519
18073WAT      O54460   0.416   2.624   6.428
18073WAT     H154461   0.345   2.622   6.358
18073WAT     H254462   0.429   2.532   6.466
18074WAT      O54463   7.607   8.592   1.212
18074WAT     H154464   7.599   8.520   1.143
18074WAT     H254465   7.527   8.652   1.206
18075WAT      O54466   8.074   8.657   8.967
18075WAT     H154467   8.111   8.713   8.893
18075WAT     H254468   8.021   8.582   8.928
18076WAT      O54469   3.558   7.537   7.919
18076WAT     H154470   3.494   7.534   7.842
18076WAT     H254471   3.641   7.586   7.892
18077WAT      O54472   9.396   0.761   4.694
18077WAT     H154473   9.313   0.745   4.640
18077WAT     H254474   9.473   0.773   4.632
18078WAT      O54475   7.720   5.031   5.316
18078WAT     H154476   7.751   4.993   5.229
18078WAT     H254477   7.622   5.050   5.311
18079WAT      O54478   3.267   4.608   0.056
18079WAT     H154479   3.366   4.602   0.065
18079WAT     H254480   3.242   4.697   0.017
18080WAT      O54481   4.598   9.142   3.388
18080WAT     H154482   4.618   9.230   3.344
18080WAT     H254483   4.672   9.119   3.451
18081WAT      O54484   0.246   8.346   4.259
18081WAT     H154485   0.216   8.255   4.290
18081WAT     H254486   0.217   8.359   4.165
18082WAT      O54487   6.621   2.328   2.509
18082WAT     H154488   6.530   2.332   2.469
18082WAT     H254489   6.670   2.249   2.472
18083WAT      O54490   9.397   9.188   7.059
18083WAT     H154491   9.370   9.121   6.990
18083WAT     H254492   9.465   9.147   7.120
18084WAT      O54493   3.275   8.054   8.477
18084WAT     H154494   3.286   7.959   8.506
18084WAT     H254495   3.326   8.114   8.540
18085WAT      O54496   4.354   6.610   2.762
18085WAT     H154497   4.448   6.610   2.795
18085WAT     H254498   4.346   6.546   2.685
18086WAT      O54499   9.627   6.100   5.309
18086WAT     H154500   9.607   6.185   5.357
18086WAT     H254501   9.553   6.034   5.326
18087WAT      O54502   4.318   0.487   3.653
18087WAT     H154503   4.398   0.490   3.712
18087WAT     H254504   4.288   0.580   3.633
18088WAT      O54505   2.395   5.948   1.667
18088WAT     H154506   2.450   5.935   1.585
18088WAT     H254507   2.449   5.922   1.747
18089WAT      O54508   7.333   4.126   5.459
18089WAT     H154509   7.330   4.221   5.491
18089WAT     H254510   7.326   4.125   5.359
18090WAT      O54511   4.275   0.707   5.335
18090WAT     H154512   4.195   0.765   5.345
18090WAT     H254513   4.298   0.666   5.424
18091WAT      O54514   0.371   8.710   2.909
18091WAT     H154515   0.344   8.621   2.946
18091WAT     H254516   0.387   8.701   2.811
18092WAT      O54517   5.167   7.418   8.221
18092WAT     H154518   5.251   7.364   8.224
18092WAT     H254519   5.174   7.486   8.148
18093WAT      O54520   2.168   2.344   1.835
18093WAT     H154521   2.246   2.403   1.812
18093WAT     H254522   2.200   2.266   1.889
18094WAT      O54523   4.715   1.440   6.763
18094WAT     H154524   4.642   1.508   6.770
18094WAT     H254525   4.717   1.402   6.671
18095WAT      O54526   0.221   8.150   9.691
18095WAT     H154527   0.212   8.174   9.594
18095WAT     H254528   0.183   8.058   9.706
18096WAT      O54529   5.434   6.116   5.087
18096WAT     H154530   5.462   6.020   5.074
18096WAT     H254531   5.345   6.130   5.044
18097WAT      O54532   1.764   6.862   0.585
18097WAT     H154533   1.760   6.878   0.684
18097WAT     H254534   1.832   6.923   0.544
18098WAT      O54535   0.403   9.737   2.668
18098WAT     H154536   0.334   9.676   2.627
18098WAT     H254537   0.385   9.748   2.765
18099WAT      O54538   7.109   0.276   7.191
18099WAT     H154539   7.031   0.312   7.242
18099WAT     H254540   7.194   0.297   7.240
18100WAT      O54541   8.975   4.770   4.164
18100WAT     H154542   9.030   4.687   4.154
18100WAT     H254543   8.969   4.818   4.077
18101WAT      O54544   9.005   2.415   5.241
18101WAT     H154545   8.937   2.363   5.292
18101WAT     H254546   8.998   2.512   5.266
18102WAT      O54547   4.716   7.375   1.395
18102WAT     H154548   4.736   7.471   1.412
18102WAT     H254549   4.619   7.357   1.414
18103WAT      O54550   2.262   4.138   2.513
18103WAT     H154551   2.286   4.223   2.560
18103WAT     H254552   2.256   4.064   2.579
18104WAT      O54553   9.106   3.624   7.278
18104WAT     H154554   9.013   3.645   7.247
18104WAT     H254555   9.158   3.708   7.289
18105WAT      O54556   5.913   2.098   7.130
18105WAT     H154557   5.847   2.130   7.198
18105WAT     H254558   5.886   2.007   7.098
18106WAT      O54559   8.669   4.957   9.212
18106WAT     H154560   8.679   4.939   9.310
18106WAT     H254561   8.753   4.929   9.165
18107WAT      O54562   7.301   2.208   0.851
18107WAT     H154563   7.255   2.189   0.938
18107WAT     H254564   7.238   2.190   0.775
18108WAT      O54565   5.046   5.454   7.466
18108WAT     H154566   5.092   5.472   7.379
18108WAT     H254567   5.104   5.396   7.523
18109WAT      O54568   1.286   4.024   1.903
18109WAT     H154569   1.292   4.100   1.838
18109WAT     H254570   1.193   3.988   1.903
18110WAT      O54571   1.832   2.975   6.037
18110WAT     H154572   1.927   2.980   6.068
18110WAT     H254573   1.787   3.062   6.057
18111WAT      O54574   0.879   4.477   2.976
18111WAT     H154575   0.870   4.410   3.049
18111WAT     H254576   0.839   4.440   2.892
18112WAT      O54577   0.797   7.027   7.624
18112WAT     H154578   0.720   7.062   7.679
18112WAT     H254579   0.801   6.928   7.632
18113WAT      O54580   5.993   4.936   1.712
18113WAT     H154581   5.981   4.837   1.713
18113WAT     H254582   6.029   4.964   1.623
18114WAT      O54583   9.622   8.745   9.613
18114WAT     H154584   9.719   8.758   9.633
18114WAT     H254585   9.598   8.649   9.623
18115WAT      O54586   8.910   4.686   8.324
18115WAT     H154587   8.961   4.722   8.246
18115WAT     H254588   8.837   4.626   8.293
18116WAT      O54589   8.707   7.160   5.178
18116WAT     H154590   8.783   7.096   5.174
18116WAT     H254591   8.636   7.132   5.113
18117WAT      O54592   1.554   2.009   7.255
18117WAT     H154593   1.528   2.078   7.323
18117WAT     H254594   1.567   2.053   7.167
18118WAT      O54595   9.390   8.031   0.346
18118WAT     H154596   9.348   7.990   0.426
18118WAT     H254597   9.425   8.122   0.369
18119WAT      O54598   7.090   1.834   1.451
18119WAT     H154599   6.997   1.796   1.440
18119WAT     H254600   7.124   1.863   1.362
18120WAT      O54601   3.330   6.142   8.499
18120WAT     H154602   3.316   6.218   8.435
18120WAT     H254603   3.425   6.143   8.531
18121WAT      O54604   1.747   3.605   4.190
18121WAT     H154605   1.783   3.540   4.123
18121WAT     H254606   1.680   3.665   4.147
18122WAT      O54607   0.251   8.810   5.227
18122WAT     H154608   0.295   8.895   5.199
18122WAT     H254609   0.174   8.830   5.286
18123WAT      O54610   3.708   0.415   9.608
18123WAT     H154611   3.769   0.367   9.671
18123WAT     H254612   3.762   0.472   9.546
18124WAT      O54613   0.957   0.484   2.055
18124WAT     H154614   1.043   0.441   2.083
18124WAT     H254615   0.960   0.503   1.957
18125WAT      O54616   4.166   7.178   1.920
18125WAT     H154617   4.099   7.109   1.947
18125WAT     H254618   4.187   7.167   1.823
18126WAT      O54619   0.549   5.132   5.131
18126WAT     H154620   0.588   5.055   5.182
18126WAT     H254621   0.605   5.150   5.050
18127WAT      O54622   4.652   0.935   7.936
18127WAT     H154623   4.683   1.011   7.993
18127WAT     H254624   4.592   0.875   7.990
18128WAT      O54625   4.520   3.619   3.845
18128WAT     H154626   4.498   3.543   3.906
18128WAT     H254627   4.548   3.698   3.900
18129WAT      O54628   1.508   1.016   5.600
18129WAT     H154629   1.422   1.062   5.579
18129WAT     H254630   1.585   1.075   5.576
18130WAT      O54631   7.099   9.265   2.615
18130WAT     H154632   7.023   9.321   2.647
18130WAT     H254633   7.065   9.196   2.550
18131WAT      O54634   4.622   8.361   6.030
18131WAT     H154635   4.575   8.392   6.113
18131WAT     H254636   4.579   8.277   5.996
18132WAT      O54637   1.957   3.123   2.996
18132WAT     H154638   1.959   3.102   3.094
18132WAT     H254639   2.029   3.072   2.950
18133WAT      O54640   4.855   5.243   7.619
18133WAT     H154641   4.913   5.234   7.700
18133WAT     H254642   4.874   5.331   7.575
18134WAT      O54643   4.212   9.433   8.709
18134WAT     H154644   4.234   9.523   8.670
18134WAT     H254645   4.126   9.401   8.671
18135WAT      O54646   2.082   0.865   9.839
18135WAT     H154647   2.100   0.834   9.932
18135WAT     H254648   1.991   0.906   9.835
18136WAT      O54649   4.015   3.340   5.788
18136WAT     H154650   4.106   3.301   5.773
18136WAT     H254651   3.945   3.279   5.749
18137WAT      O54652   3.734   3.103   9.743
18137WAT     H154653   3.636   3.101   9.723
18137WAT     H254654   3.755   3.183   9.798
18138WAT      O54655   0.896   0.977   8.463
18138WAT     H154656   0.978   0.994   8.516
18138WAT     H254657   0.851   0.894   8.496
18139WAT      O54658   8.371   1.784   9.175
18139WAT     H154659   8.465   1.770   9.147
18139WAT     H254660   8.366   1.790   9.275
18140WAT      O54661   4.452   5.275   2.609
18140WAT     H154662   4.521   5.230   2.665
18140WAT     H254663   4.363   5.269   2.653
18141WAT      O54664   9.578   5.181   2.936
18141WAT     H154665   9.514   5.257   2.932
18141WAT     H254666   9.580   5.133   2.849
18142WAT      O54667   1.366   4.039   9.045
18142WAT     H154668   1.385   4.029   8.948
18142WAT     H254669   1.426   3.979   9.098
18143WAT      O54670   9.434   6.664   2.558
18143WAT     H154671   9.522   6.709   2.574
18143WAT     H254672   9.405   6.616   2.641
18144WAT      O54673   5.943   2.385   0.944
18144WAT     H154674   6.007   2.308   0.951
18144WAT     H254675   5.993   2.468   0.918
18145WAT      O54676   3.983   9.095   1.954
18145WAT     H154677   3.928   9.101   2.037
18145WAT     H254678   4.024   9.004   1.947
18146WAT      O54679   5.099   5.048   2.695
18146WAT     H154680   5.037   5.051   2.774
18146WAT     H254681   5.151   5.133   2.690
18147WAT      O54682   5.780   0.296   6.346
18147WAT     H154683   5.827   0.324   6.430
18147WAT     H254684   5.736   0.376   6.305
18148WAT      O54685   4.815   6.464   9.133
18148WAT     H154686   4.755   6.447   9.055
18148WAT     H254687   4.760   6.466   9.217
18149WAT      O54688   5.696   3.465   9.473
18149WAT     H154689   5.650   3.522   9.405
18149WAT     H254690   5.713   3.374   9.434
18150WAT      O54691   2.625   1.120   8.040
18150WAT     H154692   2.628   1.173   7.955
18150WAT     H254693   2.674   1.034   8.026
18151WAT      O54694   6.474   2.588   4.881
18151WAT     H154695   6.556   2.532   4.887
18151WAT     H254696   6.421   2.579   4.965
18152WAT      O54697   9.488   7.081   6.860
18152WAT     H154698   9.454   7.103   6.952
18152WAT     H254699   9.563   7.142   6.837
18153WAT      O54700   3.540   0.785   6.978
18153WAT     H154701   3.610   0.721   6.946
18153WAT     H254702   3.472   0.799   6.906
18154WAT      O54703   4.637   7.000   4.940
18154WAT     H154704   4.709   6.932   4.954
18154WAT     H254705   4.665   7.063   4.868
18155WAT      O54706   0.951   1.591   4.736
18155WAT     H154707   0.881   1.648   4.693
18155WAT     H254708   0.947   1.602   4.835
18156WAT      O54709   6.439   3.305   7.559
18156WAT     H154710   6.443   3.233   7.629
18156WAT     H254711   6.418   3.264   7.470
18157WAT      O54712   0.570   3.853   5.513
18157WAT     H154713   0.484   3.897   5.539
18157WAT     H254714   0.640   3.923   5.498
18158WAT      O54715   1.564   0.218   8.017
18158WAT     H154716   1.644   0.200   8.075
18158WAT     H254717   1.593   0.267   7.936
18159WAT      O54718   2.893   8.269   7.412
18159WAT     H154719   2.815   8.285   7.472
18159WAT     H254720   2.916   8.172   7.411
18160WAT      O54721   3.238   6.090   3.923
18160WAT     H154722   3.240   5.991   3.935
18160WAT     H254723   3.230   6.135   4.012
18161WAT      O54724   0.556   0.258   8.422
18161WAT     H154725   0.635   0.224   8.371
18161WAT     H254726   0.586   0.331   8.484
18162WAT      O54727   1.515   7.742   8.960
18162WAT     H154728   1.438   7.682   8.978
18162WAT     H254729   1.578   7.698   8.896
18163WAT      O54730   1.739   7.241   4.387
18163WAT     H154731   1.642   7.249   4.361
18163WAT     H254732   1.789   7.197   4.312
18164WAT      O54733   8.805   4.029   3.260
18164WAT     H154734   8.775   4.046   3.353
18164WAT     H254735   8.859   3.945   3.257
18165WAT      O54736   9.432   6.048   1.513
18165WAT     H154737   9.472   6.139   1.522
18165WAT     H254738   9.466   5.989   1.586
18166WAT      O54739   7.451   4.822   3.299
18166WAT     H154740   7.415   4.749   3.241
18166WAT     H254741   7.377   4.860   3.355
18167WAT      O54742   4.264   6.195   1.654
18167WAT     H154743   4.334   6.207   1.725
18167WAT     H254744   4.274   6.265   1.584
18168WAT      O54745   9.203   2.259   5.830
18168WAT     H154746   9.205   2.162   5.854
18168WAT     H254747   9.133   2.275   5.759
18169WAT      O54748   4.018   1.461   4.119
18169WAT     H154749   4.091   1.400   4.088
18169WAT     H254750   3.998   1.527   4.047
18170WAT      O54751   2.857   7.440   4.965
18170WAT     H154752   2.828   7.388   5.045
18170WAT     H254753   2.824   7.534   4.974
18171WAT      O54754   4.641   4.293   6.208
18171WAT     H154755   4.696   4.311   6.126
18171WAT     H254756   4.652   4.369   6.272
18172WAT      O54757   8.361   0.556   2.042
18172WAT     H154758   8.334   0.470   1.999
18172WAT     H254759   8.460   0.568   2.035
18173WAT      O54760   4.384   1.305   4.880
18173WAT     H154761   4.465   1.248   4.868
18173WAT     H254762   4.310   1.250   4.918
18174WAT      O54763   5.796   6.097   0.590
18174WAT     H154764   5.772   6.120   0.684
18174WAT     H254765   5.769   6.172   0.529
18175WAT      O54766   3.349   5.110   4.270
18175WAT     H154767   3.340   5.106   4.171
18175WAT     H254768   3.392   5.026   4.304
18176WAT      O54769   7.439   3.499   3.963
18176WAT     H154770   7.518   3.559   3.951
18176WAT     H254771   7.367   3.526   3.898
18177WAT      O54772   5.699   6.650   6.680
18177WAT     H154773   5.778   6.616   6.629
18177WAT     H254774   5.631   6.686   6.615
18178WAT      O54775   4.380   1.524   3.798
18178WAT     H154776   4.411   1.434   3.768
18178WAT     H254777   4.281   1.531   3.788
18179WAT      O54778   0.001   2.155   4.421
18179WAT     H154779  -0.069   2.203   4.474
18179WAT     H254780   0.069   2.117   4.483
18180WAT      O54781   6.324   3.995   2.194
18180WAT     H154782   6.228   3.975   2.217
18180WAT     H254783   6.359   3.923   2.134
18181WAT      O54784   8.768   4.932   5.471
18181WAT     H154785   8.769   4.939   5.372
18181WAT     H254786   8.855   4.895   5.503
18182WAT      O54787   5.394   7.818   2.364
18182WAT     H154788   5.455   7.821   2.285
18182WAT     H254789   5.347   7.906   2.374
18183WAT      O54790   8.702   3.949   2.866
18183WAT     H154791   8.754   3.997   2.937
18183WAT     H254792   8.721   3.851   2.871
18184WAT      O54793   0.322   3.770   1.564
18184WAT     H154794   0.353   3.760   1.658
18184WAT     H254795   0.320   3.867   1.539
18185WAT      O54796   1.115   4.392   7.920
18185WAT     H154797   1.164   4.355   7.841
18185WAT     H254798   1.096   4.489   7.905
18186WAT      O54799   5.759   4.056   7.129
18186WAT     H154800   5.756   4.137   7.071
18186WAT     H254801   5.849   4.014   7.125
18187WAT      O54802   9.406   8.508   4.695
18187WAT     H154803   9.436   8.443   4.764
18187WAT     H254804   9.453   8.489   4.608
18188WAT      O54805   8.200   7.417   9.258
18188WAT     H154806   8.128   7.429   9.327
18188WAT     H254807   8.176   7.468   9.176
18189WAT      O54808   2.468   2.579   7.241
18189WAT     H154809   2.408   2.618   7.310
18189WAT     H254810   2.560   2.567   7.279
18190WAT      O54811   5.890   1.563   6.869
18190WAT     H154812   5.989   1.548   6.872
18190WAT     H254813   5.843   1.474   6.865
18191WAT      O54814   4.857   7.781   8.724
18191WAT     H154815   4.954   7.769   8.705
18191WAT     H254816   4.803   7.720   8.666
18192WAT      O54817   0.331   5.375   1.069
18192WAT     H154818   0.255   5.314   1.043
18192WAT     H254819   0.412   5.351   1.017
18193WAT      O54820   5.774   5.146   2.364
18193WAT     H154821   5.847   5.214   2.354
18193WAT     H254822   5.808   5.056   2.338
18194WAT      O54823   2.042   7.727   9.566
18194WAT     H154824   2.140   7.713   9.553
18194WAT     H254825   1.990   7.660   9.513
18195WAT      O54826   9.261   6.513   5.363
18195WAT     H154827   9.251   6.592   5.424
18195WAT     H254828   9.293   6.434   5.416
18196WAT      O54829   7.163   3.692   6.924
18196WAT     H154830   7.212   3.608   6.950
18196WAT     H254831   7.083   3.703   6.982
18197WAT      O54832   0.018   4.312   1.129
18197WAT     H154833  -0.031   4.324   1.043
18197WAT     H254834   0.061   4.399   1.155
18198WAT      O54835   4.307   2.631   5.668
18198WAT     H154836   4.406   2.616   5.663
18198WAT     H254837   4.276   2.672   5.582
18199WAT      O54838   6.908   4.923   3.489
18199WAT     H154839   6.931   4.847   3.429
18199WAT     H254840   6.922   5.009   3.441
18200WAT      O54841   9.102   9.047   9.765
18200WAT     H154842   9.010   9.039   9.804
18200WAT     H254843   9.170   9.022   9.834
18201WAT      O54844   8.646   1.180   7.533
18201WAT     H154845   8.655   1.274   7.498
18201WAT     H254846   8.710   1.166   7.609
18202WAT      O54847   6.116   9.587   9.663
18202WAT     H154848   6.087   9.565   9.756
18202WAT     H254849   6.202   9.541   9.643
18203WAT      O54850   9.365   5.420   8.315
18203WAT     H154851   9.413   5.491   8.368
18203WAT     H254852   9.428   5.380   8.249
18204WAT      O54853   2.236   4.711   5.488
18204WAT     H154854   2.298   4.660   5.548
18204WAT     H254855   2.262   4.808   5.489
18205WAT      O54856   9.617   8.871   6.884
18205WAT     H154857   9.616   8.884   6.785
18205WAT     H254858   9.533   8.909   6.924
18206WAT      O54859   0.540   3.258   0.666
18206WAT     H154860   0.639   3.243   0.673
18206WAT     H254861   0.501   3.189   0.605
18207WAT      O54862   5.544   5.519   4.170
18207WAT     H154863   5.631   5.564   4.151
18207WAT     H254864   5.560   5.442   4.232
18208WAT      O54865   7.027   6.748   5.497
18208WAT     H154866   7.057   6.659   5.461
18208WAT     H254867   7.075   6.821   5.450
18209WAT      O54868   7.760   0.666   2.308
18209WAT     H154869   7.729   0.571   2.301
18209WAT     H254870   7.860   0.669   2.300
18210WAT      O54871   5.260   9.254   3.066
18210WAT     H154872   5.338   9.202   3.101
18210WAT     H254873   5.292   9.326   3.005
18211WAT      O54874   5.994   4.925   6.930
18211WAT     H154875   6.037   4.868   6.860
18211WAT     H254876   6.047   5.009   6.943
18212WAT      O54877   4.522   5.702   8.537
18212WAT     H154878   4.429   5.666   8.539
18212WAT     H254879   4.561   5.698   8.628
18213WAT      O54880   7.727   9.799   2.340
18213WAT     H154881   7.639   9.781   2.295
18213WAT     H254882   7.784   9.856   2.281
18214WAT      O54883   4.341   6.079   4.576
18214WAT     H154884   4.333   6.031   4.664
18214WAT     H254885   4.436   6.076   4.545
18215WAT      O54886   8.129   0.646   6.172
18215WAT     H154887   8.069   0.567   6.160
18215WAT     H254888   8.211   0.618   6.223
18216WAT      O54889   6.756   8.853   4.891
18216WAT     H154890   6.744   8.843   4.793
18216WAT     H254891   6.767   8.763   4.933
18217WAT      O54892   7.841   9.089   5.477
18217WAT     H154893   7.773   9.152   5.514
18217WAT     H254894   7.848   9.009   5.536
18218WAT      O54895   5.406   8.323   1.769
18218WAT     H154896   5.350   8.399   1.802
18218WAT     H254897   5.427   8.336   1.672
18219WAT      O54898   0.596   7.070   3.637
18219WAT     H154899   0.612   6.999   3.705
18219WAT     H254900   0.615   7.160   3.677
18220WAT      O54901   5.824   8.312   2.221
18220WAT     H154902   5.903   8.362   2.184
18220WAT     H254903   5.741   8.366   2.206
18221WAT      O54904   3.684   7.785   2.644
18221WAT     H154905   3.689   7.718   2.569
18221WAT     H254906   3.713   7.874   2.610
18222WAT      O54907   7.272   0.034   0.199
18222WAT     H154908   7.283  -0.064   0.183
18222WAT     H254909   7.352   0.082   0.162
18223WAT      O54910   7.682   3.651   3.997
18223WAT     H154911   7.677   3.695   4.087
18223WAT     H254912   7.744   3.702   3.938
18224WAT      O54913   6.677   2.422   1.496
18224WAT     H154914   6.657   2.503   1.551
18224WAT     H254915   6.665   2.340   1.551
18225WAT      O54916   3.475   0.148   3.963
18225WAT     H154917   3.539   0.223   3.980
18225WAT     H254918   3.433   0.119   4.049
18226WAT      O54919   1.469   0.652   2.849
18226WAT     H154920   1.503   0.722   2.911
18226WAT     H254921   1.494   0.676   2.755
18227WAT      O54922   7.740   9.067   2.806
18227WAT     H154923   7.664   9.118   2.766
18227WAT     H254924   7.717   9.041   2.900
18228WAT      O54925   6.562   0.414   4.863
18228WAT     H154926   6.554   0.314   4.860
18228WAT     H254927   6.654   0.441   4.833
18229WAT      O54928   5.584   5.729   6.590
18229WAT     H154929   5.572   5.797   6.518
18229WAT     H254930   5.601   5.775   6.677
18230WAT      O54931   2.127   5.313   9.552
18230WAT     H154932   2.210   5.368   9.561
18230WAT     H254933   2.152   5.221   9.520
18231WAT      O54934   7.864   7.739   5.399
18231WAT     H154935   7.781   7.699   5.360
18231WAT     H254936   7.886   7.694   5.485
18232WAT      O54937   6.262   4.484   8.064
18232WAT     H154938   6.164   4.469   8.082
18232WAT     H254939   6.284   4.451   7.972
18233WAT      O54940   5.415   8.159   5.190
18233WAT     H154941   5.397   8.106   5.107
18233WAT     H254942   5.389   8.105   5.270
18234WAT      O54943   9.493   1.738   1.204
18234WAT     H154944   9.460   1.643   1.199
18234WAT     H254945   9.419   1.797   1.235
18235WAT      O54946   0.559   6.020   7.766
18235WAT     H154947   0.499   6.015   7.846
18235WAT     H254948   0.589   6.115   7.752
18236WAT      O54949   7.513   9.372   8.197
18236WAT     H154950   7.422   9.372   8.156
18236WAT     H254951   7.578   9.328   8.136
18237WAT      O54952   8.576   3.015   5.785
18237WAT     H154953   8.522   2.965   5.717
18237WAT     H254954   8.657   2.962   5.809
18238WAT      O54955   3.433   0.956   2.657
18238WAT     H154956   3.495   0.977   2.733
18238WAT     H254957   3.447   0.862   2.627
18239WAT      O54958  -0.003   8.480   8.194
18239WAT     H154959   0.031   8.568   8.229
18239WAT     H254960   0.054   8.406   8.230
18240WAT      O54961   4.925   8.292   2.131
18240WAT     H154962   4.889   8.386   2.130
18240WAT     H254963   4.868   8.234   2.073
18241WAT      O54964   5.342   8.204   4.793
18241WAT     H154965   5.369   8.168   4.704
18241WAT     H254966   5.351   8.133   4.863
18242WAT      O54967   7.803   0.251   6.803
18242WAT     H154968   7.760   0.166   6.833
18242WAT     H254969   7.897   0.232   6.774
18243WAT      O54970   1.031   3.987   8.739
18243WAT     H154971   1.040   3.905   8.684
18243WAT     H254972   1.079   4.063   8.695
18244WAT      O54973   6.704   9.182   5.694
18244WAT     H154974   6.744   9.146   5.610
18244WAT     H254975   6.748   9.269   5.718
18245WAT      O54976   1.853   9.622   8.722
18245WAT     H154977   1.772   9.587   8.675
18245WAT     H254978   1.834   9.713   8.759
18246WAT      O54979   6.630   4.673   0.702
18246WAT     H154980   6.714   4.719   0.731
18246WAT     H254981   6.603   4.605   0.770
18247WAT      O54982   2.659   6.308   0.446
18247WAT     H154983   2.752   6.339   0.462
18247WAT     H254984   2.646   6.290   0.349
18248WAT      O54985   6.495   2.042   9.532
18248WAT     H154986   6.481   2.018   9.628
18248WAT     H254987   6.457   2.133   9.515
18249WAT      O54988   5.881   2.661   3.076
18249WAT     H154989   5.935   2.580   3.098
18249WAT     H254990   5.940   2.742   3.075
18250WAT      O54991   5.581   6.431   7.798
18250WAT     H154992   5.667   6.379   7.800
18250WAT     H254993   5.591   6.511   7.857
18251WAT      O54994   3.040   8.008   4.559
18251WAT     H154995   3.039   7.958   4.645
18251WAT     H254996   3.107   7.967   4.497
18252WAT      O54997   4.393   9.045   2.491
18252WAT     H154998   4.483   9.009   2.465
18252WAT     H254999   4.404   9.110   2.566
18253WAT      O55000   1.522   3.919   1.809
18253WAT     H155001   1.430   3.957   1.826
18253WAT     H255002   1.583   3.992   1.778
18254WAT      O55003   5.782   5.300   7.627
18254WAT     H155004   5.700   5.345   7.663
18254WAT     H255005   5.755   5.220   7.574
18255WAT      O55006   6.158   0.569   4.204
18255WAT     H155007   6.192   0.586   4.297
18255WAT     H255008   6.143   0.471   4.192
18256WAT      O55009   9.788   8.751   7.040
18256WAT     H155010   9.741   8.816   6.981
18256WAT     H255011   9.780   8.659   7.002
18257WAT      O55012   8.216   7.105   6.987
18257WAT     H155013   8.309   7.122   6.953
18257WAT     H255014   8.165   7.191   6.990
18258WAT      O55015   7.964   6.056   1.219
18258WAT     H155016   7.986   5.978   1.161
18258WAT     H255017   7.884   6.035   1.275
18259WAT      O55018   3.867   4.646   5.648
18259WAT     H155019   3.897   4.644   5.743
18259WAT     H255020   3.947   4.642   5.587
18260WAT      O55021   8.397   4.535   3.489
18260WAT     H155022   8.367   4.503   3.399
18260WAT     H255023   8.338   4.497   3.560
18261WAT      O55024   9.376   6.843   7.953
18261WAT     H155025   9.475   6.830   7.942
18261WAT     H255026   9.329   6.809   7.871
18262WAT      O55027   3.801   5.838   5.532
18262WAT     H155028   3.727   5.790   5.484
18262WAT     H255029   3.888   5.815   5.490
18263WAT      O55030   3.368   1.696   4.587
18263WAT     H155031   3.365   1.765   4.659
18263WAT     H255032   3.446   1.635   4.603
18264WAT      O55033   0.990   5.709   0.397
18264WAT     H155034   1.038   5.774   0.338
18264WAT     H255035   1.054   5.670   0.464
18265WAT      O55036   3.610   6.645   9.159
18265WAT     H155037   3.534   6.710   9.165
18265WAT     H255038   3.604   6.594   9.073
18266WAT      O55039   9.309   5.656   4.248
18266WAT     H155040   9.210   5.650   4.234
18266WAT     H255041   9.327   5.712   4.328
18267WAT      O55042   2.144   4.006   5.204
18267WAT     H155043   2.171   3.973   5.114
18267WAT     H255044   2.204   3.966   5.274
18268WAT      O55045   1.318   7.268   9.699
18268WAT     H155046   1.414   7.297   9.705
18268WAT     H255047   1.259   7.346   9.717
18269WAT      O55048   4.417   8.879   3.452
18269WAT     H155049   4.514   8.854   3.457
18269WAT     H255050   4.374   8.861   3.540
18270WAT      O55051   6.260   3.302   5.731
18270WAT     H155052   6.332   3.250   5.776
18270WAT     H255053   6.281   3.310   5.633
18271WAT      O55054   7.317   4.275   6.332
18271WAT     H155055   7.232   4.225   6.347
18271WAT     H255056   7.352   4.307   6.420
18272WAT      O55057   2.968   0.472   1.521
18272WAT     H155058   3.040   0.464   1.590
18272WAT     H255059   2.936   0.381   1.497
18273WAT      O55060   5.099   0.409   2.172
18273WAT     H155061   5.154   0.356   2.107
18273WAT     H255062   5.113   0.374   2.264
18274WAT      O55063   4.046   2.963   1.442
18274WAT     H155064   4.060   3.039   1.505
18274WAT     H255065   4.130   2.909   1.437
18275WAT      O55066   8.201   4.360   9.338
18275WAT     H155067   8.196   4.260   9.338
18275WAT     H255068   8.185   4.394   9.245
18276WAT      O55069   9.064   9.797   0.300
18276WAT     H155070   9.045   9.844   0.214
18276WAT     H255071   9.162   9.794   0.317
18277WAT      O55072   4.401   1.154   9.216
18277WAT     H155073   4.424   1.104   9.299
18277WAT     H255074   4.366   1.245   9.239
18278WAT      O55075   8.290   6.395   3.327
18278WAT     H155076   8.324   6.351   3.244
18278WAT     H255077   8.364   6.405   3.393
18279WAT      O55078   2.780   2.006   9.268
18279WAT     H155079   2.816   1.958   9.348
18279WAT     H255080   2.848   2.072   9.235
18280WAT      O55081   2.156   0.728   7.770
18280WAT     H155082   2.102   0.813   7.774
18280WAT     H255083   2.100   0.655   7.732
18281WAT      O55084   3.625   8.862   5.178
18281WAT     H155085   3.573   8.889   5.259
18281WAT     H255086   3.565   8.860   5.098
18282WAT      O55087   4.624   4.171   3.802
18282WAT     H155088   4.573   4.085   3.809
18282WAT     H255089   4.596   4.219   3.720
18283WAT      O55090   6.782   8.554   0.781
18283WAT     H155091   6.810   8.561   0.877
18283WAT     H255092   6.851   8.503   0.730
18284WAT      O55093   5.119   0.991   9.505
18284WAT     H155094   5.031   0.943   9.514
18284WAT     H255095   5.108   1.086   9.533
18285WAT      O55096   9.196   4.728   0.654
18285WAT     H155097   9.168   4.820   0.683
18285WAT     H255098   9.260   4.690   0.720
18286WAT      O55099   6.099   5.623   8.762
18286WAT     H155100   6.178   5.677   8.791
18286WAT     H255101   6.094   5.623   8.662
18287WAT      O55102   3.669   9.377   1.631
18287WAT     H155103   3.659   9.429   1.717
18287WAT     H255104   3.589   9.393   1.573
18288WAT      O55105   2.151   9.067   6.991
18288WAT     H155106   2.243   9.101   6.971
18288WAT     H255107   2.089   9.145   7.005
18289WAT      O55108   4.287   4.539   8.538
18289WAT     H155109   4.256   4.478   8.464
18289WAT     H255110   4.386   4.530   8.550
18290WAT      O55111   5.895   8.037   7.703
18290WAT     H155112   5.954   8.037   7.783
18290WAT     H255113   5.904   7.950   7.655
18291WAT      O55114   1.438   7.515   5.849
18291WAT     H155115   1.393   7.426   5.863
18291WAT     H255116   1.398   7.583   5.911
18292WAT      O55117   4.370   1.881   5.705
18292WAT     H155118   4.376   1.978   5.683
18292WAT     H255119   4.439   1.831   5.653
18293WAT      O55120   0.473   4.675   9.161
18293WAT     H155121   0.415   4.613   9.109
18293WAT     H255122   0.420   4.755   9.189
18294WAT      O55123   0.486   1.415   2.362
18294WAT     H155124   0.462   1.320   2.384
18294WAT     H255125   0.586   1.424   2.357
18295WAT      O55126   5.000   6.086   0.822
18295WAT     H155127   5.083   6.032   0.833
18295WAT     H255128   4.929   6.051   0.885
18296WAT      O55129   3.022   7.091   1.540
18296WAT     H155130   3.104   7.145   1.559
18296WAT     H255131   2.943   7.152   1.531
18297WAT      O55132   2.404   3.510   5.074
18297WAT     H155133   2.358   3.564   5.003
18297WAT     H255134   2.403   3.560   5.160
18298WAT      O55135   1.961   3.662   5.071
18298WAT     H155136   1.997   3.705   4.988
18298WAT     H255137   1.929   3.570   5.050
18299WAT      O55138   2.373   5.530   0.817
18299WAT     H155139   2.468   5.499   0.818
18299WAT     H255140   2.355   5.586   0.897
18300WAT      O55141   3.987   0.494   5.610
18300WAT     H155142   4.045   0.563   5.654
18300WAT     H255143   3.953   0.430   5.680
18301WAT      O55144   7.889   2.089   3.568
18301WAT     H155145   7.933   2.178   3.578
18301WAT     H255146   7.921   2.028   3.639
18302WAT      O55147   7.096   0.456   3.218
18302WAT     H155148   7.011   0.495   3.184
18302WAT     H255149   7.173   0.510   3.184
18303WAT      O55150   6.569   8.418   7.923
18303WAT     H155151   6.500   8.399   7.992
18303WAT     H255152   6.658   8.430   7.968
18304WAT      O55153   4.967   4.776   0.096
18304WAT     H155154   5.043   4.783   0.032
18304WAT     H255155   4.980   4.697   0.155
18305WAT      O55156   3.584   1.026   2.913
18305WAT     H155157   3.534   1.104   2.876
18305WAT     H255158   3.682   1.049   2.920
18306WAT      O55159   6.258   5.473   0.699
18306WAT     H155160   6.275   5.556   0.646
18306WAT     H255161   6.228   5.400   0.637
18307WAT      O55162   2.573   7.322   3.057
18307WAT     H155163   2.650   7.353   3.112
18307WAT     H255164   2.494   7.305   3.117
18308WAT      O55165   0.159   6.000   4.498
18308WAT     H155166   0.121   6.027   4.587
18308WAT     H255167   0.256   6.023   4.495
18309WAT      O55168   2.344   2.268   1.462
18309WAT     H155169   2.420   2.302   1.519
18309WAT     H255170   2.293   2.199   1.513
18310WAT      O55171   2.846   4.127   8.328
18310WAT     H155172   2.792   4.043   8.327
18310WAT     H255173   2.850   4.162   8.422
18311WAT      O55174   8.147   3.802   7.427
18311WAT     H155175   8.053   3.801   7.394
18311WAT     H255176   8.198   3.874   7.381
18312WAT      O55177   2.663   5.635   7.208
18312WAT     H155178   2.610   5.599   7.284
18312WAT     H255179   2.739   5.690   7.243
18313WAT      O55180   0.309   7.790   2.797
18313WAT     H155181   0.311   7.880   2.841
18313WAT     H255182   0.217   7.751   2.805
18314WAT      O55183   7.078   3.083   1.528
18314WAT     H155184   7.148   3.087   1.599
18314WAT     H255185   7.008   3.016   1.553
18315WAT      O55186   1.874   8.733   9.730
18315WAT     H155187   1.897   8.637   9.714
18315WAT     H255188   1.921   8.790   9.662
18316WAT      O55189   2.367   8.631   0.488
18316WAT     H155190   2.423   8.562   0.442
18316WAT     H255191   2.398   8.722   0.462
18317WAT      O55192   4.838   1.070   5.850
18317WAT     H155193   4.928   1.039   5.882
18317WAT     H255194   4.767   1.011   5.890
18318WAT      O55195   0.962   1.003   8.184
18318WAT     H155196   0.920   1.005   8.275
18318WAT     H255197   0.921   0.930   8.130
18319WAT      O55198   4.170   2.231   0.903
18319WAT     H155199   4.266   2.259   0.897
18319WAT     H255200   4.165   2.134   0.928
18320WAT      O55201   1.169   6.049   6.280
18320WAT     H155202   1.072   6.048   6.257
18320WAT     H255203   1.207   5.957   6.269
18321WAT      O55204   9.033   1.961   8.123
18321WAT     H155205   9.103   1.950   8.194
18321WAT     H255206   8.943   1.941   8.162
18322WAT      O55207   6.948   1.209   7.006
18322WAT     H155208   6.889   1.149   7.062
18322WAT     H255209   6.978   1.286   7.062
18323WAT      O55210   8.031   8.839   9.170
18323WAT     H155211   7.956   8.800   9.224
18323WAT     H255212   8.045   8.784   9.087
18324WAT      O55213   8.159   8.847   2.285
18324WAT     H155214   8.183   8.838   2.381
18324WAT     H255215   8.184   8.763   2.236
18325WAT      O55216   6.158   8.417   7.895
18325WAT     H155217   6.062   8.402   7.871
18325WAT     H255218   6.213   8.341   7.862
18326WAT      O55219   7.202   6.787   8.922
18326WAT     H155220   7.206   6.750   9.015
18326WAT     H255221   7.294   6.814   8.893
18327WAT      O55222   1.227   6.068   6.715
18327WAT     H155223   1.243   6.058   6.813
18327WAT     H255224   1.132   6.098   6.701
18328WAT      O55225   5.104   9.792   8.074
18328WAT     H155226   5.082   9.873   8.019
18328WAT     H255227   5.130   9.820   8.166
18329WAT      O55228   2.468   2.450   9.064
18329WAT     H155229   2.499   2.355   9.067
18329WAT     H255230   2.383   2.456   9.012
18330WAT      O55231   5.053   7.586   9.247
18330WAT     H155232   5.120   7.611   9.176
18330WAT     H255233   4.963   7.576   9.205
18331WAT      O55234   3.754   9.100   1.764
18331WAT     H155235   3.703   9.182   1.737
18331WAT     H255236   3.835   9.127   1.816
18332WAT      O55237   2.641   8.935   4.128
18332WAT     H155238   2.732   8.896   4.134
18332WAT     H255239   2.641   9.028   4.164
18333WAT      O55240   7.179   9.275   4.483
18333WAT     H155241   7.172   9.273   4.583
18333WAT     H255242   7.171   9.370   4.452
18334WAT      O55243   3.412   9.179   4.490
18334WAT     H155244   3.415   9.256   4.427
18334WAT     H255245   3.415   9.094   4.438
18335WAT      O55246   7.342   9.284   6.800
18335WAT     H155247   7.245   9.280   6.776
18335WAT     H255248   7.362   9.218   6.871
18336WAT      O55249   9.307   0.739   1.645
18336WAT     H155250   9.288   0.658   1.589
18336WAT     H255251   9.228   0.801   1.643
18337WAT      O55252   0.854   7.557   4.087
18337WAT     H155253   0.780   7.610   4.045
18337WAT     H255254   0.854   7.572   4.186
18338WAT      O55255   0.980   7.096   7.879
18338WAT     H155256   0.886   7.095   7.846
18338WAT     H255257   1.005   7.190   7.904
18339WAT      O55258   4.642   3.692   4.245
18339WAT     H155259   4.548   3.662   4.263
18339WAT     H255260   4.656   3.782   4.287
18340WAT      O55261   8.406   0.974   9.694
18340WAT     H155262   8.347   1.028   9.634
18340WAT     H255263   8.500   0.975   9.660
18341WAT      O55264   5.542   2.880   2.662
18341WAT     H155265   5.455   2.918   2.631
18341WAT     H255266   5.567   2.921   2.750
18342WAT      O55267   6.449   2.405   4.232
18342WAT     H155268   6.378   2.345   4.270
18342WAT     H255269   6.529   2.402   4.292
18343WAT      O55270   9.046   8.011   3.637
18343WAT     H155271   9.111   7.936   3.653
18343WAT     H255272   8.960   7.991   3.685
18344WAT      O55273   2.498   6.065   0.412
18344WAT     H155274   2.440   6.139   0.444
18344WAT     H255275   2.583   6.102   0.373
18345WAT      O55276   5.865   3.754   1.206
18345WAT     H155277   5.849   3.850   1.183
18345WAT     H255278   5.902   3.748   1.299
18346WAT      O55279   5.084   6.409   7.005
18346WAT     H155280   5.146   6.485   7.027
18346WAT     H255281   4.995   6.426   7.046
18347WAT      O55282   4.707   1.097   0.155
18347WAT     H155283   4.779   1.066   0.094
18347WAT     H255284   4.707   1.197   0.158
18348WAT      O55285   9.024   8.202   4.818
18348WAT     H155286   9.044   8.198   4.916
18348WAT     H255287   9.106   8.176   4.767
18349WAT      O55288   5.348   9.525   8.582
18349WAT     H155289   5.407   9.491   8.654
18349WAT     H255290   5.295   9.449   8.543
18350WAT      O55291   1.052   2.425   6.420
18350WAT     H155292   1.096   2.472   6.343
18350WAT     H255293   1.107   2.437   6.502
18351WAT      O55294   3.269   7.318   4.281
18351WAT     H155295   3.202   7.275   4.221
18351WAT     H255296   3.361   7.289   4.254
18352WAT      O55297   1.471   9.208   7.825
18352WAT     H155298   1.438   9.198   7.731
18352WAT     H255299   1.495   9.303   7.842
18353WAT      O55300   5.116   5.479   6.500
18353WAT     H155301   5.209   5.514   6.508
18353WAT     H255302   5.119   5.384   6.468
18354WAT      O55303   2.913   4.094   2.505
18354WAT     H155304   2.933   4.012   2.451
18354WAT     H255305   2.825   4.082   2.550
18355WAT      O55306   2.818   4.932   5.390
18355WAT     H155307   2.728   4.938   5.431
18355WAT     H255308   2.809   4.903   5.294
18356WAT      O55309   8.469   4.576   1.103
18356WAT     H155310   8.527   4.542   1.029
18356WAT     H255311   8.452   4.502   1.168
18357WAT      O55312   5.951   8.864   6.204
18357WAT     H155313   5.926   8.952   6.163
18357WAT     H255314   5.955   8.794   6.133
18358WAT      O55315   8.642   6.879   2.303
18358WAT     H155316   8.638   6.903   2.399
18358WAT     H255317   8.725   6.826   2.285
18359WAT      O55318   4.350   0.446   6.341
18359WAT     H155319   4.401   0.462   6.425
18359WAT     H255320   4.405   0.391   6.278
18360WAT      O55321   6.608   8.342   5.673
18360WAT     H155322   6.578   8.331   5.578
18360WAT     H255323   6.564   8.423   5.712
18361WAT      O55324   6.152   6.154   7.291
18361WAT     H155325   6.143   6.182   7.386
18361WAT     H255326   6.203   6.224   7.240
18362WAT      O55327   2.270   8.357   4.823
18362WAT     H155328   2.281   8.450   4.787
18362WAT     H255329   2.217   8.303   4.758
18363WAT      O55330   9.665   4.693   2.267
18363WAT     H155331   9.741   4.634   2.240
18363WAT     H255332   9.629   4.663   2.356
18364WAT      O55333   0.770   7.420   9.198
18364WAT     H155334   0.803   7.407   9.291
18364WAT     H255335   0.844   7.398   9.134
18365WAT      O55336   9.840   3.746   3.367
18365WAT     H155337   9.778   3.742   3.288
18365WAT     H255338   9.790   3.778   3.447
18366WAT      O55339   7.936   8.590   0.383
18366WAT     H155340   7.878   8.641   0.446
18366WAT     H255341   7.902   8.497   0.373
18367WAT      O55342   1.790   0.889   0.674
18367WAT     H155343   1.864   0.871   0.739
18367WAT     H255344   1.742   0.973   0.701
18368WAT      O55345   5.783   6.208   9.575
18368WAT     H155346   5.883   6.197   9.576
18368WAT     H255347   5.751   6.235   9.665
18369WAT      O55348   2.591   7.735   8.785
18369WAT     H155349   2.542   7.674   8.847
18369WAT     H255350   2.638   7.805   8.839
18370WAT      O55351   4.617   2.202   8.844
18370WAT     H155352   4.597   2.117   8.892
18370WAT     H255353   4.601   2.279   8.906
18371WAT      O55354   4.217   9.233   0.291
18371WAT     H155355   4.221   9.134   0.279
18371WAT     H255356   4.145   9.256   0.357
18372WAT      O55357   0.880   7.195   3.570
18372WAT     H155358   0.798   7.243   3.600
18372WAT     H255359   0.958   7.224   3.626
18373WAT      O55360   4.054   1.711   2.394
18373WAT     H155361   3.983   1.770   2.433
18373WAT     H255362   4.034   1.694   2.298
18374WAT      O55363   4.984   9.223   2.033
18374WAT     H155364   4.935   9.310   2.028
18374WAT     H255365   5.042   9.221   2.114
18375WAT      O55366   0.709   6.892   3.818
18375WAT     H155367   0.774   6.817   3.809
18375WAT     H255368   0.728   6.943   3.902
18376WAT      O55369   5.360   0.211   8.139
18376WAT     H155370   5.426   0.177   8.073
18376WAT     H255371   5.272   0.225   8.095
18377WAT      O55372   3.612   6.113   3.700
18377WAT     H155373   3.675   6.177   3.744
18377WAT     H255374   3.593   6.037   3.762
18378WAT      O55375   1.091   8.755   2.405
18378WAT     H155376   1.093   8.851   2.433
18378WAT     H255377   0.997   8.728   2.384
18379WAT      O55378   3.883   4.923   6.132
18379WAT     H155379   3.929   5.004   6.167
18379WAT     H255380   3.882   4.924   6.032
18380WAT      O55381   7.739   4.408   2.887
18380WAT     H155382   7.813   4.415   2.953
18380WAT     H255383   7.707   4.313   2.882
18381WAT      O55384   6.212   0.583   1.627
18381WAT     H155385   6.193   0.644   1.550
18381WAT     H255386   6.127   0.553   1.669
18382WAT      O55387   8.802   7.697   6.726
18382WAT     H155388   8.796   7.629   6.653
18382WAT     H255389   8.848   7.656   6.805
18383WAT      O55390   2.221   7.894   5.743
18383WAT     H155391   2.224   7.800   5.777
18383WAT     H255392   2.188   7.893   5.648
18384WAT      O55393   6.456   9.440   0.227
18384WAT     H155394   6.515   9.485   0.294
18384WAT     H255395   6.512   9.385   0.165
18385WAT      O55396   9.808   7.559   0.658
18385WAT     H155397   9.813   7.463   0.628
18385WAT     H255398   9.769   7.614   0.584
18386WAT      O55399   5.195   1.404   3.568
18386WAT     H155400   5.192   1.305   3.580
18386WAT     H255401   5.218   1.447   3.655
18387WAT      O55402   6.282   4.772   6.912
18387WAT     H155403   6.363   4.752   6.856
18387WAT     H255404   6.295   4.860   6.958
18388WAT      O55405   0.271   5.430   3.047
18388WAT     H155406   0.360   5.426   3.001
18388WAT     H255407   0.257   5.522   3.083
18389WAT      O55408   8.540   3.521   8.048
18389WAT     H155409   8.539   3.488   8.142
18389WAT     H255410   8.501   3.451   7.987
18390WAT      O55411   6.362   0.140   3.725
18390WAT     H155412   6.451   0.183   3.717
18390WAT     H255413   6.312   0.149   3.639
18391WAT      O55414   8.611   9.591   6.387
18391WAT     H155415   8.617   9.608   6.485
18391WAT     H255416   8.536   9.645   6.348
18392WAT      O55417   8.664   3.807   3.584
18392WAT     H155418   8.695   3.739   3.518
18392WAT     H255419   8.730   3.813   3.659
18393WAT      O55420   5.584   9.092   1.471
18393WAT     H155421   5.519   9.025   1.507
18393WAT     H255422   5.584   9.173   1.530
18394WAT      O55423   7.519   6.399   7.667
18394WAT     H155424   7.489   6.474   7.609
18394WAT     H255425   7.539   6.318   7.611
18395WAT      O55426   5.700   0.537   6.185
18395WAT     H155427   5.729   0.580   6.271
18395WAT     H255428   5.771   0.552   6.116
18396WAT      O55429   2.177   3.714   5.387
18396WAT     H155430   2.273   3.732   5.364
18396WAT     H255431   2.162   3.615   5.392
18397WAT      O55432   3.450   1.017   4.782
18397WAT     H155433   3.435   1.105   4.737
18397WAT     H255434   3.405   0.944   4.730
18398WAT      O55435   7.140   1.976   1.685
18398WAT     H155436   7.089   2.060   1.705
18398WAT     H255437   7.116   1.944   1.593
18399WAT      O55438   0.425   9.558   7.874
18399WAT     H155439   0.393   9.468   7.902
18399WAT     H255440   0.470   9.603   7.951
18400WAT      O55441   6.566   6.820   1.120
18400WAT     H155442   6.589   6.883   1.047
18400WAT     H255443   6.589   6.727   1.092
18401WAT      O55444   1.442   6.628   7.696
18401WAT     H155445   1.467   6.597   7.605
18401WAT     H255446   1.368   6.695   7.689
18402WAT      O55447   8.569   8.669   0.223
18402WAT     H155448   8.523   8.613   0.154
18402WAT     H255449   8.660   8.632   0.240
18403WAT      O55450   6.533   1.198   9.186
18403WAT     H155451   6.607   1.220   9.122
18403WAT     H255452   6.458   1.154   9.137
18404WAT      O55453   8.416   3.148   0.664
18404WAT     H155454   8.457   3.218   0.606
18404WAT     H255455   8.324   3.177   0.690
18405WAT      O55456   1.649   5.620   5.308
18405WAT     H155457   1.562   5.638   5.354
18405WAT     H255458   1.712   5.696   5.324
18406WAT      O55459   5.078   0.466   5.370
18406WAT     H155460   5.149   0.505   5.312
18406WAT     H255461   4.992   0.463   5.320
18407WAT      O55462   3.851   5.015   2.721
18407WAT     H155463   3.810   5.079   2.656
18407WAT     H255464   3.829   5.042   2.814
18408WAT      O55465   6.799   0.348   4.501
18408WAT     H155466   6.794   0.398   4.414
18408WAT     H255467   6.726   0.279   4.503
18409WAT      O55468   6.213   4.430   7.255
18409WAT     H155469   6.132   4.415   7.311
18409WAT     H255470   6.185   4.454   7.162
18410WAT      O55471   7.727   2.632   8.137
18410WAT     H155472   7.695   2.723   8.164
18410WAT     H255473   7.800   2.641   8.069
18411WAT      O55474   5.072   0.615   7.563
18411WAT     H155475   5.091   0.601   7.660
18411WAT     H255476   5.012   0.542   7.530
18412WAT      O55477   2.248   7.895   7.651
18412WAT     H155478   2.243   7.959   7.727
18412WAT     H255479   2.237   7.945   7.565
18413WAT      O55480   2.124   4.562   2.705
18413WAT     H155481   2.111   4.559   2.804
18413WAT     H255482   2.172   4.646   2.680
18414WAT      O55483   0.370   1.960   2.864
18414WAT     H155484   0.349   1.865   2.885
18414WAT     H255485   0.387   1.969   2.765
18415WAT      O55486   1.983   1.802   9.808
18415WAT     H155487   2.025   1.794   9.718
18415WAT     H255488   1.982   1.712   9.852
18416WAT      O55489   5.377   6.814   4.323
18416WAT     H155490   5.441   6.831   4.398
18416WAT     H255491   5.304   6.883   4.326
18417WAT      O55492   8.249   6.734   4.584
18417WAT     H155493   8.166   6.755   4.532
18417WAT     H255494   8.327   6.735   4.523
18418WAT      O55495   3.469   6.055   5.368
18418WAT     H155496   3.552   6.080   5.417
18418WAT     H255497   3.401   6.128   5.376
18419WAT      O55498   6.866   4.496   7.838
18419WAT     H155499   6.942   4.455   7.889
18419WAT     H255500   6.807   4.546   7.902
18420WAT      O55501   5.289   8.518   4.125
18420WAT     H155502   5.224   8.506   4.200
18420WAT     H255503   5.251   8.583   4.059
18421WAT      O55504   2.892   8.387   3.041
18421WAT     H155505   2.932   8.477   3.024
18421WAT     H255506   2.824   8.394   3.114
18422WAT      O55507   2.084   9.226   5.035
18422WAT     H155508   1.997   9.269   5.061
18422WAT     H255509   2.066   9.135   4.997
18423WAT      O55510   2.994   8.522   6.939
18423WAT     H155511   2.933   8.480   6.872
18423WAT     H255512   2.951   8.518   7.029
18424WAT      O55513   8.397   7.247   3.872
18424WAT     H155514   8.323   7.236   3.937
18424WAT     H255515   8.456   7.323   3.900
18425WAT      O55516   9.204   4.684   8.823
18425WAT     H155517   9.187   4.764   8.765
18425WAT     H255518   9.195   4.710   8.919
18426WAT      O55519   7.279   8.288   7.082
18426WAT     H155520   7.276   8.305   7.181
18426WAT     H255521   7.338   8.209   7.064
18427WAT      O55522   0.416   2.422   4.008
18427WAT     H155523   0.484   2.400   4.078
18427WAT     H255524   0.327   2.387   4.036
18428WAT      O55525   4.320   7.807   9.022
18428WAT     H155526   4.274   7.723   8.993
18428WAT     H255527   4.366   7.848   8.943
18429WAT      O55528   8.490   5.036   3.563
18429WAT     H155529   8.447   4.954   3.526
18429WAT     H255530   8.493   5.107   3.493
18430WAT      O55531   6.746   3.352   4.016
18430WAT     H155532   6.844   3.371   4.006
18430WAT     H255533   6.695   3.436   4.000
18431WAT      O55534   3.127   0.503   3.226
18431WAT     H155535   3.207   0.535   3.276
18431WAT     H255536   3.044   0.542   3.266
18432WAT      O55537   5.808   5.469   3.967
18432WAT     H155538   5.788   5.384   3.918
18432WAT     H255539   5.848   5.448   4.056
18433WAT      O55540   4.211   8.353   4.622
18433WAT     H155541   4.214   8.369   4.720
18433WAT     H255542   4.301   8.325   4.589
18434WAT      O55543   5.288   3.401   3.313
18434WAT     H155544   5.334   3.478   3.357
18434WAT     H255545   5.189   3.413   3.320
18435WAT      O55546   0.890   7.592   0.465
18435WAT     H155547   0.823   7.519   0.449
18435WAT     H255548   0.886   7.657   0.389
18436WAT      O55549   0.238   0.923   3.655
18436WAT     H155550   0.335   0.939   3.673
18436WAT     H255551   0.229   0.850   3.587
18437WAT      O55552   2.353   3.392   2.220
18437WAT     H155553   2.408   3.457   2.168
18437WAT     H255554   2.306   3.441   2.294
18438WAT      O55555   1.794   6.338   0.531
18438WAT     H155556   1.809   6.436   0.529
18438WAT     H255557   1.865   6.292   0.478
18439WAT      O55558   7.809   1.079   4.474
18439WAT     H155559   7.906   1.065   4.458
18439WAT     H255560   7.771   1.136   4.401
18440WAT      O55561   8.792   5.170   8.982
18440WAT     H155562   8.866   5.163   8.915
18440WAT     H255563   8.780   5.081   9.027
18441WAT      O55564   0.085   1.744   1.066
18441WAT     H155565   0.109   1.655   1.027
18441WAT     H255566   0.023   1.730   1.143
18442WAT      O55567   8.125   3.385   9.308
18442WAT     H155568   8.092   3.476   9.284
18442WAT     H255569   8.217   3.373   9.270
18443WAT      O55570   4.068   8.444   8.895
18443WAT     H155571   4.080   8.543   8.882
18443WAT     H255572   4.024   8.406   8.813
18444WAT      O55573   8.952   8.053   3.968
18444WAT     H155574   8.969   8.152   3.972
18444WAT     H255575   8.888   8.028   4.042
18445WAT      O55576   3.712   5.698   2.658
18445WAT     H155577   3.650   5.703   2.579
18445WAT     H255578   3.758   5.609   2.658
18446WAT      O55579   1.356   6.969   3.570
18446WAT     H155580   1.281   6.927   3.621
18446WAT     H255581   1.400   7.038   3.628
18447WAT      O55582   4.577   5.917   7.387
18447WAT     H155583   4.511   5.861   7.336
18447WAT     H255584   4.527   5.985   7.442
18448WAT      O55585   7.336   3.530   2.922
18448WAT     H155586   7.352   3.620   2.962
18448WAT     H255587   7.241   3.503   2.936
18449WAT      O55588   0.656   1.311   4.900
18449WAT     H155589   0.576   1.289   4.846
18449WAT     H255590   0.736   1.320   4.841
18450WAT      O55591   8.159   7.233   8.849
18450WAT     H155592   8.208   7.320   8.853
18450WAT     H255593   8.160   7.198   8.755
18451WAT      O55594   2.371   0.268   9.868
18451WAT     H155595   2.294   0.221   9.823
18451WAT     H255596   2.443   0.284   9.800
18452WAT      O55597   6.941   8.458   4.213
18452WAT     H155598   6.859   8.508   4.240
18452WAT     H255599   7.021   8.500   4.255
18453WAT      O55600   4.874   2.860   5.380
18453WAT     H155601   4.850   2.788   5.445
18453WAT     H255602   4.968   2.846   5.350
18454WAT      O55603   9.743   6.341   1.811
18454WAT     H155604   9.668   6.337   1.744
18454WAT     H255605   9.741   6.259   1.868
18455WAT      O55606   2.778   4.668   8.761
18455WAT     H155607   2.693   4.685   8.811
18455WAT     H255608   2.758   4.657   8.664
18456WAT      O55609   8.916   5.165   9.501
18456WAT     H155610   8.886   5.253   9.466
18456WAT     H255611   8.836   5.108   9.520
18457WAT      O55612   9.249   5.649   3.714
18457WAT     H155613   9.207   5.563   3.743
18457WAT     H255614   9.273   5.704   3.794
18458WAT      O55615   9.530   6.340   5.388
18458WAT     H155616   9.507   6.344   5.485
18458WAT     H255617   9.595   6.412   5.365
18459WAT      O55618   8.259   0.945   1.207
18459WAT     H155619   8.193   1.018   1.192
18459WAT     H255620   8.249   0.877   1.134
18460WAT      O55621   0.655   7.727   5.107
18460WAT     H155622   0.611   7.816   5.091
18460WAT     H255623   0.587   7.661   5.138
18461WAT      O55624   7.242   9.022   5.384
18461WAT     H155625   7.153   9.015   5.338
18461WAT     H255626   7.293   9.099   5.345
18462WAT      O55627   0.253   1.272   2.135
18462WAT     H155628   0.196   1.221   2.199
18462WAT     H255629   0.306   1.341   2.185
18463WAT      O55630   6.780   4.613   7.598
18463WAT     H155631   6.777   4.534   7.536
18463WAT     H255632   6.837   4.591   7.676
18464WAT      O55633   9.160   5.097   7.815
18464WAT     H155634   9.238   5.049   7.775
18464WAT     H255635   9.134   5.174   7.757
18465WAT      O55636   8.566   4.652   6.674
18465WAT     H155637   8.580   4.553   6.663
18465WAT     H255638   8.543   4.672   6.769
18466WAT      O55639   0.366   6.654   3.450
18466WAT     H155640   0.414   6.738   3.425
18466WAT     H255641   0.296   6.674   3.519
18467WAT      O55642   6.224   2.876   2.461
18467WAT     H155643   6.239   2.911   2.554
18467WAT     H255644   6.233   2.777   2.461
18468WAT      O55645   9.700   5.675   3.294
18468WAT     H155646   9.685   5.744   3.365
18468WAT     H255647   9.676   5.714   3.205
18469WAT      O55648   6.817   0.190   3.359
18469WAT     H155649   6.806   0.195   3.260
18469WAT     H255650   6.914   0.180   3.381
18470WAT      O55651   4.281   9.532   6.737
18470WAT     H155652   4.364   9.489   6.773
18470WAT     H255653   4.222   9.462   6.697
18471WAT      O55654   5.509   5.689   9.153
18471WAT     H155655   5.517   5.601   9.201
18471WAT     H255656   5.488   5.761   9.219
18472WAT      O55657   5.193   8.575   8.033
18472WAT     H155658   5.249   8.537   7.960
18472WAT     H255659   5.204   8.520   8.116
18473WAT      O55660   1.002   9.185   3.503
18473WAT     H155661   1.077   9.214   3.443
18473WAT     H255662   1.033   9.188   3.598
18474WAT      O55663   1.168   5.829   8.667
18474WAT     H155664   1.249   5.854   8.614
18474WAT     H255665   1.194   5.765   8.739
18475WAT      O55666   7.820   9.282   7.305
18475WAT     H155667   7.740   9.333   7.334
18475WAT     H255668   7.852   9.225   7.382
18476WAT      O55669   7.206   4.378   7.912
18476WAT     H155670   7.140   4.395   7.986
18476WAT     H255671   7.230   4.465   7.869
18477WAT      O55672   9.885   6.040   6.856
18477WAT     H155673   9.809   6.078   6.802
18477WAT     H255674   9.869   5.942   6.871
18478WAT      O55675   4.586   6.759   6.552
18478WAT     H155676   4.569   6.699   6.630
18478WAT     H255677   4.684   6.765   6.535
18479WAT      O55678   3.294   9.172   0.474
18479WAT     H155679   3.253   9.244   0.419
18479WAT     H255680   3.380   9.143   0.432
18480WAT      O55681   4.870   0.465   5.193
18480WAT     H155682   4.893   0.432   5.102
18480WAT     H255683   4.772   0.459   5.208
18481WAT      O55684   3.364   4.330   7.936
18481WAT     H155685   3.417   4.401   7.890
18481WAT     H255686   3.294   4.373   7.993
18482WAT      O55687   9.859   6.490   4.410
18482WAT     H155688   9.854   6.588   4.426
18482WAT     H255689   9.900   6.472   4.321
18483WAT      O55690   3.865   7.273   7.690
18483WAT     H155691   3.953   7.311   7.718
18483WAT     H255692   3.854   7.182   7.729
18484WAT      O55693   4.777   1.711   7.894
18484WAT     H155694   4.862   1.715   7.946
18484WAT     H255695   4.756   1.802   7.857
18485WAT      O55696   8.414   0.832   1.938
18485WAT     H155697   8.379   0.908   1.884
18485WAT     H255698   8.371   0.747   1.909
18486WAT      O55699   4.759   9.512   4.536
18486WAT     H155700   4.674   9.460   4.535
18486WAT     H255701   4.820   9.475   4.606
18487WAT      O55702   3.686   5.375   0.443
18487WAT     H155703   3.754   5.314   0.403
18487WAT     H255704   3.647   5.434   0.372
18488WAT      O55705   0.475   7.947   5.790
18488WAT     H155706   0.377   7.957   5.801
18488WAT     H255707   0.495   7.874   5.725
18489WAT      O55708   3.665   2.254   2.048
18489WAT     H155709   3.640   2.296   2.135
18489WAT     H255710   3.741   2.304   2.007
18490WAT      O55711   2.285   1.757   8.708
18490WAT     H155712   2.274   1.854   8.685
18490WAT     H255713   2.343   1.749   8.789
18491WAT      O55714   2.137   3.014   7.544
18491WAT     H155715   2.173   3.062   7.463
18491WAT     H255716   2.143   2.916   7.530
18492WAT      O55717   4.250   6.992   0.211
18492WAT     H155718   4.328   6.992   0.273
18492WAT     H255719   4.265   6.924   0.139
18493WAT      O55720   4.643   2.610   6.657
18493WAT     H155721   4.700   2.547   6.603
18493WAT     H255722   4.647   2.584   6.753
18494WAT      O55723   2.963   4.963   2.148
18494WAT     H155724   2.956   5.033   2.076
18494WAT     H255725   2.905   4.989   2.225
18495WAT      O55726   9.019   5.627   8.590
18495WAT     H155727   8.982   5.717   8.567
18495WAT     H255728   9.000   5.607   8.686
18496WAT      O55729   8.597   3.508   3.953
18496WAT     H155730   8.663   3.493   3.880
18496WAT     H255731   8.645   3.520   4.040
18497WAT      O55732   8.942   9.671   5.093
18497WAT     H155733   8.887   9.595   5.127
18497WAT     H255734   9.038   9.657   5.116
18498WAT      O55735   0.338   2.124   3.067
18498WAT     H155736   0.365   2.053   3.002
18498WAT     H255737   0.351   2.090   3.161
18499WAT      O55738   1.471   1.499   0.630
18499WAT     H155739   1.545   1.560   0.603
18499WAT     H255740   1.400   1.551   0.676
18500WAT      O55741   9.614   4.849   8.297
18500WAT     H155742   9.669   4.821   8.376
18500WAT     H255743   9.542   4.911   8.328
18501WAT      O55744   4.145   3.416   3.267
18501WAT     H155745   4.069   3.475   3.238
18501WAT     H255746   4.110   3.345   3.329
18502WAT      O55747   6.347   2.430   3.583
18502WAT     H155748   6.323   2.343   3.626
18502WAT     H255749   6.330   2.504   3.648
18503WAT      O55750   6.718   2.468   4.926
18503WAT     H155751   6.787   2.410   4.885
18503WAT     H255752   6.758   2.523   4.999
18504WAT      O55753   2.696   3.013   6.717
18504WAT     H155754   2.596   3.015   6.707
18504WAT     H255755   2.725   2.919   6.732
18505WAT      O55756   9.228   0.123   4.557
18505WAT     H155757   9.291   0.201   4.548
18505WAT     H255758   9.135   0.157   4.566
18506WAT      O55759   9.805   9.596   1.926
18506WAT     H155760   9.736   9.595   1.999
18506WAT     H255761   9.782   9.527   1.858
18507WAT      O55762   8.337   5.111   2.578
18507WAT     H155763   8.278   5.084   2.503
18507WAT     H255764   8.409   5.172   2.544
18508WAT      O55765   0.437   3.487   1.933
18508WAT     H155766   0.400   3.465   2.024
18508WAT     H255767   0.450   3.403   1.881
18509WAT      O55768   6.591   3.862   2.634
18509WAT     H155769   6.607   3.763   2.636
18509WAT     H255770   6.550   3.887   2.546
18510WAT      O55771   0.154   2.709   6.598
18510WAT     H155772   0.146   2.772   6.521
18510WAT     H255773   0.091   2.632   6.586
18511WAT      O55774   6.353   4.042   7.636
18511WAT     H155775   6.400   4.128   7.616
18511WAT     H255776   6.352   3.984   7.555
18512WAT      O55777   5.089   7.695   2.871
18512WAT     H155778   5.104   7.680   2.969
18512WAT     H255779   5.130   7.619   2.820
18513WAT      O55780   5.832   7.476   4.219
18513WAT     H155781   5.735   7.450   4.225
18513WAT     H255782   5.877   7.421   4.150
18514WAT      O55783   6.732   6.021   3.145
18514WAT     H155784   6.755   6.097   3.083
18514WAT     H255785   6.812   5.999   3.202
18515WAT      O55786   0.940   9.520   2.109
18515WAT     H155787   0.933   9.487   2.015
18515WAT     H255788   0.848   9.530   2.147
18516WAT      O55789   8.118   3.653   1.150
18516WAT     H155790   8.186   3.724   1.166
18516WAT     H255791   8.113   3.594   1.231
18517WAT      O55792   7.316   0.560   3.058
18517WAT     H155793   7.401   0.562   3.006
18517WAT     H255794   7.336   0.575   3.155
18518WAT      O55795   3.824   4.176   6.751
18518WAT     H155796   3.838   4.233   6.832
18518WAT     H255797   3.833   4.080   6.777
18519WAT      O55798   0.607   5.593   6.474
18519WAT     H155799   0.532   5.564   6.532
18519WAT     H255800   0.589   5.567   6.379
18520WAT      O55801   3.996   3.005   2.823
18520WAT     H155802   4.028   3.051   2.740
18520WAT     H255803   4.026   3.057   2.903
18521WAT      O55804   5.045   6.349   9.067
18521WAT     H155805   4.962   6.389   9.106
18521WAT     H255806   5.029   6.253   9.047
18522WAT      O55807   6.865   4.259   5.055
18522WAT     H155808   6.842   4.352   5.085
18522WAT     H255809   6.806   4.193   5.103
18523WAT      O55810   9.358   5.280   9.252
18523WAT     H155811   9.432   5.212   9.253
18523WAT     H255812   9.383   5.357   9.312
18524WAT      O55813   9.504   4.510   1.576
18524WAT     H155814   9.568   4.573   1.621
18524WAT     H255815   9.432   4.562   1.530
18525WAT      O55816   8.810   9.063   4.969
18525WAT     H155817   8.851   9.031   4.883
18525WAT     H255818   8.728   9.009   4.989
18526WAT      O55819   5.857   2.826   7.989
18526WAT     H155820   5.786   2.896   7.998
18526WAT     H255821   5.878   2.788   8.079
18527WAT      O55822   9.651   4.696   0.652
18527WAT     H155823   9.738   4.651   0.632
18527WAT     H255824   9.645   4.782   0.601
18528WAT      O55825   6.707   4.512   2.245
18528WAT     H155826   6.659   4.598   2.263
18528WAT     H255827   6.756   4.484   2.328
18529WAT      O55828   6.024   9.133   1.332
18529WAT     H155829   5.948   9.068   1.340
18529WAT     H255830   6.109   9.087   1.357
18530WAT      O55831   0.137   3.321   0.341
18530WAT     H155832   0.048   3.288   0.373
18530WAT     H255833   0.190   3.356   0.418
18531WAT      O55834   8.064   3.228   7.358
18531WAT     H155835   8.024   3.144   7.321
18531WAT     H255836   8.151   3.246   7.312
18532WAT      O55837   8.595   5.988   3.169
18532WAT     H155838   8.624   6.000   3.264
18532WAT     H255839   8.640   5.907   3.130
18533WAT      O55840   2.950   0.755   3.052
18533WAT     H155841   3.003   0.672   3.067
18533WAT     H255842   2.853   0.734   3.053
18534WAT      O55843   1.872   1.873   8.327
18534WAT     H155844   1.894   1.784   8.367
18534WAT     H255845   1.870   1.866   8.227
18535WAT      O55846   9.099   9.647   8.728
18535WAT     H155847   9.121   9.661   8.824
18535WAT     H255848   9.131   9.556   8.700
18536WAT      O55849   3.371   8.208   3.221
18536WAT     H155850   3.298   8.270   3.192
18536WAT     H255851   3.337   8.149   3.295
18537WAT      O55852   5.810   1.748   7.291
18537WAT     H155853   5.810   1.792   7.201
18537WAT     H255854   5.717   1.723   7.316
18538WAT      O55855   0.108   5.381   1.356
18538WAT     H155856   0.077   5.410   1.265
18538WAT     H255857   0.205   5.403   1.367
18539WAT      O55858   3.475   2.452   8.178
18539WAT     H155859   3.490   2.545   8.144
18539WAT     H255860   3.560   2.416   8.217
18540WAT      O55861   5.976   9.450   7.077
18540WAT     H155862   5.965   9.351   7.068
18540WAT     H255863   5.923   9.496   7.006
18541WAT      O55864   2.203   9.741   3.844
18541WAT     H155865   2.125   9.789   3.885
18541WAT     H255866   2.175   9.649   3.817
18542WAT      O55867   5.326   8.212   8.479
18542WAT     H155868   5.294   8.127   8.437
18542WAT     H255869   5.320   8.204   8.579
18543WAT      O55870   1.281   7.115   7.754
18543WAT     H155871   1.333   7.078   7.677
18543WAT     H255872   1.188   7.078   7.752
18544WAT      O55873   4.184   8.418   1.879
18544WAT     H155874   4.247   8.346   1.907
18544WAT     H255875   4.112   8.428   1.948
18545WAT      O55876   8.779   3.218   6.679
18545WAT     H155877   8.734   3.206   6.767
18545WAT     H255878   8.770   3.313   6.649
18546WAT      O55879   4.281   2.874   7.237
18546WAT     H155880   4.261   2.778   7.255
18546WAT     H255881   4.376   2.893   7.261
18547WAT      O55882   3.127   0.853   1.226
18547WAT     H155883   3.097   0.785   1.160
18547WAT     H255884   3.162   0.934   1.178
18548WAT      O55885   6.457   1.242   1.761
18548WAT     H155886   6.418   1.293   1.837
18548WAT     H255887   6.384   1.221   1.695
18549WAT      O55888   6.821   1.830   0.313
18549WAT     H155889   6.800   1.925   0.287
18549WAT     H255890   6.779   1.768   0.246
18550WAT      O55891   4.752   8.550   5.889
18550WAT     H155892   4.758   8.636   5.940
18550WAT     H255893   4.738   8.474   5.954
18551WAT      O55894   2.987   6.054   3.688
18551WAT     H155895   3.068   6.047   3.629
18551WAT     H255896   2.966   6.150   3.704
18552WAT      O55897   5.016   5.214   3.011
18552WAT     H155898   5.027   5.291   2.948
18552WAT     H255899   4.937   5.160   2.983
18553WAT      O55900   5.577   8.524   8.018
18553WAT     H155901   5.558   8.432   8.053
18553WAT     H255902   5.504   8.553   7.956
18554WAT      O55903   3.748   1.198   1.092
18554WAT     H155904   3.773   1.190   0.996
18554WAT     H255905   3.681   1.271   1.103
18555WAT      O55906   0.801   3.328   8.090
18555WAT     H155907   0.827   3.265   8.164
18555WAT     H255908   0.747   3.403   8.128
18556WAT      O55909   8.650   0.709   4.763
18556WAT     H155910   8.669   0.613   4.744
18556WAT     H255911   8.736   0.760   4.767
18557WAT      O55912   6.293   6.358   7.184
18557WAT     H155913   6.267   6.452   7.163
18557WAT     H255914   6.343   6.356   7.271
18558WAT      O55915   0.749   3.088   7.968
18558WAT     H155916   0.752   3.185   7.992
18558WAT     H255917   0.658   3.065   7.934
18559WAT      O55918   8.918   2.327   0.226
18559WAT     H155919   8.941   2.248   0.169
18559WAT     H255920   8.840   2.375   0.186
18560WAT      O55921   6.526   2.830   0.185
18560WAT     H155922   6.578   2.819   0.270
18560WAT     H255923   6.486   2.922   0.183
18561WAT      O55924   9.739   3.499   3.629
18561WAT     H155925   9.820   3.556   3.641
18561WAT     H255926   9.700   3.514   3.538
18562WAT      O55927   6.214   1.601   1.399
18562WAT     H155928   6.202   1.695   1.430
18562WAT     H255929   6.277   1.553   1.460
18563WAT      O55930   0.318   1.232   9.019
18563WAT     H155931   0.335   1.291   8.940
18563WAT     H255932   0.299   1.289   9.099
18564WAT      O55933   3.749   0.358   4.555
18564WAT     H155934   3.765   0.332   4.459
18564WAT     H255935   3.836   0.378   4.599
18565WAT      O55936   2.120   5.242   6.575
18565WAT     H155937   2.177   5.225   6.656
18565WAT     H255938   2.049   5.308   6.598
18566WAT      O55939   5.309   1.396   1.353
18566WAT     H155940   5.276   1.490   1.366
18566WAT     H255941   5.354   1.389   1.264
18567WAT      O55942   4.518   3.650   0.108
18567WAT     H155943   4.612   3.615   0.110
18567WAT     H255944   4.497   3.682   0.016
18568WAT      O55945   3.231   2.365   2.048
18568WAT     H155946   3.157   2.336   2.109
18568WAT     H255947   3.288   2.286   2.025
18569WAT      O55948   4.351   5.990   4.828
18569WAT     H155949   4.267   5.935   4.826
18569WAT     H255950   4.351   6.047   4.910
18570WAT      O55951   4.335   8.561   2.310
18570WAT     H155952   4.317   8.619   2.390
18570WAT     H255953   4.373   8.616   2.237
18571WAT      O55954   4.282   5.852   0.258
18571WAT     H155955   4.200   5.809   0.222
18571WAT     H255956   4.257   5.927   0.319
18572WAT      O55957   7.030   0.060   7.613
18572WAT     H155958   7.109   0.117   7.591
18572WAT     H255959   6.976   0.104   7.686
18573WAT      O55960   2.849   6.773   1.519
18573WAT     H155961   2.918   6.806   1.584
18573WAT     H255962   2.852   6.830   1.437
18574WAT      O55963   2.715   1.636   1.283
18574WAT     H155964   2.641   1.700   1.301
18574WAT     H255965   2.775   1.630   1.363
18575WAT      O55966   7.320   1.523   1.320
18575WAT     H155967   7.382   1.599   1.339
18575WAT     H255968   7.368   1.436   1.330
18576WAT      O55969   7.611   4.567   1.832
18576WAT     H155970   7.512   4.559   1.832
18576WAT     H255971   7.652   4.482   1.798
18577WAT      O55972   5.237   5.546   2.390
18577WAT     H155973   5.248   5.581   2.297
18577WAT     H255974   5.180   5.464   2.389
18578WAT      O55975   5.967   6.851   4.239
18578WAT     H155976   6.021   6.785   4.291
18578WAT     H255977   5.885   6.805   4.203
18579WAT      O55978   9.405   5.079   6.279
18579WAT     H155979   9.445   5.028   6.204
18579WAT     H255980   9.366   5.164   6.245
18580WAT      O55981   6.396   9.222   9.712
18580WAT     H155982   6.490   9.190   9.720
18580WAT     H255983   6.347   9.166   9.645
18581WAT      O55984   8.804   6.029   4.405
18581WAT     H155985   8.786   6.011   4.502
18581WAT     H255986   8.749   5.968   4.349
18582WAT      O55987   5.508   6.795   6.914
18582WAT     H155988   5.567   6.746   6.850
18582WAT     H255989   5.532   6.892   6.913
18583WAT      O55990   3.208   1.192   3.504
18583WAT     H155991   3.252   1.265   3.451
18583WAT     H255992   3.211   1.106   3.452
18584WAT      O55993   4.439   1.223   3.781
18584WAT     H155994   4.441   1.123   3.785
18584WAT     H255995   4.510   1.255   3.719
18585WAT      O55996   1.232   1.584   1.237
18585WAT     H155997   1.253   1.680   1.251
18585WAT     H255998   1.264   1.530   1.315
18586WAT      O55999   6.530   1.097   7.911
18586WAT     H156000   6.435   1.076   7.887
18586WAT     H256001   6.543   1.083   8.009
18587WAT      O56002   9.546   9.598   1.637
18587WAT     H156003   9.622   9.661   1.647
18587WAT     H256004   9.532   9.578   1.540
18588WAT      O56005   9.634   7.069   8.754
18588WAT     H156006   9.536   7.076   8.774
18588WAT     H256007   9.662   6.974   8.759
18589WAT      O56008   3.013   0.313   6.935
18589WAT     H156009   3.071   0.381   6.890
18589WAT     H256010   2.929   0.356   6.967
18590WAT      O56011   1.076   6.701   5.708
18590WAT     H156012   1.144   6.762   5.668
18590WAT     H256013   1.122   6.628   5.759
18591WAT      O56014   4.682   4.732   6.669
18591WAT     H156015   4.623   4.753   6.747
18591WAT     H256016   4.697   4.815   6.615
18592WAT      O56017   3.091   4.101   8.226
18592WAT     H156018   2.993   4.101   8.247
18592WAT     H256019   3.142   4.133   8.306
18593WAT      O56020   4.068   0.847   4.808
18593WAT     H156021   3.977   0.858   4.768
18593WAT     H256022   4.064   0.781   4.883
18594WAT      O56023   7.557   4.638   9.765
18594WAT     H156024   7.459   4.619   9.757
18594WAT     H256025   7.607   4.553   9.780
18595WAT      O56026   4.624   5.679   3.610
18595WAT     H156027   4.700   5.741   3.632
18595WAT     H256028   4.572   5.658   3.693
18596WAT      O56029   3.264   4.242   5.880
18596WAT     H156030   3.280   4.250   5.978
18596WAT     H256031   3.346   4.205   5.836
18597WAT      O56032   7.404   8.537   3.628
18597WAT     H156033   7.390   8.498   3.720
18597WAT     H256034   7.497   8.572   3.620
18598WAT      O56035   4.128   4.033   2.544
18598WAT     H156036   4.116   3.944   2.500
18598WAT     H256037   4.216   4.035   2.592
18599WAT      O56038   4.849   5.808   9.296
18599WAT     H156039   4.947   5.817   9.279
18599WAT     H256040   4.806   5.898   9.289
18600WAT      O56041   2.150   1.829   5.228
18600WAT     H156042   2.172   1.732   5.226
18600WAT     H256043   2.150   1.866   5.135
18601WAT      O56044   0.473   0.846   2.396
18601WAT     H156045   0.443   0.755   2.426
18601WAT     H256046   0.483   0.906   2.476
18602WAT      O56047   5.255   2.649   1.095
18602WAT     H156048   5.273   2.570   1.153
18602WAT     H256049   5.248   2.731   1.152
18603WAT      O56050   5.563   8.280   6.682
18603WAT     H156051   5.475   8.267   6.636
18603WAT     H256052   5.593   8.193   6.722
18604WAT      O56053   9.700   2.623   2.269
18604WAT     H156054   9.610   2.657   2.244
18604WAT     H256055   9.695   2.524   2.285
18605WAT      O56056   4.732   1.573   4.018
18605WAT     H156057   4.749   1.561   3.921
18605WAT     H256058   4.819   1.586   4.066
18606WAT      O56059   6.154   0.477   0.616
18606WAT     H156060   6.247   0.481   0.580
18606WAT     H256061   6.119   0.570   0.629
18607WAT      O56062   7.400   3.397   4.979
18607WAT     H156063   7.384   3.491   5.007
18607WAT     H256064   7.312   3.352   4.962
18608WAT      O56065   3.370   8.509   5.878
18608WAT     H156066   3.332   8.458   5.801
18608WAT     H256067   3.460   8.471   5.901
18609WAT      O56068   2.848   5.886   4.784
18609WAT     H156069   2.901   5.971   4.775
18609WAT     H256070   2.774   5.886   4.718
18610WAT      O56071   3.363   5.073   9.884
18610WAT     H156072   3.300   5.001   9.853
18610WAT     H256073   3.448   5.031   9.917
18611WAT      O56074   9.215   0.299   6.700
18611WAT     H156075   9.280   0.247   6.756
18611WAT     H256076   9.265   0.358   6.637
18612WAT      O56077   2.836   7.194   7.987
18612WAT     H156078   2.818   7.099   8.013
18612WAT     H256079   2.770   7.222   7.916
18613WAT      O56080   4.531   0.278   1.549
18613WAT     H156081   4.516   0.348   1.620
18613WAT     H256082   4.591   0.316   1.478
18614WAT      O56083   4.124   2.028   2.476
18614WAT     H156084   4.206   1.972   2.476
18614WAT     H256085   4.081   2.024   2.386
18615WAT      O56086   8.934   2.418   7.970
18615WAT     H156087   8.979   2.483   8.031
18615WAT     H256088   8.837   2.443   7.960
18616WAT      O56089   4.393   9.148   7.754
18616WAT     H156090   4.307   9.116   7.793
18616WAT     H256091   4.400   9.118   7.659
18617WAT      O56092   5.427   6.787   5.438
18617WAT     H156093   5.393   6.779   5.345
18617WAT     H256094   5.435   6.696   5.479
18618WAT      O56095   7.833   3.804   8.821
18618WAT     H156096   7.843   3.759   8.909
18618WAT     H256097   7.919   3.799   8.770
18619WAT      O56098   1.425   2.923   7.864
18619WAT     H156099   1.341   2.973   7.842
18619WAT     H256100   1.418   2.829   7.831
18620WAT      O56101   4.982   5.543   4.770
18620WAT     H156102   5.000   5.642   4.765
18620WAT     H256103   4.917   5.518   4.699
18621WAT      O56104   0.880   7.608   6.128
18621WAT     H156105   0.883   7.547   6.207
18621WAT     H256106   0.924   7.695   6.151
18622WAT      O56107   1.495   9.135   6.430
18622WAT     H156108   1.432   9.059   6.445
18622WAT     H256109   1.513   9.145   6.332
18623WAT      O56110   6.417   6.097   3.050
18623WAT     H156111   6.390   6.171   3.111
18623WAT     H256112   6.516   6.101   3.036
18624WAT      O56113   5.393   0.286   6.980
18624WAT     H156114   5.465   0.347   7.012
18624WAT     H256115   5.411   0.193   7.013
18625WAT      O56116   9.565   5.714   2.513
18625WAT     H156117   9.646   5.707   2.454
18625WAT     H256118   9.521   5.624   2.520
18626WAT      O56119   8.198   4.696   8.328
18626WAT     H156120   8.166   4.718   8.420
18626WAT     H256121   8.234   4.602   8.327
18627WAT      O56122   2.813   4.659   5.742
18627WAT     H156123   2.796   4.611   5.828
18627WAT     H256124   2.868   4.602   5.682
18628WAT      O56125   5.196   5.376   4.781
18628WAT     H156126   5.164   5.339   4.693
18628WAT     H256127   5.138   5.453   4.808
18629WAT      O56128   5.921   5.097   3.945
18629WAT     H156129   5.983   5.176   3.948
18629WAT     H256130   5.935   5.047   3.860
18630WAT      O56131   7.171   2.164   1.091
18630WAT     H156132   7.202   2.248   1.138
18630WAT     H256133   7.181   2.086   1.153
18631WAT      O56134   5.177   8.090   0.300
18631WAT     H156135   5.134   8.070   0.387
18631WAT     H256136   5.274   8.111   0.315
18632WAT      O56137   3.160   8.894   9.270
18632WAT     H156138   3.190   8.829   9.340
18632WAT     H256139   3.239   8.943   9.232
18633WAT      O56140   0.574   4.566   3.789
18633WAT     H156141   0.551   4.663   3.799
18633WAT     H256142   0.629   4.537   3.867
18634WAT      O56143   3.146   0.695   9.253
18634WAT     H156144   3.066   0.660   9.302
18634WAT     H256145   3.152   0.794   9.265
18635WAT      O56146   7.416   9.546   4.037
18635WAT     H156147   7.479   9.595   4.098
18635WAT     H256148   7.379   9.609   3.970
18636WAT      O56149   8.809   5.800   9.547
18636WAT     H156150   8.754   5.879   9.521
18636WAT     H256151   8.759   5.716   9.523
18637WAT      O56152   1.733   1.807   1.919
18637WAT     H156153   1.806   1.769   1.862
18637WAT     H256154   1.770   1.835   2.007
18638WAT      O56155   3.980   4.365   0.046
18638WAT     H156156   4.017   4.349   0.138
18638WAT     H256157   4.021   4.447   0.007
18639WAT      O56158   0.309   6.562   7.924
18639WAT     H156159   0.215   6.579   7.955
18639WAT     H256160   0.373   6.591   7.995
18640WAT      O56161   0.527   6.169   0.367
18640WAT     H156162   0.533   6.170   0.467
18640WAT     H256163   0.432   6.163   0.339
18641WAT      O56164   4.932   5.054   1.287
18641WAT     H156165   4.881   5.122   1.235
18641WAT     H256166   5.008   5.019   1.232
18642WAT      O56167   2.765   3.443   5.532
18642WAT     H156168   2.769   3.344   5.521
18642WAT     H256169   2.802   3.487   5.450
18643WAT      O56170   6.508   6.750   8.103
18643WAT     H156171   6.606   6.740   8.084
18643WAT     H256172   6.490   6.721   8.197
18644WAT      O56173   0.260   3.305   4.549
18644WAT     H156174   0.325   3.246   4.599
18644WAT     H256175   0.178   3.318   4.604
18645WAT      O56176   0.031   5.415   9.746
18645WAT     H156177  -0.034   5.339   9.743
18645WAT     H256178   0.032   5.462   9.657
18646WAT      O56179   4.913   2.572   0.722
18646WAT     H156180   4.990   2.632   0.745
18646WAT     H256181   4.871   2.602   0.636
18647WAT      O56182   2.749   7.144   4.136
18647WAT     H156183   2.701   7.218   4.089
18647WAT     H256184   2.801   7.090   4.070
18648WAT      O56185   0.722   7.874   8.988
18648WAT     H156186   0.719   7.778   8.959
18648WAT     H256187   0.654   7.926   8.936
18649WAT      O56188   9.742   8.107   3.338
18649WAT     H156189   9.816   8.158   3.382
18649WAT     H256190   9.708   8.158   3.259
18650WAT      O56191   7.008   1.562   9.181
18650WAT     H156192   6.971   1.481   9.226
18650WAT     H256193   7.044   1.537   9.091
18651WAT      O56194   3.565   2.800   2.861
18651WAT     H156195   3.503   2.726   2.888
18651WAT     H256196   3.590   2.789   2.765
18652WAT      O56197   0.664   1.266   2.132
18652WAT     H156198   0.717   1.335   2.181
18652WAT     H256199   0.708   1.177   2.143
18653WAT      O56200   4.990   1.507   3.748
18653WAT     H156201   4.931   1.469   3.677
18653WAT     H256202   5.016   1.435   3.811
18654WAT      O56203   1.641   2.693   8.362
18654WAT     H156204   1.565   2.731   8.309
18654WAT     H256205   1.714   2.666   8.300
18655WAT      O56206   2.768   7.963   1.850
18655WAT     H156207   2.706   7.966   1.929
18655WAT     H256208   2.719   7.996   1.769
18656WAT      O56209   4.856   9.304   2.405
18656WAT     H156210   4.897   9.364   2.474
18656WAT     H256211   4.765   9.338   2.381
18657WAT      O56212   8.750   1.949   6.559
18657WAT     H156213   8.782   1.855   6.563
18657WAT     H256214   8.733   1.975   6.464
18658WAT      O56215   8.020   3.555   5.537
18658WAT     H156216   8.072   3.470   5.547
18658WAT     H256217   7.925   3.533   5.514
18659WAT      O56218   9.478   0.270   2.366
18659WAT     H156219   9.523   0.224   2.290
18659WAT     H256220   9.523   0.358   2.383
18660WAT      O56221   8.928   7.046   4.332
18660WAT     H156222   8.856   7.109   4.359
18660WAT     H256223   8.889   6.953   4.324
18661WAT      O56224   1.779   7.427   7.597
18661WAT     H156225   1.868   7.383   7.591
18661WAT     H256226   1.792   7.525   7.615
18662WAT      O56227   6.594   6.732   1.977
18662WAT     H156228   6.601   6.692   1.885
18662WAT     H256229   6.498   6.739   2.003
18663WAT      O56230   7.381   6.448   6.228
18663WAT     H156231   7.342   6.357   6.211
18663WAT     H256232   7.322   6.517   6.186
18664WAT      O56233   3.816   4.163   6.436
18664WAT     H156234   3.861   4.149   6.524
18664WAT     H256235   3.804   4.074   6.391
18665WAT      O56236   6.215   6.658   9.730
18665WAT     H156237   6.226   6.724   9.804
18665WAT     H256238   6.300   6.606   9.718
18666WAT      O56239   7.054   4.138   1.257
18666WAT     H156240   7.099   4.227   1.258
18666WAT     H256241   7.037   4.109   1.352
18667WAT      O56242   2.595   7.987   2.110
18667WAT     H156243   2.555   8.048   2.041
18667WAT     H256244   2.594   7.893   2.075
18668WAT      O56245   4.403   2.379   1.496
18668WAT     H156246   4.384   2.386   1.398
18668WAT     H256247   4.415   2.284   1.521
18669WAT      O56248   2.249   1.761   2.113
18669WAT     H156249   2.295   1.711   2.187
18669WAT     H256250   2.152   1.738   2.112
18670WAT      O56251   4.130   7.296   4.654
18670WAT     H156252   4.081   7.236   4.718
18670WAT     H256253   4.162   7.377   4.702
18671WAT      O56254   2.597   9.085   3.620
18671WAT     H156255   2.583   8.989   3.647
18671WAT     H256256   2.672   9.124   3.673
18672WAT      O56257   5.553   4.495   0.732
18672WAT     H156258   5.643   4.460   0.709
18672WAT     H256259   5.499   4.423   0.774
18673WAT      O56260   4.149   4.972   5.858
18673WAT     H156261   4.154   5.059   5.809
18673WAT     H256262   4.054   4.950   5.876
18674WAT      O56263   6.996   2.111   2.045
18674WAT     H156264   7.014   2.130   1.948
18674WAT     H256265   6.946   2.188   2.085
18675WAT      O56266   1.143   7.537   4.397
18675WAT     H156267   1.054   7.578   4.378
18675WAT     H256268   1.176   7.570   4.486
18676WAT      O56269   6.975   2.752   5.979
18676WAT     H156270   6.894   2.751   5.921
18676WAT     H256271   7.057   2.763   5.922
18677WAT      O56272   8.782   6.982   7.593
18677WAT     H156273   8.817   7.023   7.509
18677WAT     H256274   8.815   7.033   7.672
18678WAT      O56275   0.957   6.264   6.359
18678WAT     H156276   0.884   6.332   6.350
18678WAT     H256277   0.931   6.180   6.311
18679WAT      O56278   4.076   6.787   8.301
18679WAT     H156279   4.097   6.708   8.244
18679WAT     H256280   4.017   6.850   8.250
18680WAT      O56281   3.791   6.112   7.803
18680WAT     H156282   3.885   6.146   7.800
18680WAT     H256283   3.778   6.057   7.886
18681WAT      O56284   2.768   9.717   1.126
18681WAT     H156285   2.809   9.672   1.046
18681WAT     H256286   2.670   9.731   1.109
18682WAT      O56287   2.730   4.737   7.595
18682WAT     H156288   2.730   4.688   7.508
18682WAT     H256289   2.722   4.670   7.670
18683WAT      O56290   8.405   6.861   6.781
18683WAT     H156291   8.313   6.843   6.746
18683WAT     H256292   8.417   6.960   6.793
18684WAT      O56293   9.723   8.159   8.739
18684WAT     H156294   9.662   8.236   8.756
18684WAT     H256295   9.816   8.181   8.770
18685WAT      O56296   2.867   0.978   3.688
18685WAT     H156297   2.928   0.953   3.763
18685WAT     H256298   2.883   1.073   3.662
18686WAT      O56299   4.242   3.235   9.558
18686WAT     H156300   4.172   3.243   9.630
18686WAT     H256301   4.200   3.253   9.469
18687WAT      O56302   5.696   2.975   2.489
18687WAT     H156303   5.651   3.058   2.457
18687WAT     H256304   5.644   2.935   2.563
18688WAT      O56305   9.647   2.483   4.189
18688WAT     H156306   9.699   2.509   4.108
18688WAT     H256307   9.685   2.529   4.270
18689WAT      O56308   6.938   8.941   8.692
18689WAT     H156309   6.884   8.979   8.768
18689WAT     H256310   6.966   9.015   8.631
18690WAT      O56311   1.122   0.003   2.795
18690WAT     H156312   1.165   0.030   2.880
18690WAT     H256313   1.159   0.058   2.720
18691WAT      O56314   4.848   9.251   7.740
18691WAT     H156315   4.764   9.210   7.775
18691WAT     H256316   4.913   9.264   7.815
18692WAT      O56317   6.242   6.412   0.159
18692WAT     H156318   6.214   6.367   0.244
18692WAT     H256319   6.307   6.354   0.110
18693WAT      O56320   7.796   3.908   3.901
18693WAT     H156321   7.813   3.927   3.998
18693WAT     H256322   7.883   3.901   3.853
18694WAT      O56323   0.615   0.566   3.357
18694WAT     H156324   0.645   0.577   3.262
18694WAT     H256325   0.541   0.631   3.376
18695WAT      O56326   1.558   1.788   8.118
18695WAT     H156327   1.533   1.740   8.034
18695WAT     H256328   1.633   1.851   8.099
18696WAT      O56329   8.961   4.394   2.650
18696WAT     H156330   8.952   4.298   2.676
18696WAT     H256331   8.949   4.404   2.551
18697WAT      O56332   6.175   9.418   0.173
18697WAT     H156333   6.263   9.434   0.217
18697WAT     H256334   6.108   9.390   0.242
18698WAT      O56335   5.826   2.632   8.389
18698WAT     H156336   5.760   2.706   8.377
18698WAT     H256337   5.840   2.615   8.487
18699WAT      O56338   0.052   2.429   1.723
18699WAT     H156339   0.100   2.351   1.763
18699WAT     H256340   0.044   2.501   1.791
18700WAT      O56341   8.388   8.085   7.766
18700WAT     H156342   8.434   8.027   7.833
18700WAT     H256343   8.335   8.028   7.703
18701WAT      O56344   8.795   7.419   5.034
18701WAT     H156345   8.696   7.417   5.043
18701WAT     H256346   8.836   7.432   5.125
18702WAT      O56347   2.310   0.049   3.649
18702WAT     H156348   2.264  -0.022   3.702
18702WAT     H256349   2.303   0.136   3.697
18703WAT      O56350   9.175   3.234   7.531
18703WAT     H156351   9.095   3.176   7.546
18703WAT     H256352   9.247   3.209   7.596
18704WAT      O56353   9.351   1.065   4.412
18704WAT     H156354   9.369   1.163   4.400
18704WAT     H256355   9.264   1.053   4.460
18705WAT      O56356   2.940   5.226   5.423
18705WAT     H156357   2.986   5.296   5.368
18705WAT     H256358   2.867   5.184   5.370
18706WAT      O56359   7.612   8.027   1.561
18706WAT     H156360   7.555   7.961   1.512
18706WAT     H256361   7.679   7.977   1.617
18707WAT      O56362   9.851   7.626   4.609
18707WAT     H156363   9.793   7.653   4.686
18707WAT     H256364   9.902   7.544   4.634
18708WAT      O56365   3.058   8.289   4.645
18708WAT     H156366   3.030   8.195   4.625
18708WAT     H256367   3.150   8.306   4.607
18709WAT      O56368   6.213   1.405   8.645
18709WAT     H156369   6.287   1.398   8.578
18709WAT     H256370   6.245   1.373   8.734
18710WAT      O56371   1.632   1.674   9.560
18710WAT     H156372   1.608   1.599   9.621
18710WAT     H256373   1.715   1.650   9.509
18711WAT      O56374   4.153   8.805   6.654
18711WAT     H156375   4.224   8.864   6.615
18711WAT     H256376   4.180   8.777   6.746
18712WAT      O56377   5.963   7.878   4.143
18712WAT     H156378   6.005   7.967   4.157
18712WAT     H256379   5.865   7.889   4.128
18713WAT      O56380   3.475   6.078   0.201
18713WAT     H156381   3.504   6.172   0.221
18713WAT     H256382   3.430   6.040   0.282
18714WAT      O56383   8.667   0.835   5.971
18714WAT     H156384   8.684   0.826   5.873
18714WAT     H256385   8.701   0.754   6.018
18715WAT      O56386   3.455   0.033   7.219
18715WAT     H156387   3.411   0.111   7.173
18715WAT     H256388   3.409  -0.051   7.194
18716WAT      O56389   1.788   4.288   2.357
18716WAT     H156390   1.759   4.273   2.451
18716WAT     H256391   1.886   4.271   2.349
18717WAT      O56392   4.328   9.112   6.798
18717WAT     H156393   4.263   9.082   6.867
18717WAT     H256394   4.361   9.033   6.746
18718WAT      O56395   1.967   7.622   0.393
18718WAT     H156396   2.003   7.552   0.455
18718WAT     H256397   1.867   7.617   0.392
18719WAT      O56398   1.593   3.124   1.670
18719WAT     H156399   1.575   3.034   1.631
18719WAT     H256400   1.675   3.163   1.627
18720WAT      O56401   4.042   0.437   4.602
18720WAT     H156402   4.036   0.353   4.548
18720WAT     H256403   4.109   0.425   4.675
18721WAT      O56404   5.378   0.507   9.065
18721WAT     H156405   5.369   0.594   9.016
18721WAT     H256406   5.448   0.515   9.135
18722WAT      O56407   9.872   1.834   2.344
18722WAT     H156408   9.953   1.865   2.393
18722WAT     H256409   9.798   1.818   2.409
18723WAT      O56410   3.587   7.828   1.154
18723WAT     H156411   3.611   7.831   1.057
18723WAT     H256412   3.615   7.740   1.193
18724WAT      O56413   7.800   3.853   8.317
18724WAT     H156414   7.715   3.801   8.328
18724WAT     H256415   7.808   3.885   8.223
18725WAT      O56416   0.602   7.455   6.135
18725WAT     H156417   0.650   7.375   6.099
18725WAT     H256418   0.658   7.537   6.124
18726WAT      O56419   7.782   9.431   6.986
18726WAT     H156420   7.773   9.338   7.021
18726WAT     H256421   7.699   9.456   6.935
18727WAT      O56422   8.429   2.048   4.214
18727WAT     H156423   8.434   1.964   4.268
18727WAT     H256424   8.348   2.045   4.156
18728WAT      O56425   2.801   6.072   2.113
18728WAT     H156426   2.714   6.104   2.151
18728WAT     H256427   2.844   6.010   2.179
18729WAT      O56428   1.529   9.624   9.482
18729WAT     H156429   1.594   9.615   9.557
18729WAT     H256430   1.443   9.580   9.506
18730WAT      O56431   5.398   2.699   0.557
18730WAT     H156432   5.335   2.668   0.486
18730WAT     H256433   5.358   2.682   0.647
18731WAT      O56434   6.998   3.852   5.188
18731WAT     H156435   7.047   3.792   5.252
18731WAT     H256436   7.042   3.849   5.099
18732WAT      O56437   6.831   7.785   0.751
18732WAT     H156438   6.781   7.712   0.798
18732WAT     H256439   6.796   7.874   0.781
18733WAT      O56440   0.116   4.070   9.113
18733WAT     H156441   0.152   4.162   9.125
18733WAT     H256442   0.190   4.004   9.124
18734WAT      O56443   6.738   7.599   6.587
18734WAT     H156444   6.652   7.645   6.564
18734WAT     H256445   6.814   7.664   6.580
18735WAT      O56446   6.688   5.582   2.921
18735WAT     H156447   6.621   5.561   2.851
18735WAT     H256448   6.646   5.642   2.990
18736WAT      O56449   2.294   7.849   4.611
18736WAT     H156450   2.210   7.794   4.606
18736WAT     H256451   2.349   7.832   4.529
18737WAT      O56452   0.179   8.080   5.776
18737WAT     H156453   0.214   8.151   5.838
18737WAT     H256454   0.179   8.115   5.683
18738WAT      O56455   6.219   3.061   9.718
18738WAT     H156456   6.198   3.121   9.641
18738WAT     H256457   6.316   3.038   9.717
18739WAT      O56458   2.863   5.811   6.347
18739WAT     H156459   2.962   5.802   6.338
18739WAT     H256460   2.834   5.780   6.438
18740WAT      O56461   0.734   1.351   3.668
18740WAT     H156462   0.635   1.362   3.673
18740WAT     H256463   0.775   1.372   3.757
18741WAT      O56464   3.269   4.544   1.640
18741WAT     H156465   3.261   4.454   1.682
18741WAT     H256466   3.213   4.549   1.558
18742WAT      O56467   2.905   1.479   0.592
18742WAT     H156468   2.996   1.467   0.552
18742WAT     H256469   2.897   1.425   0.676
18743WAT      O56470   9.022   4.517   5.813
18743WAT     H156471   9.007   4.439   5.873
18743WAT     H256472   8.973   4.597   5.849
18744WAT      O56473   6.341   9.211   3.471
18744WAT     H156474   6.267   9.217   3.538
18744WAT     H256475   6.372   9.302   3.447
18745WAT      O56476   6.214   7.126   7.341
18745WAT     H156477   6.127   7.078   7.350
18745WAT     H256478   6.272   7.078   7.276
18746WAT      O56479   7.949   7.144   7.220
18746WAT     H156480   7.916   7.144   7.126
18746WAT     H256481   8.026   7.081   7.229
18747WAT      O56482   3.761   0.000   1.958
18747WAT     H156483   3.661  -0.009   1.959
18747WAT     H256484   3.786   0.095   1.980
18748WAT      O56485   4.258   8.756   7.630
18748WAT     H156486   4.295   8.673   7.674
18748WAT     H256487   4.219   8.732   7.541
18749WAT      O56488   6.122   3.212   7.588
18749WAT     H156489   6.157   3.264   7.666
18749WAT     H256490   6.128   3.269   7.505
18750WAT      O56491   8.415   3.272   7.951
18750WAT     H156492   8.337   3.209   7.944
18750WAT     H256493   8.482   3.235   8.015
18751WAT      O56494   1.286   2.995   1.677
18751WAT     H156495   1.276   3.077   1.621
18751WAT     H256496   1.379   2.959   1.666
18752WAT      O56497   0.713   6.819   5.797
18752WAT     H156498   0.794   6.766   5.822
18752WAT     H256499   0.648   6.818   5.872
18753WAT      O56500   2.706   8.535   0.217
18753WAT     H156501   2.744   8.597   0.285
18753WAT     H256502   2.702   8.580   0.128
18754WAT      O56503   1.125   1.070   4.651
18754WAT     H156504   1.164   1.027   4.570
18754WAT     H256505   1.193   1.072   4.724
18755WAT      O56506   0.432   8.749   3.984
18755WAT     H156507   0.488   8.726   4.063
18755WAT     H256508   0.436   8.674   3.917
18756WAT      O56509   5.981   2.504   7.107
18756WAT     H156510   6.072   2.507   7.148
18756WAT     H256511   5.967   2.416   7.061
18757WAT      O56512   7.073   8.828   2.580
18757WAT     H156513   7.038   8.781   2.661
18757WAT     H256514   7.170   8.850   2.594
18758WAT      O56515   9.357   4.920   5.865
18758WAT     H156516   9.390   5.014   5.856
18758WAT     H256517   9.291   4.915   5.940
18759WAT      O56518   5.194   7.785   7.024
18759WAT     H156519   5.197   7.686   7.011
18759WAT     H256520   5.158   7.806   7.115
18760WAT      O56521   7.769   5.012   1.847
18760WAT     H156522   7.777   4.951   1.768
18760WAT     H256523   7.793   5.106   1.819
18761WAT      O56524   3.955   3.778   4.422
18761WAT     H156525   4.006   3.857   4.388
18761WAT     H256526   3.995   3.747   4.508
18762WAT      O56527   1.864   1.339   4.350
18762WAT     H156528   1.768   1.321   4.326
18762WAT     H256529   1.900   1.411   4.290
18763WAT      O56530   6.281   3.517   3.752
18763WAT     H156531   6.195   3.514   3.702
18763WAT     H256532   6.349   3.569   3.700
18764WAT      O56533   5.283   5.294   7.546
18764WAT     H156534   5.254   5.204   7.579
18764WAT     H256535   5.359   5.285   7.482
18765WAT      O56536   3.955   7.604   6.115
18765WAT     H156537   3.858   7.626   6.106
18765WAT     H256538   3.986   7.625   6.208
18766WAT      O56539   0.507   7.914   0.257
18766WAT     H156540   0.494   7.816   0.246
18766WAT     H256541   0.595   7.941   0.217
18767WAT      O56542   1.954   7.600   8.963
18767WAT     H156543   1.945   7.611   9.062
18767WAT     H256544   1.994   7.511   8.943
18768WAT      O56545   4.199   3.328   1.222
18768WAT     H156546   4.247   3.267   1.284
18768WAT     H256547   4.265   3.382   1.170
18769WAT      O56548   7.106   3.421   5.387
18769WAT     H156549   7.152   3.356   5.325
18769WAT     H256550   7.007   3.414   5.376
18770WAT      O56551   1.211   0.589   6.219
18770WAT     H156552   1.124   0.635   6.239
18770WAT     H256553   1.286   0.654   6.224
18771WAT      O56554   7.822   9.761   3.651
18771WAT     H156555   7.818   9.693   3.577
18771WAT     H256556   7.896   9.825   3.632
18772WAT      O56557   3.710   7.392   3.404
18772WAT     H156558   3.651   7.343   3.468
18772WAT     H256559   3.655   7.426   3.328
18773WAT      O56560   1.176   4.621   4.571
18773WAT     H156561   1.203   4.573   4.655
18773WAT     H256562   1.198   4.565   4.492
18774WAT      O56563   5.448   4.448   5.638
18774WAT     H156564   5.545   4.473   5.641
18774WAT     H256565   5.393   4.523   5.676
18775WAT      O56566   3.515   3.932   6.674
18775WAT     H156567   3.436   3.992   6.687
18775WAT     H256568   3.599   3.986   6.674
18776WAT      O56569   7.772   3.551   1.560
18776WAT     H156570   7.845   3.618   1.551
18776WAT     H256571   7.809   3.468   1.602
18777WAT      O56572   8.606   4.382   1.652
18777WAT     H156573   8.680   4.329   1.610
18777WAT     H256574   8.644   4.466   1.691
18778WAT      O56575   4.964   7.664   0.895
18778WAT     H156576   4.924   7.602   0.964
18778WAT     H256577   4.912   7.655   0.810
18779WAT      O56578   2.198   0.486   1.188
18779WAT     H156579   2.116   0.534   1.218
18779WAT     H256580   2.260   0.474   1.266
18780WAT      O56581   4.354   6.867   6.451
18780WAT     H156582   4.446   6.832   6.467
18780WAT     H256583   4.359   6.951   6.397
18781WAT      O56584   8.337   8.768   0.327
18781WAT     H156585   8.316   8.689   0.386
18781WAT     H256586   8.422   8.751   0.278
18782WAT      O56587   7.320   2.977   8.919
18782WAT     H156588   7.397   2.935   8.967
18782WAT     H256589   7.234   2.943   8.957
18783WAT      O56590   1.990   4.275   6.776
18783WAT     H156591   2.062   4.301   6.711
18783WAT     H256592   2.024   4.288   6.869
18784WAT      O56593   0.061   1.570   4.228
18784WAT     H156594   0.054   1.494   4.164
18784WAT     H256595   0.088   1.653   4.179
18785WAT      O56596   3.513   7.289   1.099
18785WAT     H156597   3.511   7.205   1.154
18785WAT     H256598   3.451   7.357   1.138
18786WAT      O56599   4.638   5.653   8.796
18786WAT     H156600   4.735   5.632   8.812
18786WAT     H256601   4.583   5.572   8.813
18787WAT      O56602   1.271   9.329   5.096
18787WAT     H156603   1.339   9.278   5.043
18787WAT     H256604   1.247   9.413   5.047
18788WAT      O56605   8.220   8.073   1.873
18788WAT     H156606   8.236   8.144   1.804
18788WAT     H256607   8.192   8.117   1.959
18789WAT      O56608   8.023   7.159   3.970
18789WAT     H156609   8.002   7.073   3.923
18789WAT     H256610   7.951   7.180   4.035
18790WAT      O56611   0.913   5.484   8.427
18790WAT     H156612   0.926   5.460   8.523
18790WAT     H256613   0.843   5.555   8.420
18791WAT      O56614   4.812   7.584   5.405
18791WAT     H156615   4.794   7.614   5.311
18791WAT     H256616   4.894   7.630   5.439
18792WAT      O56617   2.656   1.699   8.080
18792WAT     H156618   2.729   1.736   8.138
18792WAT     H256619   2.584   1.661   8.138
18793WAT      O56620   0.386   9.018   4.643
18793WAT     H156621   0.395   9.111   4.608
18793WAT     H256622   0.435   9.011   4.730
18794WAT      O56623   5.715   4.526   6.770
18794WAT     H156624   5.772   4.459   6.724
18794WAT     H256625   5.666   4.581   6.702
18795WAT      O56626   2.905   2.251   9.687
18795WAT     H156627   2.811   2.285   9.679
18795WAT     H256628   2.969   2.322   9.659
18796WAT      O56629   0.670   5.635   8.344
18796WAT     H156630   0.646   5.578   8.265
18796WAT     H256631   0.598   5.628   8.413
18797WAT      O56632   4.018   0.960   0.432
18797WAT     H156633   4.061   0.998   0.514
18797WAT     H256634   4.079   0.892   0.390
18798WAT      O56635   6.605   1.980   1.309
18798WAT     H156636   6.581   1.999   1.404
18798WAT     H256637   6.536   2.019   1.249
18799WAT      O56638   4.343   8.103   5.610
18799WAT     H156639   4.347   8.086   5.511
18799WAT     H256640   4.412   8.171   5.635
18800WAT      O56641   9.431   1.238   4.141
18800WAT     H156642   9.345   1.266   4.184
18800WAT     H256643   9.484   1.319   4.117
18801WAT      O56644   5.684   1.195   2.433
18801WAT     H156645   5.754   1.154   2.373
18801WAT     H256646   5.723   1.275   2.479
18802WAT      O56647   6.816   1.532   5.755
18802WAT     H156648   6.801   1.512   5.658
18802WAT     H256649   6.783   1.624   5.776
18803WAT      O56650   9.215   4.024   5.267
18803WAT     H156651   9.217   3.949   5.334
18803WAT     H256652   9.272   4.000   5.188
18804WAT      O56653   9.869   0.022   0.060
18804WAT     H156654   9.944   0.046   0.121
18804WAT     H256655   9.864  -0.077   0.049
18805WAT      O56656   8.660   1.054   5.176
18805WAT     H156657   8.568   1.029   5.144
18805WAT     H256658   8.722   0.977   5.161
18806WAT      O56659   6.563   5.134   7.186
18806WAT     H156660   6.560   5.170   7.279
18806WAT     H256661   6.658   5.111   7.162
18807WAT      O56662   6.992   2.599   4.159
18807WAT     H156663   7.031   2.616   4.250
18807WAT     H256664   7.018   2.672   4.097
18808WAT      O56665   0.178   6.161   7.875
18808WAT     H156666   0.258   6.215   7.848
18808WAT     H256667   0.158   6.094   7.803
18809WAT      O56668   1.739   5.104   6.493
18809WAT     H156669   1.684   5.129   6.413
18809WAT     H256670   1.836   5.105   6.468
18810WAT      O56671   6.857   1.475   1.287
18810WAT     H156672   6.776   1.499   1.233
18810WAT     H256673   6.935   1.463   1.226
18811WAT      O56674   6.492   2.111   0.190
18811WAT     H156675   6.576   2.118   0.245
18811WAT     H256676   6.414   2.137   0.246
18812WAT      O56677   0.115   2.906   2.456
18812WAT     H156678   0.138   2.909   2.553
18812WAT     H256679   0.022   2.870   2.445
18813WAT      O56680   4.444   0.161   9.059
18813WAT     H156681   4.402   0.234   9.005
18813WAT     H256682   4.410   0.072   9.028
18814WAT      O56683   1.293   5.629   8.832
18814WAT     H156684   1.250   5.558   8.889
18814WAT     H256685   1.383   5.596   8.801
18815WAT      O56686   2.602   7.004   4.550
18815WAT     H156687   2.575   7.082   4.608
18815WAT     H256688   2.675   7.033   4.488
18816WAT      O56689   5.290   3.887   1.010
18816WAT     H156690   5.217   3.920   1.071
18816WAT     H256691   5.265   3.797   0.974
18817WAT      O56692   2.458   0.775   6.146
18817WAT     H156693   2.409   0.826   6.217
18817WAT     H256694   2.420   0.798   6.057
18818WAT      O56695   5.212   6.827   5.182
18818WAT     H156696   5.171   6.885   5.111
18818WAT     H256697   5.161   6.836   5.267
18819WAT      O56698   3.492   8.963   2.481
18819WAT     H156699   3.527   8.916   2.561
18819WAT     H256700   3.477   9.060   2.503
18820WAT      O56701   1.341   2.122   3.347
18820WAT     H156702   1.381   2.162   3.265
18820WAT     H256703   1.254   2.167   3.367
18821WAT      O56704   0.415   3.683   6.789
18821WAT     H156705   0.370   3.765   6.824
18821WAT     H256706   0.395   3.606   6.850
18822WAT      O56707   9.399   8.747   7.035
18822WAT     H156708   9.461   8.719   7.108
18822WAT     H256709   9.426   8.704   6.949
18823WAT      O56710   6.938   2.179   1.648
18823WAT     H156711   6.888   2.232   1.716
18823WAT     H256712   6.959   2.236   1.569
18824WAT      O56713   8.906   2.233   5.747
18824WAT     H156714   8.920   2.178   5.829
18824WAT     H256715   8.928   2.328   5.766
18825WAT      O56716   5.857   2.358   7.864
18825WAT     H156717   5.914   2.315   7.934
18825WAT     H256718   5.817   2.442   7.901
18826WAT      O56719   2.315   5.366   7.523
18826WAT     H156720   2.250   5.418   7.578
18826WAT     H256721   2.373   5.310   7.584
18827WAT      O56722   7.285   2.219   7.085
18827WAT     H156723   7.190   2.193   7.101
18827WAT     H256724   7.338   2.206   7.169
18828WAT      O56725   6.298   3.589   5.364
18828WAT     H156726   6.210   3.570   5.322
18828WAT     H256727   6.340   3.669   5.320
18829WAT      O56728   2.036   1.986   7.809
18829WAT     H156729   1.951   1.945   7.777
18829WAT     H256730   2.108   1.916   7.811
18830WAT      O56731   2.582   9.473   7.315
18830WAT     H156732   2.591   9.570   7.291
18830WAT     H256733   2.489   9.441   7.293
18831WAT      O56734   7.053   2.885   1.054
18831WAT     H156735   6.996   2.806   1.080
18831WAT     H256736   7.032   2.911   0.960
18832WAT      O56737   3.166   9.659   1.702
18832WAT     H156738   3.071   9.632   1.681
18832WAT     H256739   3.174   9.758   1.699
18833WAT      O56740   0.858   7.895   8.126
18833WAT     H156741   0.769   7.882   8.081
18833WAT     H256742   0.846   7.889   8.225
18834WAT      O56743   7.093   4.587   8.605
18834WAT     H156744   7.173   4.581   8.546
18834WAT     H256745   7.106   4.659   8.672
18835WAT      O56746   9.650   0.420   5.724
18835WAT     H156747   9.660   0.322   5.710
18835WAT     H256748   9.573   0.438   5.785
18836WAT      O56749   8.295   9.667   0.161
18836WAT     H156750   8.318   9.581   0.116
18836WAT     H256751   8.363   9.686   0.232
18837WAT      O56752   6.495   0.706   4.650
18837WAT     H156753   6.557   0.756   4.589
18837WAT     H256754   6.452   0.631   4.600
18838WAT      O56755   5.623   8.987   9.527
18838WAT     H156756   5.656   8.918   9.591
18838WAT     H256757   5.578   9.060   9.579
18839WAT      O56758   6.823   3.231   1.772
18839WAT     H156759   6.802   3.133   1.773
18839WAT     H256760   6.891   3.252   1.842
18840WAT      O56761   1.066   4.109   1.474
18840WAT     H156762   1.017   4.084   1.391
18840WAT     H256763   1.159   4.073   1.469
18841WAT      O56764   6.747   6.461   6.119
18841WAT     H156765   6.734   6.474   6.217
18841WAT     H256766   6.657   6.454   6.075
18842WAT      O56767   4.530   6.693   7.430
18842WAT     H156768   4.540   6.624   7.501
18842WAT     H256769   4.476   6.770   7.466
18843WAT      O56770   2.664   3.316   8.517
18843WAT     H156771   2.689   3.291   8.424
18843WAT     H256772   2.667   3.415   8.527
18844WAT      O56773   5.723   4.830   2.664
18844WAT     H156774   5.735   4.801   2.758
18844WAT     H256775   5.709   4.929   2.661
18845WAT      O56776   6.487   8.440   1.729
18845WAT     H156777   6.539   8.466   1.810
18845WAT     H256778   6.411   8.504   1.717
18846WAT      O56779   1.345   0.936   5.138
18846WAT     H156780   1.294   0.866   5.189
18846WAT     H256781   1.314   1.027   5.166
18847WAT      O56782   7.358   2.994   5.543
18847WAT     H156783   7.361   3.054   5.463
18847WAT     H256784   7.274   2.941   5.542
18848WAT      O56785   2.670   1.663   2.483
18848WAT     H156786   2.610   1.656   2.403
18848WAT     H256787   2.629   1.725   2.550
18849WAT      O56788   3.936   1.760   1.308
18849WAT     H156789   3.930   1.827   1.234
18849WAT     H256790   3.918   1.668   1.271
18850WAT      O56791   9.046   7.430   0.067
18850WAT     H156792   8.955   7.469   0.055
18850WAT     H256793   9.091   7.422  -0.022
18851WAT      O56794   4.864   4.611   3.207
18851WAT     H156795   4.854   4.572   3.298
18851WAT     H256796   4.809   4.694   3.200
18852WAT      O56797   6.991   8.745   3.045
18852WAT     H156798   6.925   8.818   3.031
18852WAT     H256799   7.024   8.711   2.957
18853WAT      O56800   4.095   6.557   7.533
18853WAT     H156801   4.154   6.578   7.611
18853WAT     H256802   4.091   6.457   7.520
18854WAT      O56803   9.586   5.606   1.561
18854WAT     H156804   9.680   5.615   1.529
18854WAT     H256805   9.573   5.516   1.604
18855WAT      O56806   6.449   7.916   5.850
18855WAT     H156807   6.437   8.014   5.829
18855WAT     H256808   6.416   7.861   5.773
18856WAT      O56809   6.007   7.312   6.407
18856WAT     H156810   6.055   7.281   6.489
18856WAT     H256811   6.049   7.271   6.326
18857WAT      O56812   9.817   0.910   2.816
18857WAT     H156813   9.768   0.850   2.753
18857WAT     H256814   9.757   0.984   2.847
18858WAT      O56815   3.442   2.843   1.590
18858WAT     H156816   3.421   2.937   1.618
18858WAT     H256817   3.371   2.782   1.624
18859WAT      O56818   1.419   6.677   9.091
18859WAT     H156819   1.459   6.629   9.012
18859WAT     H256820   1.463   6.643   9.175
18860WAT      O56821   8.693   7.285   6.733
18860WAT     H156822   8.732   7.334   6.811
18860WAT     H256823   8.692   7.345   6.653
18861WAT      O56824   6.961   6.017   1.588
18861WAT     H156825   6.999   6.009   1.496
18861WAT     H256826   6.984   5.936   1.641
18862WAT      O56827   9.601   7.495   1.534
18862WAT     H156828   9.523   7.466   1.477
18862WAT     H256829   9.685   7.455   1.498
18863WAT      O56830   8.747   9.317   2.236
18863WAT     H156831   8.832   9.327   2.288
18863WAT     H256832   8.734   9.399   2.179
18864WAT      O56833   8.035   8.071   4.767
18864WAT     H156834   7.939   8.047   4.782
18864WAT     H256835   8.054   8.073   4.669
18865WAT      O56836   8.511   3.630   1.321
18865WAT     H156837   8.598   3.663   1.284
18865WAT     H256838   8.528   3.561   1.391
18866WAT      O56839   2.299   7.929   6.546
18866WAT     H156840   2.203   7.957   6.542
18866WAT     H256841   2.322   7.900   6.640
18867WAT      O56842   3.654   3.763   8.173
18867WAT     H156843   3.610   3.816   8.246
18867WAT     H256844   3.740   3.807   8.148
18868WAT      O56845   5.253   5.096   5.292
18868WAT     H156846   5.155   5.081   5.307
18868WAT     H256847   5.274   5.087   5.195
18869WAT      O56848   5.474   0.131   4.216
18869WAT     H156849   5.462   0.229   4.196
18869WAT     H256850   5.570   0.107   4.208
18870WAT      O56851   3.260   4.314   6.485
18870WAT     H156852   3.211   4.344   6.403
18870WAT     H256853   3.348   4.363   6.490
18871WAT      O56854   0.831   5.525   0.832
18871WAT     H156855   0.773   5.570   0.764
18871WAT     H256856   0.833   5.581   0.915
18872WAT      O56857   8.874   2.716   8.617
18872WAT     H156858   8.780   2.746   8.633
18872WAT     H256859   8.935   2.795   8.618
18873WAT      O56860   2.284   1.214   4.729
18873WAT     H156861   2.381   1.228   4.752
18873WAT     H256862   2.228   1.240   4.807
18874WAT      O56863   7.542   3.273   4.052
18874WAT     H156864   7.509   3.260   4.145
18874WAT     H256865   7.479   3.332   4.002
18875WAT      O56866   8.954   1.075   1.246
18875WAT     H156867   8.891   1.069   1.323
18875WAT     H256868   9.046   1.096   1.278
18876WAT      O56869   9.191   9.678   1.765
18876WAT     H156870   9.116   9.636   1.817
18876WAT     H256871   9.250   9.730   1.828
18877WAT      O56872   1.270   7.816   2.104
18877WAT     H156873   1.318   7.899   2.075
18877WAT     H256874   1.174   7.838   2.123
18878WAT      O56875   4.996   0.117   8.660
18878WAT     H156876   4.934   0.094   8.735
18878WAT     H256877   5.012   0.035   8.604
18879WAT      O56878   1.543   6.289   7.142
18879WAT     H156879   1.454   6.326   7.167
18879WAT     H256880   1.556   6.201   7.187
18880WAT      O56881   2.276   6.722   9.851
18880WAT     H156882   2.335   6.657   9.900
18880WAT     H256883   2.290   6.710   9.752
18881WAT      O56884   4.070   3.019   7.974
18881WAT     H156885   3.993   3.026   7.911
18881WAT     H256886   4.155   3.012   7.921
18882WAT      O56887   6.496   4.283   8.660
18882WAT     H156888   6.496   4.297   8.561
18882WAT     H256889   6.504   4.186   8.680
18883WAT      O56890   7.332   6.603   4.583
18883WAT     H156891   7.287   6.692   4.577
18883WAT     H256892   7.267   6.536   4.620
18884WAT      O56893   2.044   6.037   0.647
18884WAT     H156894   2.034   6.085   0.559
18884WAT     H256895   2.138   6.006   0.657
18885WAT      O56896   1.185   8.962   9.519
18885WAT     H156897   1.252   8.902   9.564
18885WAT     H256898   1.225   8.997   9.434
18886WAT      O56899   6.775   8.796   8.484
18886WAT     H156900   6.873   8.780   8.475
18886WAT     H256901   6.746   8.775   8.577
18887WAT      O56902   0.715   1.059   1.369
18887WAT     H156903   0.709   0.960   1.378
18887WAT     H256904   0.810   1.087   1.355
18888WAT      O56905   0.024   0.664   7.801
18888WAT     H156906  -0.021   0.678   7.713
18888WAT     H256907   0.054   0.752   7.838
18889WAT      O56908   7.906   3.956   9.414
18889WAT     H156909   7.839   4.030   9.420
18889WAT     H256910   7.859   3.870   9.394
18890WAT      O56911   8.527   7.982   4.014
18890WAT     H156912   8.459   7.923   4.059
18890WAT     H256913   8.518   7.974   3.915
18891WAT      O56914   6.155   0.355   5.042
18891WAT     H156915   6.230   0.416   5.017
18891WAT     H256916   6.114   0.317   4.959
18892WAT      O56917   0.135   7.179   3.151
18892WAT     H156918   0.055   7.127   3.181
18892WAT     H256919   0.213   7.117   3.141
18893WAT      O56920   5.923   5.711   3.530
18893WAT     H156921   5.895   5.628   3.577
18893WAT     H256922   5.862   5.786   3.554
18894WAT      O56923   3.775   7.073   6.348
18894WAT     H156924   3.765   7.167   6.379
18894WAT     H256925   3.845   7.027   6.403
18895WAT      O56926   3.605   9.406   0.431
18895WAT     H156927   3.666   9.465   0.379
18895WAT     H256928   3.549   9.352   0.367
18896WAT      O56929   9.314   5.894   2.243
18896WAT     H156930   9.242   5.830   2.218
18896WAT     H256931   9.296   5.930   2.334
18897WAT      O56932   5.369   5.491   7.976
18897WAT     H156933   5.397   5.571   7.923
18897WAT     H256934   5.281   5.458   7.942
18898WAT      O56935   6.375   5.217   1.262
18898WAT     H156936   6.451   5.282   1.259
18898WAT     H256937   6.353   5.196   1.357
18899WAT      O56938   4.288   3.609   5.863
18899WAT     H156939   4.318   3.671   5.936
18899WAT     H256940   4.367   3.579   5.810
18900WAT      O56941   3.737   8.327   2.370
18900WAT     H156942   3.834   8.348   2.365
18900WAT     H256943   3.718   8.273   2.452
18901WAT      O56944   3.276   0.855   1.727
18901WAT     H156945   3.204   0.921   1.748
18901WAT     H256946   3.305   0.866   1.632
18902WAT      O56947   5.363   4.267   1.069
18902WAT     H156948   5.366   4.234   0.975
18902WAT     H256949   5.272   4.305   1.088
18903WAT      O56950   1.844   6.896   0.181
18903WAT     H156951   1.932   6.866   0.143
18903WAT     H256952   1.773   6.830   0.158
18904WAT      O56953   6.643   3.464   7.784
18904WAT     H156954   6.584   3.456   7.865
18904WAT     H256955   6.729   3.507   7.810
18905WAT      O56956   2.657   5.189   4.937
18905WAT     H156957   2.600   5.269   4.956
18905WAT     H256958   2.737   5.190   4.998
18906WAT      O56959   8.297   8.096   0.810
18906WAT     H156960   8.259   8.008   0.781
18906WAT     H256961   8.393   8.101   0.782
18907WAT      O56962   7.558   3.617   6.865
18907WAT     H156963   7.536   3.546   6.933
18907WAT     H256964   7.595   3.697   6.912
18908WAT      O56965   6.329   7.597   3.454
18908WAT     H156966   6.271   7.524   3.417
18908WAT     H256967   6.412   7.605   3.400
18909WAT      O56968   7.083   0.436   9.446
18909WAT     H156969   7.114   0.531   9.447
18909WAT     H256970   7.130   0.386   9.374
18910WAT      O56971   3.942   7.287   8.015
18910WAT     H156972   3.924   7.291   8.113
18910WAT     H256973   3.893   7.361   7.969
18911WAT      O56974   4.226   5.870   1.336
18911WAT     H156975   4.139   5.859   1.287
18911WAT     H256976   4.208   5.882   1.434
18912WAT      O56977   4.488   0.737   3.943
18912WAT     H156978   4.572   0.730   3.996
18912WAT     H256979   4.410   0.707   3.998
18913WAT      O56980   2.141   7.540   6.081
18913WAT     H156981   2.218   7.599   6.104
18913WAT     H256982   2.056   7.591   6.088
18914WAT      O56983   4.711   7.258   8.034
18914WAT     H156984   4.760   7.320   7.973
18914WAT     H256985   4.739   7.276   8.129
18915WAT      O56986   6.278   2.152   0.351
18915WAT     H156987   6.325   2.171   0.437
18915WAT     H256988   6.210   2.224   0.334
18916WAT      O56989   2.120   7.090   9.095
18916WAT     H156990   2.197   7.062   9.038
18916WAT     H256991   2.135   7.184   9.126
18917WAT      O56992   2.967   5.780   7.963
18917WAT     H156993   3.014   5.815   8.045
18917WAT     H256994   2.915   5.698   7.987
18918WAT      O56995   2.865   7.064   0.343
18918WAT     H156996   2.925   6.984   0.339
18918WAT     H256997   2.862   7.098   0.437
18919WAT      O56998   6.831   9.282   7.410
18919WAT     H156999   6.744   9.298   7.456
18919WAT     H257000   6.830   9.191   7.368
18920WAT      O57001   4.796   6.363   3.396
18920WAT     H157002   4.796   6.447   3.342
18920WAT     H257003   4.719   6.305   3.367
18921WAT      O57004   4.896   4.950   9.162
18921WAT     H157005   4.927   5.038   9.125
18921WAT     H257006   4.796   4.946   9.159
18922WAT      O57007   2.331   6.423   4.735
18922WAT     H157008   2.247   6.460   4.777
18922WAT     H257009   2.307   6.350   4.672
18923WAT      O57010   7.062   9.733   9.425
18923WAT     H157011   6.977   9.782   9.446
18923WAT     H257012   7.101   9.767   9.340
18924WAT      O57013   0.890   3.071   5.931
18924WAT     H157014   0.802   3.037   5.897
18924WAT     H257015   0.886   3.170   5.943
18925WAT      O57016   1.324   1.525   5.192
18925WAT     H157017   1.294   1.604   5.245
18925WAT     H257018   1.416   1.543   5.155
18926WAT      O57019   3.304   3.285   1.949
18926WAT     H157020   3.245   3.237   1.885
18926WAT     H257021   3.373   3.222   1.985
18927WAT      O57022   9.728   2.335   5.587
18927WAT     H157023   9.727   2.346   5.488
18927WAT     H257024   9.819   2.306   5.616
18928WAT      O57025   6.072   0.032   1.636
18928WAT     H157026   6.110  -0.059   1.650
18928WAT     H257027   5.990   0.026   1.580
18929WAT      O57028   5.590   1.386   7.682
18929WAT     H157029   5.563   1.394   7.586
18929WAT     H257030   5.647   1.304   7.693
18930WAT      O57031   9.244   7.965   9.715
18930WAT     H157032   9.210   7.922   9.799
18930WAT     H257033   9.344   7.963   9.715
18931WAT      O57034   8.279   4.257   4.952
18931WAT     H157035   8.189   4.285   4.984
18931WAT     H257036   8.348   4.323   4.980
18932WAT      O57037   0.957   3.633   1.821
18932WAT     H157038   0.990   3.719   1.862
18932WAT     H257039   0.871   3.650   1.774
18933WAT      O57040   1.941   0.151   6.511
18933WAT     H157041   1.854   0.176   6.555
18933WAT     H257042   1.951   0.052   6.513
18934WAT      O57043   0.607   8.372   0.994
18934WAT     H157044   0.542   8.385   0.920
18934WAT     H257045   0.651   8.283   0.986
18935WAT      O57046   7.123   9.588   0.373
18935WAT     H157047   7.185   9.582   0.295
18935WAT     H257048   7.071   9.673   0.368
18936WAT      O57049   4.505   4.877   9.724
18936WAT     H157050   4.423   4.888   9.781
18936WAT     H257051   4.585   4.869   9.784
18937WAT      O57052   8.684   2.713   2.968
18937WAT     H157053   8.711   2.691   2.874
18937WAT     H257054   8.627   2.639   3.004
18938WAT      O57055   8.740   2.181   4.937
18938WAT     H157056   8.822   2.135   4.970
18938WAT     H257057   8.744   2.187   4.837
18939WAT      O57058   2.244   3.253   6.850
18939WAT     H157059   2.173   3.224   6.787
18939WAT     H257060   2.319   3.295   6.800
18940WAT      O57061   5.094   5.864   7.823
18940WAT     H157062   5.169   5.895   7.882
18940WAT     H257063   5.131   5.822   7.740
18941WAT      O57064   7.360   0.862   4.259
18941WAT     H157065   7.283   0.810   4.294
18941WAT     H257066   7.329   0.952   4.228
18942WAT      O57067   9.179   8.000   2.572
18942WAT     H157068   9.093   7.951   2.584
18942WAT     H257069   9.173   8.059   2.491
18943WAT      O57070   6.670   5.151   1.615
18943WAT     H157071   6.756   5.164   1.663
18943WAT     H257072   6.644   5.054   1.617
18944WAT      O57073   8.747   0.120   1.801
18944WAT     H157074   8.682   0.172   1.857
18944WAT     H257075   8.806   0.184   1.750
18945WAT      O57076   3.444   7.285   0.588
18945WAT     H157077   3.439   7.235   0.675
18945WAT     H257078   3.355   7.280   0.543
18946WAT      O57079   5.998   8.516   9.773
18946WAT     H157080   5.999   8.434   9.830
18946WAT     H257081   5.938   8.501   9.694
18947WAT      O57082   4.289   7.981   1.986
18947WAT     H157083   4.211   7.978   2.049
18947WAT     H257084   4.328   8.073   1.985
18948WAT      O57085   9.212   8.997   9.511
18948WAT     H157086   9.301   9.042   9.503
18948WAT     H257087   9.179   9.004   9.605
18949WAT      O57088   8.080   1.428   3.412
18949WAT     H157089   7.984   1.445   3.434
18949WAT     H257090   8.096   1.445   3.315
18950WAT      O57091   7.424   0.951   3.306
18950WAT     H157092   7.484   1.010   3.361
18950WAT     H257093   7.479   0.884   3.257
18951WAT      O57094   4.258   2.083   6.583
18951WAT     H157095   4.196   2.131   6.520
18951WAT     H257096   4.300   2.149   6.645
18952WAT      O57097   1.281   8.547   3.160
18952WAT     H157098   1.257   8.503   3.246
18952WAT     H257099   1.278   8.646   3.171
18953WAT      O57100   1.179   1.465   3.732
18953WAT     H157101   1.147   1.419   3.815
18953WAT     H257102   1.250   1.531   3.757
18954WAT      O57103   4.590   7.898   3.959
18954WAT     H157104   4.510   7.839   3.953
18954WAT     H257105   4.673   7.844   3.945
18955WAT      O57106   2.287   5.676   7.820
18955WAT     H157107   2.366   5.737   7.809
18955WAT     H257108   2.275   5.654   7.916
18956WAT      O57109   8.696   1.467   3.071
18956WAT     H157110   8.654   1.384   3.108
18956WAT     H257111   8.693   1.539   3.141
18957WAT      O57112   3.185   2.887   7.503
18957WAT     H157113   3.185   2.978   7.461
18957WAT     H257114   3.161   2.819   7.435
18958WAT      O57115   2.225   0.393   7.601
18958WAT     H157116   2.134   0.435   7.602
18958WAT     H257117   2.236   0.337   7.683
18959WAT      O57118   7.917   7.182   9.333
18959WAT     H157119   7.954   7.271   9.359
18959WAT     H257120   7.913   7.175   9.234
18960WAT      O57121   4.712   9.411   9.581
18960WAT     H157122   4.614   9.431   9.585
18960WAT     H257123   4.750   9.447   9.496
18961WAT      O57124   3.393   9.274   8.468
18961WAT     H157125   3.371   9.353   8.411
18961WAT     H257126   3.361   9.290   8.561
18962WAT      O57127   5.052   6.326   3.483
18962WAT     H157128   5.077   6.233   3.456
18962WAT     H257129   4.954   6.339   3.470
18963WAT      O57130   2.841   2.791   3.887
18963WAT     H157131   2.808   2.869   3.939
18963WAT     H257132   2.772   2.718   3.887
18964WAT      O57133   1.724   1.663   3.572
18964WAT     H157134   1.692   1.596   3.638
18964WAT     H257135   1.703   1.755   3.604
18965WAT      O57136   6.001   6.977   0.993
18965WAT     H157137   5.925   7.031   1.028
18965WAT     H257138   6.038   7.021   0.911
18966WAT      O57139   4.337   7.878   0.457
18966WAT     H157140   4.353   7.950   0.389
18966WAT     H257141   4.402   7.804   0.444
18967WAT      O57142   6.278   6.750   6.284
18967WAT     H157143   6.297   6.842   6.317
18967WAT     H257144   6.182   6.727   6.302
18968WAT      O57145   0.601   7.878   3.620
18968WAT     H157146   0.513   7.832   3.617
18968WAT     H257147   0.645   7.860   3.708
18969WAT      O57148   2.383   3.523   5.969
18969WAT     H157149   2.332   3.564   6.045
18969WAT     H257150   2.327   3.452   5.926
18970WAT      O57151   8.500   6.097   3.816
18970WAT     H157152   8.441   6.090   3.736
18970WAT     H257153   8.534   6.006   3.841
18971WAT      O57154   3.879   2.121   6.011
18971WAT     H157155   3.965   2.074   5.992
18971WAT     H257156   3.859   2.116   6.109
18972WAT      O57157   6.133   5.627   1.821
18972WAT     H157158   6.157   5.708   1.875
18972WAT     H257159   6.184   5.628   1.735
18973WAT      O57160   3.927   8.723   0.052
18973WAT     H157161   4.021   8.700   0.079
18973WAT     H257162   3.929   8.802  -0.009
18974WAT      O57163   5.297   1.168   3.613
18974WAT     H157164   5.250   1.087   3.647
18974WAT     H257165   5.372   1.191   3.675
18975WAT      O57166   0.224   0.033   6.258
18975WAT     H157167   0.136  -0.014   6.269
18975WAT     H257168   0.296  -0.035   6.245
18976WAT      O57169   0.667   8.266   5.457
18976WAT     H157170   0.648   8.243   5.361
18976WAT     H257171   0.766   8.264   5.471
18977WAT      O57172   3.990   2.708   9.876
18977WAT     H157173   3.952   2.723   9.785
18977WAT     H257174   3.943   2.631   9.919
18978WAT      O57175   9.537   7.879   2.063
18978WAT     H157176   9.498   7.968   2.041
18978WAT     H257177   9.580   7.882   2.153
18979WAT      O57178   7.766   9.294   2.396
18979WAT     H157179   7.859   9.257   2.390
18979WAT     H257180   7.732   9.312   2.304
18980WAT      O57181   4.402   0.631   8.709
18980WAT     H157182   4.340   0.630   8.787
18980WAT     H257183   4.495   0.615   8.740
18981WAT      O57184   0.061   7.086   9.358
18981WAT     H157185  -0.034   7.074   9.386
18981WAT     H257186   0.121   7.046   9.428
18982WAT      O57187   4.682   8.816   2.143
18982WAT     H157188   4.734   8.855   2.219
18982WAT     H257189   4.665   8.887   2.074
18983WAT      O57190   1.660   5.799   7.130
18983WAT     H157191   1.598   5.734   7.085
18983WAT     H257192   1.725   5.749   7.187
18984WAT      O57193   9.463   6.299   9.460
18984WAT     H157194   9.451   6.214   9.511
18984WAT     H257195   9.532   6.355   9.504
18985WAT      O57196   4.405   5.615   4.854
18985WAT     H157197   4.397   5.647   4.948
18985WAT     H257198   4.315   5.611   4.812
18986WAT      O57199   0.866   5.930   8.117
18986WAT     H157200   0.767   5.929   8.132
18986WAT     H257201   0.911   5.878   8.189
18987WAT      O57202   2.970   8.814   6.226
18987WAT     H157203   3.002   8.833   6.133
18987WAT     H257204   3.035   8.852   6.292
18988WAT      O57205   0.167   9.224   8.677
18988WAT     H157206   0.164   9.318   8.710
18988WAT     H257207   0.248   9.178   8.713
18989WAT      O57208   3.916   8.725   6.065
18989WAT     H157209   3.872   8.796   6.010
18989WAT     H257210   3.854   8.696   6.138
18990WAT      O57211   1.440   1.810   4.061
18990WAT     H157212   1.483   1.795   3.972
18990WAT     H257213   1.511   1.815   4.131
18991WAT      O57214   2.588   4.707   8.543
18991WAT     H157215   2.564   4.787   8.598
18991WAT     H257216   2.514   4.640   8.547
18992WAT      O57217   1.445   0.799   0.783
18992WAT     H157218   1.519   0.779   0.848
18992WAT     H257219   1.484   0.833   0.698
18993WAT      O57220   7.508   2.316   1.656
18993WAT     H157221   7.465   2.226   1.664
18993WAT     H257222   7.451   2.384   1.703
18994WAT      O57223   1.637   8.831   2.200
18994WAT     H157224   1.724   8.875   2.181
18994WAT     H257225   1.609   8.850   2.294
18995WAT      O57226   9.386   8.860   6.242
18995WAT     H157227   9.389   8.957   6.267
18995WAT     H257228   9.477   8.819   6.255
18996WAT      O57229   4.439   2.674   4.801
18996WAT     H157230   4.538   2.658   4.796
18996WAT     H257231   4.411   2.734   4.726
18997WAT      O57232   6.467   3.094   6.008
18997WAT     H157233   6.496   3.099   5.912
18997WAT     H257234   6.445   3.186   6.041
18998WAT      O57235   8.283   6.545   1.874
18998WAT     H157236   8.286   6.548   1.774
18998WAT     H257237   8.376   6.552   1.911
18999WAT      O57238   8.800   1.952   0.353
18999WAT     H157239   8.849   1.921   0.272
18999WAT     H257240   8.779   1.874   0.412
19000WAT      O57241   0.277   6.617   2.105
19000WAT     H157242   0.360   6.564   2.093
19000WAT     H257243   0.281   6.701   2.051
19001WAT      O57244   5.992   4.965   0.832
19001WAT     H157245   5.993   4.887   0.894
19001WAT     H257246   5.919   5.028   0.859
19002WAT      O57247   3.424   4.528   7.599
19002WAT     H157248   3.498   4.579   7.557
19002WAT     H257249   3.460   4.443   7.638
19003WAT      O57250   8.489   3.994   2.720
19003WAT     H157251   8.511   3.985   2.623
19003WAT     H257252   8.564   3.957   2.775
19004WAT      O57253   9.177   8.643   3.640
19004WAT     H157254   9.196   8.564   3.698
19004WAT     H257255   9.100   8.695   3.678
19005WAT      O57256   3.074   5.540   2.304
19005WAT     H157257   3.122   5.595   2.235
19005WAT     H257258   2.977   5.535   2.280
19006WAT      O57259   1.484   1.760   7.635
19006WAT     H157260   1.453   1.837   7.691
19006WAT     H257261   1.442   1.766   7.544
19007WAT      O57262   3.203   9.053   1.675
19007WAT     H157263   3.120   9.107   1.663
19007WAT     H257264   3.183   8.973   1.732
19008WAT      O57265   4.977   2.568   1.732
19008WAT     H157266   4.953   2.659   1.766
19008WAT     H257267   4.906   2.536   1.670
19009WAT      O57268   7.898   5.549   2.071
19009WAT     H157269   7.938   5.458   2.077
19009WAT     H257270   7.906   5.596   2.159
19010WAT      O57271   2.330   7.471   1.480
19010WAT     H157272   2.395   7.472   1.556
19010WAT     H257273   2.352   7.545   1.416
19011WAT      O57274   6.458   8.061   3.994
19011WAT     H157275   6.418   8.057   3.903
19011WAT     H257276   6.499   7.973   4.017
19012WAT      O57277   7.412   2.663   5.543
19012WAT     H157278   7.444   2.717   5.621
19012WAT     H257279   7.349   2.593   5.575
19013WAT      O57280   8.617   7.243   3.505
19013WAT     H157281   8.646   7.238   3.601
19013WAT     H257282   8.660   7.168   3.454
19014WAT      O57283   4.145   1.663   3.556
19014WAT     H157284   4.159   1.762   3.554
19014WAT     H257285   4.198   1.620   3.484
19015WAT      O57286   7.176   7.846   3.976
19015WAT     H157287   7.236   7.917   4.012
19015WAT     H257288   7.212   7.812   3.889
19016WAT      O57289   2.312   5.336   3.986
19016WAT     H157290   2.353   5.308   4.073
19016WAT     H257291   2.328   5.265   3.918
19017WAT      O57292   8.046   1.334   2.336
19017WAT     H157293   7.971   1.327   2.401
19017WAT     H257294   8.057   1.247   2.288
19018WAT      O57295   4.279   3.503   5.477
19018WAT     H157296   4.352   3.546   5.424
19018WAT     H257297   4.191   3.542   5.450
19019WAT      O57298   4.245   8.732   5.582
19019WAT     H157299   4.253   8.796   5.658
19019WAT     H257300   4.325   8.741   5.522
19020WAT      O57301   6.467   2.215   4.655
19020WAT     H157302   6.420   2.139   4.698
19020WAT     H257303   6.410   2.297   4.659
19021WAT      O57304   3.532   2.444   7.421
19021WAT     H157305   3.470   2.515   7.387
19021WAT     H257306   3.624   2.459   7.384
19022WAT      O57307   7.756   8.062   1.202
19022WAT     H157308   7.817   7.985   1.186
19022WAT     H257309   7.786   8.140   1.146
19023WAT      O57310   6.692   9.763   2.063
19023WAT     H157311   6.744   9.734   2.143
19023WAT     H257312   6.601   9.722   2.065
19024WAT      O57313   3.770   0.820   1.947
19024WAT     H157314   3.779   0.755   1.871
19024WAT     H257315   3.771   0.914   1.910
19025WAT      O57316   9.803   7.471   5.056
19025WAT     H157317   9.877   7.522   5.012
19025WAT     H257318   9.840   7.392   5.104
19026WAT      O57319   6.596   5.373   1.264
19026WAT     H157320   6.696   5.364   1.260
19026WAT     H257321   6.568   5.392   1.358
19027WAT      O57322   4.528   7.214   1.097
19027WAT     H157323   4.627   7.224   1.111
19027WAT     H257324   4.493   7.297   1.053
19028WAT      O57325   4.375   3.455   8.642
19028WAT     H157326   4.328   3.538   8.611
19028WAT     H257327   4.342   3.430   8.733
19029WAT      O57328   4.169   0.427   2.702
19029WAT     H157329   4.204   0.433   2.795
19029WAT     H257330   4.069   0.439   2.703
19030WAT      O57331   2.692   9.682   3.648
19030WAT     H157332   2.610   9.643   3.606
19030WAT     H257333   2.758   9.608   3.666
19031WAT      O57334   5.705   5.498   2.111
19031WAT     H157335   5.712   5.501   2.210
19031WAT     H257336   5.795   5.513   2.070
19032WAT      O57337   3.206   5.046   5.906
19032WAT     H157338   3.125   5.104   5.919
19032WAT     H257339   3.210   5.015   5.811
19033WAT      O57340   4.730   3.661   5.911
19033WAT     H157341   4.718   3.721   5.832
19033WAT     H257342   4.792   3.706   5.976
19034WAT      O57343   3.574   4.947   0.076
19034WAT     H157344   3.588   4.910   0.167
19034WAT     H257345   3.640   4.905   0.013
19035WAT      O57346   7.822   1.703   3.792
19035WAT     H157347   7.736   1.739   3.756
19035WAT     H257348   7.811   1.681   3.889
19036WAT      O57349   2.261   5.620   5.156
19036WAT     H157350   2.171   5.577   5.161
19036WAT     H257351   2.301   5.626   5.248
19037WAT      O57352   5.943   4.461   3.048
19037WAT     H157353   6.038   4.450   3.016
19037WAT     H257354   5.943   4.483   3.146
19038WAT      O57355   2.299   1.798   2.720
19038WAT     H157356   2.382   1.753   2.688
19038WAT     H257357   2.313   1.831   2.813
19039WAT      O57358   9.080   3.793   7.857
19039WAT     H157359   9.123   3.840   7.780
19039WAT     H257360   9.095   3.695   7.849
19040WAT      O57361   2.393   7.034   9.488
19040WAT     H157362   2.338   7.019   9.405
19040WAT     H257363   2.375   7.126   9.523
19041WAT      O57364   7.361   4.214   8.586
19041WAT     H157365   7.424   4.136   8.578
19041WAT     H257366   7.405   4.287   8.639
19042WAT      O57367   7.163   6.398   4.667
19042WAT     H157368   7.067   6.409   4.692
19042WAT     H257369   7.202   6.320   4.716
19043WAT      O57370   7.669   8.591   5.056
19043WAT     H157371   7.673   8.685   5.023
19043WAT     H257372   7.759   8.564   5.090
19044WAT      O57373   9.664   1.235   5.436
19044WAT     H157374   9.659   1.244   5.336
19044WAT     H257375   9.673   1.139   5.461
19045WAT      O57376   1.687   7.201   6.629
19045WAT     H157377   1.622   7.169   6.698
19045WAT     H257378   1.662   7.164   6.540
19046WAT      O57379   6.741   5.425   5.745
19046WAT     H157380   6.721   5.393   5.838
19046WAT     H257381   6.658   5.423   5.690
19047WAT      O57382   2.139   0.141   3.400
19047WAT     H157383   2.151   0.234   3.434
19047WAT     H257384   2.223   0.088   3.418
19048WAT      O57385   4.066   0.957   6.272
19048WAT     H157386   4.073   1.002   6.183
19048WAT     H257387   3.985   0.898   6.274
19049WAT      O57388   0.691   2.776   0.211
19049WAT     H157389   0.747   2.845   0.258
19049WAT     H257390   0.698   2.790   0.112
19050WAT      O57391   9.880   6.296   5.947
19050WAT     H157392   9.856   6.359   5.874
19050WAT     H257393   9.796   6.257   5.986
19051WAT      O57394   1.425   5.016   6.893
19051WAT     H157395   1.370   5.086   6.846
19051WAT     H257396   1.383   4.995   6.982
19052WAT      O57397   3.037   3.787   7.616
19052WAT     H157398   2.963   3.731   7.651
19052WAT     H257399   3.083   3.833   7.693
19053WAT      O57400   7.005   7.692   1.177
19053WAT     H157401   6.947   7.687   1.258
19053WAT     H257402   7.086   7.635   1.190
19054WAT      O57403   0.874   4.920   8.313
19054WAT     H157404   0.901   5.016   8.320
19054WAT     H257405   0.779   4.910   8.343
19055WAT      O57406   0.869   9.325   1.412
19055WAT     H157407   0.826   9.236   1.426
19055WAT     H257408   0.960   9.326   1.455
19056WAT      O57409   9.606   6.897   9.253
19056WAT     H157410   9.612   6.801   9.278
19056WAT     H257411   9.526   6.912   9.194
19057WAT      O57412   6.798   0.015   3.654
19057WAT     H157413   6.746   0.083   3.707
19057WAT     H257414   6.867   0.062   3.598
19058WAT      O57415   9.763   2.815   0.538
19058WAT     H157416   9.855   2.776   0.549
19058WAT     H257417   9.709   2.793   0.620
19059WAT      O57418   3.822   9.137   7.084
19059WAT     H157419   3.780   9.137   7.175
19059WAT     H257420   3.853   9.230   7.061
19060WAT      O57421   5.489   8.366   1.517
19060WAT     H157422   5.420   8.409   1.459
19060WAT     H257423   5.567   8.428   1.526
19061WAT      O57424   6.916   4.618   9.582
19061WAT     H157425   6.842   4.631   9.647
19061WAT     H257426   6.884   4.638   9.490
19062WAT      O57427   6.666   7.481   2.971
19062WAT     H157428   6.627   7.557   3.021
19062WAT     H257429   6.647   7.395   3.020
19063WAT      O57430   9.699   3.587   1.812
19063WAT     H157431   9.604   3.555   1.814
19063WAT     H257432   9.701   3.687   1.809
19064WAT      O57433   4.138   8.244   0.328
19064WAT     H157434   4.096   8.252   0.238
19064WAT     H257435   4.066   8.244   0.398
19065WAT      O57436   7.700   3.623   1.838
19065WAT     H157437   7.782   3.601   1.892
19065WAT     H257438   7.722   3.617   1.741
19066WAT      O57439   2.935   4.127   9.329
19066WAT     H157440   3.032   4.112   9.347
19066WAT     H257441   2.920   4.224   9.309
19067WAT      O57442   6.587   8.830   1.278
19067WAT     H157443   6.575   8.764   1.203
19067WAT     H257444   6.565   8.922   1.246
19068WAT      O57445   0.951   1.186   3.028
19068WAT     H157446   0.959   1.119   3.102
19068WAT     H257447   1.037   1.238   3.022
19069WAT      O57448   4.107   0.190   3.441
19069WAT     H157449   4.066   0.221   3.527
19069WAT     H257450   4.206   0.182   3.453
19070WAT      O57451   9.098   3.723   2.685
19070WAT     H157452   9.124   3.818   2.703
19070WAT     H257453   9.031   3.694   2.754
19071WAT      O57454   5.144   4.755   9.772
19071WAT     H157455   5.091   4.835   9.743
19071WAT     H257456   5.239   4.781   9.788
19072WAT      O57457   8.542   8.151   5.609
19072WAT     H157458   8.525   8.160   5.511
19072WAT     H257459   8.638   8.126   5.624
19073WAT      O57460   5.920   4.014   4.281
19073WAT     H157461   5.893   4.110   4.276
19073WAT     H257462   5.876   3.964   4.207
19074WAT      O57463   4.509   6.684   8.986
19074WAT     H157464   4.584   6.626   8.954
19074WAT     H257465   4.438   6.687   8.915
19075WAT      O57466   9.195   6.507   8.023
19075WAT     H157467   9.295   6.511   8.025
19075WAT     H257468   9.158   6.594   8.056
19076WAT      O57469   9.130   0.382   0.624
19076WAT     H157470   9.106   0.433   0.542
19076WAT     H257471   9.187   0.304   0.600
19077WAT      O57472   2.987   4.561   5.307
19077WAT     H157473   3.063   4.600   5.256
19077WAT     H257474   2.901   4.595   5.269
19078WAT      O57475   9.837   3.399   0.758
19078WAT     H157476   9.764   3.337   0.730
19078WAT     H257477   9.815   3.437   0.848
19079WAT      O57478   3.627   1.802   8.586
19079WAT     H157479   3.597   1.796   8.491
19079WAT     H257480   3.549   1.826   8.644
19080WAT      O57481   4.820   8.809   4.439
19080WAT     H157482   4.744   8.760   4.482
19080WAT     H257483   4.820   8.790   4.340
19081WAT      O57484   6.694   9.332   9.505
19081WAT     H157485   6.626   9.354   9.436
19081WAT     H257486   6.781   9.311   9.461
19082WAT      O57487   8.497   1.645   1.244
19082WAT     H157488   8.500   1.586   1.164
19082WAT     H257489   8.404   1.680   1.256
19083WAT      O57490   5.131   3.851   7.276
19083WAT     H157491   5.034   3.863   7.253
19083WAT     H257492   5.169   3.776   7.222
19084WAT      O57493   8.186   3.907   5.643
19084WAT     H157494   8.267   3.938   5.593
19084WAT     H257495   8.118   3.873   5.578
19085WAT      O57496   6.163   1.507   8.052
19085WAT     H157497   6.063   1.509   8.063
19085WAT     H257498   6.204   1.459   8.130
19086WAT      O57499   2.023   1.023   6.611
19086WAT     H157500   1.949   1.055   6.671
19086WAT     H257501   2.039   0.926   6.626
19087WAT      O57502   9.738   4.814   8.875
19087WAT     H157503   9.668   4.765   8.824
19087WAT     H257504   9.762   4.898   8.826
19088WAT      O57505   1.090   7.093   3.323
19088WAT     H157506   1.151   7.014   3.314
19088WAT     H257507   1.034   7.083   3.405
19089WAT      O57508   5.297   1.052   7.337
19089WAT     H157509   5.303   0.999   7.421
19089WAT     H257510   5.372   1.027   7.276
19090WAT      O57511   0.773   8.146   0.895
19090WAT     H157512   0.773   8.049   0.921
19090WAT     H257513   0.757   8.153   0.797
19091WAT      O57514   5.501   9.673   4.891
19091WAT     H157515   5.555   9.601   4.934
19091WAT     H257516   5.542   9.762   4.910
19092WAT      O57517   0.166   8.251   7.632
19092WAT     H157518   0.121   8.305   7.704
19092WAT     H257519   0.263   8.276   7.627
19093WAT      O57520   4.661   8.522   0.310
19093WAT     H157521   4.753   8.541   0.275
19093WAT     H257522   4.665   8.509   0.409
19094WAT      O57523   7.064   3.222   6.494
19094WAT     H157524   7.071   3.182   6.586
19094WAT     H257525   7.115   3.308   6.492
19095WAT      O57526   8.595   3.703   2.999
19095WAT     H157527   8.548   3.741   3.079
19095WAT     H257528   8.559   3.612   2.979
19096WAT      O57529   1.600   0.630   8.489
19096WAT     H157530   1.579   0.535   8.508
19096WAT     H257531   1.516   0.683   8.485
19097WAT      O57532   5.445   1.023   6.082
19097WAT     H157533   5.352   1.048   6.107
19097WAT     H257534   5.458   0.925   6.094
19098WAT      O57535   3.452   1.631   0.701
19098WAT     H157536   3.357   1.659   0.713
19098WAT     H257537   3.496   1.623   0.791
19099WAT      O57538   2.146   9.041   8.587
19099WAT     H157539   2.085   9.067   8.662
19099WAT     H257540   2.174   8.945   8.600
19100WAT      O57541   5.653   9.434   4.994
19100WAT     H157542   5.726   9.444   4.926
19100WAT     H257543   5.694   9.434   5.085
19101WAT      O57544   8.181   9.280   8.334
19101WAT     H157545   8.240   9.347   8.290
19101WAT     H257546   8.105   9.257   8.272
19102WAT      O57547   4.478   5.195   5.577
19102WAT     H157548   4.548   5.127   5.596
19102WAT     H257549   4.423   5.166   5.498
19103WAT      O57550   0.277   0.734   5.633
19103WAT     H157551   0.367   0.777   5.631
19103WAT     H257552   0.235   0.740   5.542
19104WAT      O57553   3.451   3.722   5.571
19104WAT     H157554   3.361   3.753   5.540
19104WAT     H257555   3.445   3.625   5.597
19105WAT      O57556   9.858   0.227   3.065
19105WAT     H157557   9.932   0.250   3.129
19105WAT     H257558   9.889   0.157   3.002
19106WAT      O57559   2.397   1.575   0.032
19106WAT     H157560   2.478   1.572   0.091
19106WAT     H257561   2.400   1.500  -0.033
19107WAT      O57562   9.815   4.984   3.333
19107WAT     H157563   9.733   5.040   3.345
19107WAT     H257564   9.896   5.038   3.357
19108WAT      O57565   4.370   3.533   9.278
19108WAT     H157566   4.338   3.610   9.334
19108WAT     H257567   4.416   3.467   9.337
19109WAT      O57568   9.437   8.859   4.415
19109WAT     H157569   9.367   8.797   4.377
19109WAT     H257570   9.525   8.812   4.417
19110WAT      O57571   5.152   2.440   7.744
19110WAT     H157572   5.148   2.535   7.774
19110WAT     H257573   5.130   2.435   7.646
19111WAT      O57574   6.254   1.323   8.226
19111WAT     H157575   6.324   1.330   8.155
19111WAT     H257576   6.234   1.227   8.244
19112WAT      O57577   6.934   0.356   5.431
19112WAT     H157578   6.838   0.383   5.436
19112WAT     H257579   6.940   0.257   5.417
19113WAT      O57580   2.783   4.481   3.876
19113WAT     H157581   2.734   4.395   3.860
19113WAT     H257582   2.839   4.503   3.796
19114WAT      O57583   8.193   8.685   5.170
19114WAT     H157584   8.175   8.593   5.206
19114WAT     H257585   8.107   8.736   5.166
19115WAT      O57586   5.492   6.425   7.259
19115WAT     H157587   5.478   6.522   7.236
19115WAT     H257588   5.414   6.393   7.313
19116WAT      O57589   5.647   4.467   0.311
19116WAT     H157590   5.651   4.469   0.211
19116WAT     H257591   5.608   4.379   0.341
19117WAT      O57592   5.282   3.743   9.745
19117WAT     H157593   5.294   3.730   9.844
19117WAT     H257594   5.199   3.697   9.715
19118WAT      O57595   4.596   8.705   6.254
19118WAT     H157596   4.683   8.709   6.204
19118WAT     H257597   4.548   8.621   6.231
19119WAT      O57598   9.466   3.307   2.161
19119WAT     H157599   9.515   3.379   2.112
19119WAT     H257600   9.520   3.222   2.157
19120WAT      O57601   2.631   5.524   0.509
19120WAT     H157602   2.709   5.586   0.508
19120WAT     H257603   2.547   5.576   0.526
19121WAT      O57604   7.797   0.724   5.640
19121WAT     H157605   7.823   0.739   5.736
19121WAT     H257606   7.721   0.659   5.636
19122WAT      O57607   6.971   4.185   6.947
19122WAT     H157608   6.954   4.091   6.918
19122WAT     H257609   6.917   4.248   6.890
19123WAT      O57610   8.088   6.517   1.147
19123WAT     H157611   8.021   6.444   1.138
19123WAT     H257612   8.041   6.603   1.168
19124WAT      O57613   2.653   4.784   2.566
19124WAT     H157614   2.557   4.809   2.577
19124WAT     H257615   2.711   4.860   2.593
19125WAT      O57616   3.111   3.913   1.264
19125WAT     H157617   3.185   3.972   1.297
19125WAT     H257618   3.065   3.957   1.187
19126WAT      O57619   7.664   9.245   9.070
19126WAT     H157620   7.634   9.246   9.166
19126WAT     H257621   7.603   9.302   9.016
19127WAT      O57622   7.471   1.399   0.382
19127WAT     H157623   7.383   1.391   0.335
19127WAT     H257624   7.471   1.481   0.440
19128WAT      O57625   8.039   6.246   5.420
19128WAT     H157626   8.119   6.304   5.437
19128WAT     H257627   7.964   6.274   5.481
19129WAT      O57628   6.647   2.219   3.670
19129WAT     H157629   6.694   2.307   3.670
19129WAT     H257630   6.685   2.162   3.743
19130WAT      O57631   0.897   1.417   5.421
19130WAT     H157632   0.979   1.374   5.383
19130WAT     H257633   0.908   1.425   5.520
19131WAT      O57634   2.889   3.186   1.387
19131WAT     H157635   2.859   3.175   1.482
19131WAT     H257636   2.885   3.282   1.361
19132WAT      O57637   5.356   4.105   7.949
19132WAT     H157638   5.310   4.194   7.944
19132WAT     H257639   5.329   4.050   7.870
19133WAT      O57640   7.860   0.460   1.420
19133WAT     H157641   7.922   0.498   1.351
19133WAT     H257642   7.868   0.514   1.504
19134WAT      O57643   4.769   2.542   8.748
19134WAT     H157644   4.813   2.600   8.679
19134WAT     H257645   4.753   2.452   8.710
19135WAT      O57646   6.782   1.283   2.710
19135WAT     H157647   6.742   1.290   2.618
19135WAT     H257648   6.804   1.188   2.730
19136WAT      O57649   5.602   0.843   4.491
19136WAT     H157650   5.637   0.756   4.457
19136WAT     H257651   5.675   0.892   4.538
19137WAT      O57652   3.431   1.919   8.732
19137WAT     H157653   3.349   1.928   8.676
19137WAT     H257654   3.406   1.895   8.825
19138WAT      O57655   5.076   3.660   7.941
19138WAT     H157656   5.072   3.759   7.947
19138WAT     H257657   5.063   3.631   7.847
19139WAT      O57658   2.244   2.252   6.998
19139WAT     H157659   2.242   2.217   7.091
19139WAT     H257660   2.301   2.191   6.941
19140WAT      O57661   1.591   8.080   4.896
19140WAT     H157662   1.510   8.137   4.887
19140WAT     H257663   1.564   7.988   4.925
19141WAT      O57664   3.909   0.564   7.709
19141WAT     H157665   3.812   0.585   7.720
19141WAT     H257666   3.964   0.635   7.753
19142WAT      O57667   3.856   8.279   6.072
19142WAT     H157668   3.793   8.280   6.149
19142WAT     H257669   3.859   8.188   6.032
19143WAT      O57670   5.750   5.182   1.456
19143WAT     H157671   5.845   5.166   1.432
19143WAT     H257672   5.719   5.111   1.520
19144WAT      O57673   7.846   4.775   2.228
19144WAT     H157674   7.820   4.743   2.319
19144WAT     H257675   7.891   4.701   2.178
19145WAT      O57676   5.710   7.235   7.620
19145WAT     H157677   5.672   7.158   7.569
19145WAT     H257678   5.644   7.310   7.620
19146WAT      O57679   2.643   3.300   3.238
19146WAT     H157680   2.595   3.244   3.305
19146WAT     H257681   2.652   3.394   3.274
19147WAT      O57682   0.084   2.619   8.972
19147WAT     H157683   0.081   2.696   9.035
19147WAT     H257684   0.087   2.652   8.878
19148WAT      O57685   4.815   0.418   7.309
19148WAT     H157686   4.829   0.509   7.270
19148WAT     H257687   4.717   0.401   7.319
19149WAT      O57688   6.846   8.059   6.918
19149WAT     H157689   6.907   8.137   6.931
19149WAT     H257690   6.846   8.002   7.000
19150WAT      O57691   2.382   0.691   2.471
19150WAT     H157692   2.460   0.665   2.413
19150WAT     H257693   2.353   0.611   2.525
19151WAT      O57694   9.214   1.510   9.589
19151WAT     H157695   9.121   1.489   9.560
19151WAT     H257696   9.248   1.589   9.538
19152WAT      O57697   0.492   3.246   1.817
19152WAT     H157698   0.444   3.179   1.759
19152WAT     H257699   0.542   3.198   1.889
19153WAT      O57700   7.049   4.597   0.307
19153WAT     H157701   7.140   4.635   0.318
19153WAT     H257702   6.986   4.669   0.277
19154WAT      O57703   0.655   2.938   5.829
19154WAT     H157704   0.634   2.930   5.731
19154WAT     H257705   0.632   3.030   5.861
19155WAT      O57706   8.113   0.528   3.873
19155WAT     H157707   8.101   0.442   3.824
19155WAT     H257708   8.131   0.509   3.970
19156WAT      O57709   5.379   5.736   4.055
19156WAT     H157710   5.284   5.718   4.031
19156WAT     H257711   5.421   5.652   4.090
19157WAT      O57712   0.092   1.164   5.503
19157WAT     H157713   0.059   1.114   5.583
19157WAT     H257714   0.050   1.254   5.500
19158WAT      O57715   7.000   1.191   8.366
19158WAT     H157716   6.922   1.206   8.426
19158WAT     H257717   7.041   1.280   8.343
19159WAT      O57718   3.683   0.333   1.131
19159WAT     H157719   3.628   0.417   1.127
19159WAT     H257720   3.659   0.281   1.213
19160WAT      O57721   8.584   8.971   9.395
19160WAT     H157722   8.652   8.902   9.372
19160WAT     H257723   8.516   8.977   9.323
19161WAT      O57724   9.239   3.897   1.764
19161WAT     H157725   9.175   3.871   1.692
19161WAT     H257726   9.206   3.980   1.810
19162WAT      O57727   9.799   3.464   7.532
19162WAT     H157728   9.722   3.420   7.484
19162WAT     H257729   9.807   3.425   7.623
19163WAT      O57730   3.547   8.156   5.394
19163WAT     H157731   3.563   8.101   5.312
19163WAT     H257732   3.569   8.252   5.374
19164WAT      O57733   2.556   0.669   1.930
19164WAT     H157734   2.532   0.746   1.989
19164WAT     H257735   2.647   0.683   1.891
19165WAT      O57736   1.695   6.585   6.191
19165WAT     H157737   1.779   6.635   6.211
19165WAT     H257738   1.688   6.568   6.093
19166WAT      O57739   7.593   6.698   8.879
19166WAT     H157740   7.677   6.753   8.878
19166WAT     H257741   7.555   6.698   8.971
19167WAT      O57742   2.673   8.353   7.539
19167WAT     H157743   2.608   8.361   7.463
19167WAT     H257744   2.686   8.443   7.581
19168WAT      O57745   5.603   9.797   8.190
19168WAT     H157746   5.531   9.777   8.124
19168WAT     H257747   5.611   9.896   8.202
19169WAT      O57748   6.165   0.091   1.382
19169WAT     H157749   6.168   0.061   1.478
19169WAT     H257750   6.161   0.191   1.379
19170WAT      O57751   3.742   2.598   1.732
19170WAT     H157752   3.678   2.639   1.798
19170WAT     H257753   3.787   2.671   1.680
19171WAT      O57754   0.886   7.591   4.973
19171WAT     H157755   0.803   7.594   5.029
19171WAT     H257756   0.878   7.657   4.899
19172WAT      O57757   8.983   8.136   1.902
19172WAT     H157758   8.889   8.130   1.933
19172WAT     H257759   8.999   8.068   1.831
19173WAT      O57760   8.559   8.647   9.004
19173WAT     H157761   8.479   8.609   8.957
19173WAT     H257762   8.596   8.722   8.951
19174WAT      O57763   5.181   6.557   6.008
19174WAT     H157764   5.125   6.524   5.932
19174WAT     H257765   5.223   6.479   6.054
19175WAT      O57766   9.125   9.047   3.552
19175WAT     H157767   9.122   9.146   3.548
19175WAT     H257768   9.057   9.014   3.618
19176WAT      O57769   5.074   2.416   5.825
19176WAT     H157770   5.124   2.435   5.741
19176WAT     H257771   5.133   2.432   5.903
19177WAT      O57772   2.515   1.971   4.907
19177WAT     H157773   2.463   1.901   4.956
19177WAT     H257774   2.534   1.940   4.814
19178WAT      O57775   7.840   3.242   0.075
19178WAT     H157776   7.866   3.249   0.171
19178WAT     H257777   7.769   3.172   0.065
19179WAT      O57778   9.228   2.009   3.896
19179WAT     H157779   9.167   1.947   3.945
19179WAT     H257780   9.192   2.102   3.902
19180WAT      O57781   0.676   6.767   7.403
19180WAT     H157782   0.610   6.692   7.392
19180WAT     H257783   0.744   6.741   7.472
19181WAT      O57784   3.545   1.675   7.956
19181WAT     H157785   3.474   1.665   8.026
19181WAT     H257786   3.504   1.713   7.873
19182WAT      O57787   0.834   9.339   1.136
19182WAT     H157788   0.801   9.252   1.099
19182WAT     H257789   0.861   9.327   1.232
19183WAT      O57790   2.365   7.158   4.210
19183WAT     H157791   2.376   7.105   4.295
19183WAT     H257792   2.374   7.255   4.231
19184WAT      O57793   5.948   1.394   7.791
19184WAT     H157794   6.043   1.404   7.821
19184WAT     H257795   5.926   1.468   7.727
19185WAT      O57796   7.455   7.862   0.504
19185WAT     H157797   7.553   7.841   0.510
19185WAT     H257798   7.424   7.901   0.591
19186WAT      O57799   0.940   5.621   3.139
19186WAT     H157800   0.886   5.628   3.056
19186WAT     H257801   1.033   5.592   3.116
19187WAT      O57802   4.927   1.347   8.343
19187WAT     H157803   4.912   1.385   8.434
19187WAT     H257804   4.846   1.296   8.315
19188WAT      O57805   0.050   2.498   2.487
19188WAT     H157806   0.099   2.571   2.534
19188WAT     H257807   0.105   2.415   2.488
19189WAT      O57808   3.409   6.285   8.782
19189WAT     H157809   3.349   6.315   8.708
19189WAT     H257810   3.361   6.220   8.840
19190WAT      O57811   3.287   3.400   6.096
19190WAT     H157812   3.372   3.384   6.146
19190WAT     H257813   3.218   3.334   6.125
19191WAT      O57814   9.054   1.788   5.835
19191WAT     H157815   9.017   1.729   5.906
19191WAT     H257816   8.994   1.784   5.754
19192WAT      O57817   3.257   4.665   0.862
19192WAT     H157818   3.309   4.597   0.916
19192WAT     H257819   3.299   4.675   0.772
19193WAT      O57820   4.777   6.323   2.097
19193WAT     H157821   4.807   6.415   2.072
19193WAT     H257822   4.814   6.257   2.032
19194WAT      O57823   4.982   2.728   3.677
19194WAT     H157824   5.004   2.819   3.640
19194WAT     H257825   4.887   2.727   3.707
19195WAT      O57826   6.850   1.014   1.285
19195WAT     H157827   6.811   0.933   1.329
19195WAT     H257828   6.804   1.096   1.319
19196WAT      O57829   2.239   3.433   8.041
19196WAT     H157830   2.218   3.428   7.943
19196WAT     H257831   2.155   3.417   8.094
19197WAT      O57832   7.805   2.553   3.636
19197WAT     H157833   7.810   2.647   3.602
19197WAT     H257834   7.777   2.554   3.732
19198WAT      O57835   4.767   8.773   8.770
19198WAT     H157836   4.702   8.747   8.699
19198WAT     H257837   4.819   8.692   8.799
19199WAT      O57838   1.767   6.943   4.353
19199WAT     H157839   1.840   6.888   4.394
19199WAT     H257840   1.807   7.017   4.300
19200WAT      O57841   7.594   9.640   8.190
19200WAT     H157842   7.675   9.670   8.240
19200WAT     H257843   7.571   9.547   8.216
19201WAT      O57844   3.924   1.722   0.363
19201WAT     H157845   3.951   1.648   0.301
19201WAT     H257846   3.884   1.683   0.446
19202WAT      O57847   5.224   3.689   5.216
19202WAT     H157848   5.302   3.634   5.246
19202WAT     H257849   5.244   3.731   5.128
19203WAT      O57850   1.246   5.637   2.653
19203WAT     H157851   1.314   5.589   2.597
19203WAT     H257852   1.245   5.734   2.627
19204WAT      O57853   1.202   3.671   6.968
19204WAT     H157854   1.280   3.727   6.940
19204WAT     H257855   1.122   3.729   6.980
19205WAT      O57856   8.140   8.922   3.688
19205WAT     H157857   8.061   8.973   3.654
19205WAT     H257858   8.209   8.916   3.615
19206WAT      O57859   9.559   4.584   3.521
19206WAT     H157860   9.531   4.619   3.611
19206WAT     H257861   9.520   4.494   3.506
19207WAT      O57862   5.503   1.970   8.461
19207WAT     H157863   5.477   1.947   8.368
19207WAT     H257864   5.434   2.030   8.502
19208WAT      O57865   8.826   3.248   0.407
19208WAT     H157866   8.821   3.335   0.455
19208WAT     H257867   8.891   3.188   0.453
19209WAT      O57868   4.415   4.897   0.975
19209WAT     H157869   4.352   4.825   0.949
19209WAT     H257870   4.452   4.941   0.893
19210WAT      O57871   0.096   8.432   1.378
19210WAT     H157872   0.131   8.342   1.404
19210WAT     H257873   0.166   8.482   1.326
19211WAT      O57874   7.594   7.269   3.274
19211WAT     H157875   7.596   7.336   3.200
19211WAT     H257876   7.534   7.302   3.348
19212WAT      O57877   8.994   2.923   3.193
19212WAT     H157878   8.947   2.836   3.205
19212WAT     H257879   8.981   2.980   3.274
19213WAT      O57880   7.392   7.972   3.419
19213WAT     H157881   7.352   7.985   3.328
19213WAT     H257882   7.478   7.921   3.410
19214WAT      O57883   0.300   9.320   5.923
19214WAT     H157884   0.261   9.237   5.882
19214WAT     H257885   0.353   9.369   5.854
19215WAT      O57886   0.276   2.865   9.477
19215WAT     H157887   0.271   2.780   9.425
19215WAT     H257888   0.345   2.857   9.549
19216WAT      O57889   0.171   0.372   8.238
19216WAT     H157890   0.193   0.429   8.317
19216WAT     H257891   0.074   0.381   8.216
19217WAT      O57892   1.490   2.302   1.842
19217WAT     H157893   1.583   2.300   1.807
19217WAT     H257894   1.429   2.256   1.778
19218WAT      O57895   2.966   1.624   7.904
19218WAT     H157896   2.998   1.601   7.996
19218WAT     H257897   2.873   1.589   7.892
19219WAT      O57898   8.019   9.486   7.323
19219WAT     H157899   7.944   9.422   7.311
19219WAT     H257900   8.090   9.468   7.255
19220WAT      O57901   0.116   9.729   7.277
19220WAT     H157902   0.146   9.638   7.251
19220WAT     H257903   0.017   9.737   7.266
19221WAT      O57904   0.265   5.529   3.433
19221WAT     H157905   0.291   5.515   3.528
19221WAT     H257906   0.165   5.531   3.425
19222WAT      O57907   2.427   9.695   6.075
19222WAT     H157908   2.389   9.707   5.984
19222WAT     H257909   2.525   9.716   6.073
19223WAT      O57910   6.962   6.776   7.322
19223WAT     H157911   7.014   6.715   7.262
19223WAT     H257912   6.864   6.765   7.302
19224WAT      O57913   4.010   9.362   2.155
19224WAT     H157914   3.936   9.297   2.175
19224WAT     H257915   4.080   9.317   2.100
19225WAT      O57916   8.827   6.701   7.517
19225WAT     H157917   8.841   6.798   7.533
19225WAT     H257918   8.841   6.651   7.603
19226WAT      O57919   6.969   7.851   2.990
19226WAT     H157920   6.962   7.792   2.910
19226WAT     H257921   6.886   7.906   2.998
19227WAT      O57922   0.027   6.257   2.113
19227WAT     H157923   0.078   6.272   2.028
19227WAT     H257924  -0.019   6.168   2.108
19228WAT      O57925   3.014   2.242   2.207
19228WAT     H157926   2.951   2.318   2.224
19228WAT     H257927   2.961   2.157   2.196
19229WAT      O57928   1.145   3.517   3.181
19229WAT     H157929   1.146   3.525   3.280
19229WAT     H257930   1.053   3.490   3.151
19230WAT      O57931   8.930   4.083   0.770
19230WAT     H157932   8.950   4.078   0.868
19230WAT     H257933   8.929   3.991   0.732
19231WAT      O57934   4.382   2.569   5.053
19231WAT     H157935   4.328   2.487   5.031
19231WAT     H257936   4.366   2.639   4.983
19232WAT      O57937   2.174   2.938   0.877
19232WAT     H157938   2.196   3.032   0.900
19232WAT     H257939   2.231   2.909   0.799
19233WAT      O57940   1.236   7.273   4.491
19233WAT     H157941   1.243   7.286   4.590
19233WAT     H257942   1.166   7.335   4.454
19234WAT      O57943   7.982   2.268   8.723
19234WAT     H157944   8.033   2.268   8.809
19234WAT     H257945   7.895   2.221   8.735
19235WAT      O57946   1.820   5.628   3.083
19235WAT     H157947   1.799   5.530   3.084
19235WAT     H257948   1.901   5.644   3.027
19236WAT      O57949   5.644   9.477   6.559
19236WAT     H157950   5.687   9.416   6.625
19236WAT     H257951   5.546   9.484   6.579
19237WAT      O57952   1.398   3.521   7.401
19237WAT     H157953   1.456   3.510   7.320
19237WAT     H257954   1.355   3.434   7.423
19238WAT      O57955   1.979   1.668   2.271
19238WAT     H157956   2.044   1.661   2.347
19238WAT     H257957   1.990   1.590   2.210
19239WAT      O57958   5.011   5.348   1.030
19239WAT     H157959   4.954   5.330   0.950
19239WAT     H257960   5.080   5.417   1.007
19240WAT      O57961   3.349   2.886   1.341
19240WAT     H157962   3.391   2.862   1.429
19240WAT     H257963   3.327   2.802   1.291
19241WAT      O57964   2.246   7.476   3.876
19241WAT     H157965   2.182   7.468   3.799
19241WAT     H257966   2.198   7.518   3.954
19242WAT      O57967   6.252   0.884   4.763
19242WAT     H157968   6.210   0.795   4.778
19242WAT     H257969   6.321   0.877   4.692
19243WAT      O57970   6.589   4.143   8.233
19243WAT     H157971   6.654   4.100   8.295
19243WAT     H257972   6.567   4.079   8.159
19244WAT      O57973   5.547   3.753   0.045
19244WAT     H157974   5.562   3.654   0.038
19244WAT     H257975   5.549   3.793  -0.046
19245WAT      O57976   0.915   6.743   2.503
19245WAT     H157977   0.837   6.805   2.509
19245WAT     H257978   0.918   6.685   2.585
19246WAT      O57979   9.415   2.123   5.092
19246WAT     H157980   9.430   2.199   5.155
19246WAT     H257981   9.412   2.037   5.144
19247WAT      O57982   4.106   1.713   9.300
19247WAT     H157983   4.059   1.719   9.212
19247WAT     H257984   4.182   1.649   9.293
19248WAT      O57985   6.278   4.927   3.528
19248WAT     H157986   6.227   4.957   3.447
19248WAT     H257987   6.296   4.829   3.521
19249WAT      O57988   9.092   3.135   3.759
19249WAT     H157989   9.075   3.040   3.786
19249WAT     H257990   9.186   3.159   3.783
19250WAT      O57991   1.414   5.335   8.982
19250WAT     H157992   1.373   5.404   9.042
19250WAT     H257993   1.347   5.265   8.961
19251WAT      O57994   2.028   0.003   2.584
19251WAT     H157995   2.041  -0.040   2.673
19251WAT     H257996   2.000   0.098   2.597
19252WAT      O57997   6.526   2.755   6.533
19252WAT     H157998   6.518   2.763   6.632
19252WAT     H257999   6.539   2.658   6.508
19253WAT      O58000   0.324   2.014   9.239
19253WAT     H158001   0.356   2.109   9.234
19253WAT     H258002   0.289   1.987   9.150
19254WAT      O58003   7.681   4.278   1.787
19254WAT     H158004   7.650   4.204   1.846
19254WAT     H258005   7.670   4.250   1.691
19255WAT      O58006   1.178   5.256   6.436
19255WAT     H158007   1.250   5.225   6.498
19255WAT     H258008   1.090   5.257   6.485
19256WAT      O58009   8.450   6.252   9.458
19256WAT     H158010   8.441   6.279   9.553
19256WAT     H258011   8.361   6.219   9.424
19257WAT      O58012   7.182   0.303   9.227
19257WAT     H158013   7.093   0.259   9.221
19257WAT     H258014   7.211   0.333   9.136
19258WAT      O58015   7.415   8.561   2.221
19258WAT     H158016   7.417   8.651   2.265
19258WAT     H258017   7.344   8.504   2.263
19259WAT      O58018   1.985   7.975   5.144
19259WAT     H158019   2.040   7.945   5.066
19259WAT     H258020   1.890   7.986   5.115
19260WAT      O58021   0.647   1.830   5.645
19260WAT     H158022   0.567   1.874   5.605
19260WAT     H258023   0.647   1.733   5.621
19261WAT      O58024   4.475   1.171   8.654
19261WAT     H158025   4.493   1.236   8.727
19261WAT     H258026   4.400   1.204   8.597
19262WAT      O58027   4.396   8.145   7.709
19262WAT     H158028   4.339   8.216   7.667
19262WAT     H258029   4.391   8.061   7.654
19263WAT      O58030   1.704   9.087   9.549
19263WAT     H158031   1.739   9.071   9.641
19263WAT     H258032   1.722   9.007   9.492
19264WAT      O58033   7.276   6.349   4.121
19264WAT     H158034   7.198   6.355   4.059
19264WAT     H258035   7.247   6.371   4.214
19265WAT      O58036   3.663   9.467   7.859
19265WAT     H158037   3.609   9.437   7.780
19265WAT     H258038   3.613   9.447   7.943
19266WAT      O58039   9.845   5.236   7.142
19266WAT     H158040   9.833   5.256   7.239
19266WAT     H258041   9.856   5.137   7.129
19267WAT      O58042   7.077   7.152   3.462
19267WAT     H158043   7.118   7.061   3.450
19267WAT     H258044   7.012   7.169   3.388
19268WAT      O58045   4.593   0.702   6.840
19268WAT     H158046   4.666   0.634   6.835
19268WAT     H258047   4.595   0.746   6.930
19269WAT      O58048   5.872   8.969   2.637
19269WAT     H158049   5.849   8.890   2.579
19269WAT     H258050   5.804   9.041   2.622
19270WAT      O58051   7.423   9.631   7.633
19270WAT     H158052   7.496   9.699   7.639
19270WAT     H258053   7.455   9.543   7.669
19271WAT      O58054   7.942   4.666   1.519
19271WAT     H158055   7.902   4.734   1.580
19271WAT     H258056   7.870   4.607   1.483
19272WAT      O58057   3.649   1.794   4.622
19272WAT     H158058   3.576   1.783   4.690
19272WAT     H258059   3.728   1.739   4.649
19273WAT      O58060   2.551   7.013   1.383
19273WAT     H158061   2.584   6.962   1.463
19273WAT     H258062   2.554   7.111   1.403
19274WAT      O58063   4.834   0.721   2.108
19274WAT     H158064   4.801   0.814   2.121
19274WAT     H258065   4.854   0.705   2.011
19275WAT      O58066   1.300   5.324   3.243
19275WAT     H158067   1.366   5.315   3.169
19275WAT     H258068   1.346   5.312   3.331
19276WAT      O58069   9.232   7.729   2.455
19276WAT     H158070   9.237   7.817   2.500
19276WAT     H258071   9.216   7.742   2.357
19277WAT      O58072   6.826   6.763   2.616
19277WAT     H158073   6.774   6.800   2.693
19277WAT     H258074   6.919   6.798   2.619
19278WAT      O58075   5.304   3.786   6.390
19278WAT     H158076   5.342   3.694   6.387
19278WAT     H258077   5.312   3.827   6.299
19279WAT      O58078   3.899   6.878   4.276
19279WAT     H158079   3.841   6.797   4.291
19279WAT     H258080   3.983   6.850   4.229
19280WAT      O58081   6.862   3.565   7.912
19280WAT     H158082   6.945   3.510   7.905
19280WAT     H258083   6.827   3.561   8.005
19281WAT      O58084   8.954   9.825   4.746
19281WAT     H158085   8.943   9.901   4.681
19281WAT     H258086   8.912   9.850   4.833
19282WAT      O58087   8.391   1.099   6.247
19282WAT     H158088   8.409   1.068   6.154
19282WAT     H258089   8.292   1.095   6.265
19283WAT      O58090   1.500   7.316   6.945
19283WAT     H158091   1.454   7.378   6.881
19283WAT     H258092   1.481   7.344   7.039
19284WAT      O58093   2.632   7.165   8.690
19284WAT     H158094   2.618   7.109   8.609
19284WAT     H258095   2.729   7.163   8.715
19285WAT      O58096   7.323   8.624   6.079
19285WAT     H158097   7.304   8.551   6.013
19285WAT     H258098   7.421   8.626   6.100
19286WAT      O58099   1.571   7.856   5.031
19286WAT     H158100   1.652   7.799   5.044
19286WAT     H258101   1.507   7.839   5.106
19287WAT      O58102   6.671   9.184   9.740
19287WAT     H158103   6.680   9.243   9.661
19287WAT     H258104   6.760   9.144   9.762
19288WAT      O58105   6.863   7.113   9.414
19288WAT     H158106   6.935   7.136   9.479
19288WAT     H258107   6.903   7.061   9.338
19289WAT      O58108   2.589   1.920   7.399
19289WAT     H158109   2.490   1.909   7.396
19289WAT     H258110   2.619   1.928   7.494
19290WAT      O58111   0.113   6.546   2.456
19290WAT     H158112   0.143   6.454   2.480
19290WAT     H258113   0.061   6.543   2.371
19291WAT      O58114   9.470   1.755   8.706
19291WAT     H158115   9.378   1.761   8.743
19291WAT     H258116   9.466   1.766   8.606
19292WAT      O58117   0.699   1.149   9.785
19292WAT     H158118   0.666   1.079   9.721
19292WAT     H258119   0.694   1.113   9.878
19293WAT      O58120   3.015   5.364   1.404
19293WAT     H158121   3.004   5.272   1.366
19293WAT     H258122   2.928   5.396   1.442
19294WAT      O58123   4.030   1.820   8.557
19294WAT     H158124   4.091   1.765   8.613
19294WAT     H258125   4.069   1.910   8.542
19295WAT      O58126   3.069   7.838   6.389
19295WAT     H158127   3.004   7.776   6.433
19295WAT     H258128   3.020   7.901   6.329
19296WAT      O58129   5.249   2.680   8.063
19296WAT     H158130   5.339   2.717   8.042
19296WAT     H258131   5.250   2.640   8.155
19297WAT      O58132   4.044   8.727   9.386
19297WAT     H158133   4.097   8.745   9.469
19297WAT     H258134   4.033   8.628   9.373
19298WAT      O58135   7.721   0.609   4.992
19298WAT     H158136   7.648   0.550   5.027
19298WAT     H258137   7.685   0.667   4.919
19299WAT      O58138   8.681   2.193   4.437
19299WAT     H158139   8.597   2.181   4.489
19299WAT     H258140   8.673   2.273   4.377
19300WAT      O58141   1.112   1.631   8.605
19300WAT     H158142   1.141   1.620   8.510
19300WAT     H258143   1.028   1.684   8.608
19301WAT      O58144   2.341   5.120   9.755
19301WAT     H158145   2.397   5.198   9.726
19301WAT     H258146   2.290   5.085   9.676
19302WAT      O58147   3.923   3.639   4.946
19302WAT     H158148   3.995   3.573   4.967
19302WAT     H258149   3.855   3.638   5.019
19303WAT      O58150   5.553   6.221   6.289
19303WAT     H158151   5.480   6.266   6.340
19303WAT     H258152   5.530   6.220   6.191
19304WAT      O58153   0.033   8.247   4.763
19304WAT     H158154  -0.062   8.219   4.775
19304WAT     H258155   0.061   8.304   4.840
19305WAT      O58156   8.712   4.184   8.291
19305WAT     H158157   8.788   4.126   8.320
19305WAT     H258158   8.679   4.237   8.368
19306WAT      O58159   5.493   7.058   9.054
19306WAT     H158160   5.589   7.066   9.024
19306WAT     H258161   5.474   7.126   9.125
19307WAT      O58162   8.507   5.222   8.099
19307WAT     H158163   8.530   5.278   8.178
19307WAT     H258164   8.426   5.259   8.054
19308WAT      O58165   6.356   9.676   6.751
19308WAT     H158166   6.315   9.662   6.661
19308WAT     H258167   6.324   9.606   6.814
19309WAT      O58168   0.707   1.051   6.189
19309WAT     H158169   0.629   1.008   6.143
19309WAT     H258170   0.681   1.078   6.281
19310WAT      O58171   7.865   2.236   6.966
19310WAT     H158172   7.818   2.262   6.881
19310WAT     H258173   7.811   2.267   7.044
19311WAT      O58174   7.268   8.148   8.550
19311WAT     H158175   7.220   8.209   8.487
19311WAT     H258176   7.262   8.184   8.643
19312WAT      O58177   9.833   2.400   4.605
19312WAT     H158178   9.773   2.321   4.619
19312WAT     H258179   9.925   2.377   4.635
19313WAT      O58180   2.818   6.516   3.857
19313WAT     H158181   2.734   6.548   3.812
19313WAT     H258182   2.807   6.523   3.956
19314WAT      O58183   4.066   0.692   1.211
19314WAT     H158184   3.994   0.623   1.221
19314WAT     H258185   4.031   0.781   1.241
19315WAT      O58186   0.975   6.693   0.997
19315WAT     H158187   0.984   6.727   0.903
19315WAT     H258188   0.930   6.762   1.054
19316WAT      O58189   9.332   9.192   1.718
19316WAT     H158190   9.242   9.234   1.708
19316WAT     H258191   9.390   9.250   1.775
19317WAT      O58192   4.764   3.294   2.971
19317WAT     H158193   4.730   3.200   2.960
19317WAT     H258194   4.859   3.299   2.939
19318WAT      O58195   3.108   7.902   5.504
19318WAT     H158196   3.057   7.818   5.485
19318WAT     H258197   3.200   7.878   5.536
19319WAT      O58198   0.512   2.318   1.230
19319WAT     H158199   0.531   2.387   1.301
19319WAT     H258200   0.580   2.245   1.235
19320WAT      O58201   1.708   6.249   5.130
19320WAT     H158202   1.624   6.228   5.081
19320WAT     H258203   1.787   6.238   5.070
19321WAT      O58204   7.895   7.287   5.329
19321WAT     H158205   7.895   7.361   5.396
19321WAT     H258206   7.955   7.214   5.360
19322WAT      O58207   0.807   4.662   0.417
19322WAT     H158208   0.833   4.696   0.507
19322WAT     H258209   0.787   4.564   0.424
19323WAT      O58210   4.406   2.643   4.489
19323WAT     H158211   4.379   2.568   4.548
19323WAT     H258212   4.458   2.608   4.411
19324WAT      O58213   3.383   5.571   9.863
19324WAT     H158214   3.371   5.653   9.919
19324WAT     H258215   3.301   5.555   9.809
19325WAT      O58216   5.639   4.426   4.188
19325WAT     H158217   5.644   4.509   4.245
19325WAT     H258218   5.686   4.443   4.101
19326WAT      O58219   8.996   6.079   8.027
19326WAT     H158220   8.974   5.982   8.021
19326WAT     H258221   8.916   6.130   8.059
19327WAT      O58222   0.879   4.055   3.605
19327WAT     H158223   0.810   4.036   3.674
19327WAT     H258224   0.882   3.979   3.540
19328WAT      O58225   7.462   5.235   6.991
19328WAT     H158226   7.506   5.277   6.911
19328WAT     H258227   7.416   5.151   6.963
19329WAT      O58228   8.623   7.289   7.105
19329WAT     H158229   8.584   7.336   7.185
19329WAT     H258230   8.629   7.191   7.124
19330WAT      O58231   4.525   4.806   6.888
19330WAT     H158232   4.450   4.812   6.822
19330WAT     H258233   4.536   4.895   6.934
19331WAT      O58234   8.803   4.905   1.018
19331WAT     H158235   8.859   4.826   1.042
19331WAT     H258236   8.793   4.965   1.097
19332WAT      O58237   8.801   6.089   1.684
19332WAT     H158238   8.710   6.069   1.650
19332WAT     H258239   8.813   6.047   1.774
19333WAT      O58240   6.475   6.824   1.592
19333WAT     H158241   6.467   6.780   1.502
19333WAT     H258242   6.386   6.862   1.618
19334WAT      O58243   4.520   1.555   8.699
19334WAT     H158244   4.596   1.612   8.668
19334WAT     H258245   4.513   1.474   8.640
19335WAT      O58246   9.010   7.170   1.271
19335WAT     H158247   9.051   7.154   1.361
19335WAT     H258248   8.981   7.084   1.231
19336WAT      O58249   9.875   8.987   6.546
19336WAT     H158250   9.898   8.935   6.628
19336WAT     H258251   9.897   9.084   6.561
19337WAT      O58252   8.420   0.267   4.370
19337WAT     H158253   8.360   0.304   4.440
19337WAT     H258254   8.511   0.310   4.378
19338WAT      O58255   1.989   5.939   8.274
19338WAT     H158256   1.974   5.996   8.355
19338WAT     H258257   2.015   5.997   8.197
19339WAT      O58258   9.849   1.575   5.943
19339WAT     H158259   9.770   1.583   6.004
19339WAT     H258260   9.892   1.485   5.956
19340WAT      O58261   5.092   0.325   3.343
19340WAT     H158262   5.094   0.282   3.253
19340WAT     H258263   5.122   0.420   3.335
19341WAT      O58264   0.330   7.230   0.372
19341WAT     H158265   0.293   7.309   0.323
19341WAT     H258266   0.276   7.149   0.350
19342WAT      O58267   4.161   8.968   1.179
19342WAT     H158268   4.224   8.894   1.157
19342WAT     H258269   4.110   8.945   1.262
19343WAT      O58270   5.960   1.335   6.528
19343WAT     H158271   5.956   1.339   6.428
19343WAT     H258272   6.008   1.253   6.557
19344WAT      O58273   0.743   0.077   1.113
19344WAT     H158274   0.813   0.142   1.083
19344WAT     H258275   0.715   0.021   1.035
19345WAT      O58276   1.144   6.337   5.628
19345WAT     H158277   1.117   6.253   5.675
19345WAT     H258278   1.178   6.403   5.696
19346WAT      O58279   4.799   6.370   7.975
19346WAT     H158280   4.874   6.310   8.004
19346WAT     H258281   4.824   6.416   7.890
19347WAT      O58282   0.990   5.575   6.634
19347WAT     H158283   1.058   5.558   6.705
19347WAT     H258284   0.945   5.490   6.610
19348WAT      O58285   5.005   9.457   0.786
19348WAT     H158286   5.078   9.497   0.731
19348WAT     H258287   5.041   9.381   0.840
19349WAT      O58288   7.533   5.527   9.339
19349WAT     H158289   7.475   5.608   9.333
19349WAT     H258290   7.593   5.534   9.418
19350WAT      O58291   1.113   4.133   1.003
19350WAT     H158292   1.081   4.052   0.954
19350WAT     H258293   1.211   4.127   1.018
19351WAT      O58294   5.663   5.128   0.244
19351WAT     H158295   5.620   5.117   0.155
19351WAT     H258296   5.665   5.040   0.291
19352WAT      O58297   5.636   7.684   3.855
19352WAT     H158298   5.723   7.733   3.860
19352WAT     H258299   5.626   7.627   3.937
19353WAT      O58300   9.086   0.484   6.858
19353WAT     H158301   9.168   0.492   6.915
19353WAT     H258302   9.108   0.433   6.775
19354WAT      O58303   9.758   2.229   3.469
19354WAT     H158304   9.806   2.179   3.397
19354WAT     H258305   9.823   2.285   3.520
19355WAT      O58306   3.634   9.485   2.228
19355WAT     H158307   3.718   9.464   2.279
19355WAT     H258308   3.609   9.406   2.171
19356WAT      O58309   5.089   3.936   5.673
19356WAT     H158310   5.107   4.032   5.694
19356WAT     H258311   5.149   3.906   5.598
19357WAT      O58312   9.694   1.245   0.020
19357WAT     H158313   9.782   1.228  -0.025
19357WAT     H258314   9.657   1.333  -0.011
19358WAT      O58315   8.144   2.275   7.975
19358WAT     H158316   8.067   2.212   7.978
19358WAT     H258317   8.202   2.253   7.896
19359WAT      O58318   9.887   6.199   4.069
19359WAT     H158319   9.909   6.131   4.140
19359WAT     H258320   9.888   6.155   3.980
19360WAT      O58321   1.265   1.803   5.807
19360WAT     H158322   1.279   1.891   5.854
19360WAT     H258323   1.313   1.731   5.858
19361WAT      O58324   2.480   7.496   5.859
19361WAT     H158325   2.399   7.554   5.852
19361WAT     H258326   2.541   7.515   5.782
19362WAT      O58327   8.752   6.329   8.590
19362WAT     H158328   8.718   6.398   8.653
19362WAT     H258329   8.844   6.300   8.617
19363WAT      O58330   4.542   6.413   6.414
19363WAT     H158331   4.591   6.500   6.405
19363WAT     H258332   4.552   6.378   6.507
19364WAT      O58333   3.961   3.528   4.010
19364WAT     H158334   3.920   3.618   4.025
19364WAT     H258335   3.908   3.477   3.943
19365WAT      O58336   2.838   1.845   8.225
19365WAT     H158337   2.921   1.896   8.247
19365WAT     H258338   2.798   1.808   8.309
19366WAT      O58339   2.992   4.769   4.558
19366WAT     H158340   2.970   4.746   4.464
19366WAT     H258341   2.927   4.837   4.593
19367WAT      O58342   1.081   7.871   5.596
19367WAT     H158343   1.164   7.920   5.568
19367WAT     H258344   1.050   7.813   5.520
19368WAT      O58345   8.840   4.751   5.074
19368WAT     H158346   8.922   4.730   5.126
19368WAT     H258347   8.800   4.837   5.108
19369WAT      O58348   2.181   9.332   1.742
19369WAT     H158349   2.214   9.255   1.795
19369WAT     H258350   2.150   9.300   1.652
19370WAT      O58351   5.184   9.260   6.015
19370WAT     H158352   5.194   9.193   6.090
19370WAT     H258353   5.107   9.320   6.035
19371WAT      O58354   4.156   7.613   3.161
19371WAT     H158355   4.062   7.586   3.180
19371WAT     H258356   4.198   7.548   3.098
19372WAT      O58357   7.361   0.637   9.772
19372WAT     H158358   7.296   0.696   9.724
19372WAT     H258359   7.396   0.567   9.710
19373WAT      O58360   9.815   0.306   6.286
19373WAT     H158361   9.776   0.349   6.367
19373WAT     H258362   9.883   0.238   6.314
19374WAT      O58363   3.712   9.737   1.257
19374WAT     H158364   3.778   9.811   1.257
19374WAT     H258365   3.719   9.685   1.172
19375WAT      O58366   7.768   5.636   1.311
19375WAT     H158367   7.772   5.639   1.411
19375WAT     H258368   7.850   5.592   1.275
19376WAT      O58369   8.378   6.699   0.824
19376WAT     H158370   8.436   6.658   0.754
19376WAT     H258371   8.433   6.720   0.905
19377WAT      O58372   3.739   5.898   8.779
19377WAT     H158373   3.686   5.864   8.701
19377WAT     H258374   3.726   5.996   8.788
19378WAT      O58375   9.709   0.476   1.671
19378WAT     H158376   9.713   0.379   1.648
19378WAT     H258377   9.619   0.498   1.710
19379WAT      O58378   0.822   1.878   3.021
19379WAT     H158379   0.805   1.784   3.050
19379WAT     H258380   0.878   1.878   2.938
19380WAT      O58381   3.638   3.178   1.055
19380WAT     H158382   3.660   3.141   1.145
19380WAT     H258383   3.539   3.185   1.045
19381WAT      O58384   3.508   7.837   9.351
19381WAT     H158385   3.481   7.844   9.255
19381WAT     H258386   3.434   7.872   9.409
19382WAT      O58387   8.500   8.688   6.017
19382WAT     H158388   8.498   8.704   6.116
19382WAT     H258389   8.560   8.755   5.973
19383WAT      O58390   1.472   0.497   1.887
19383WAT     H158391   1.555   0.508   1.941
19383WAT     H258392   1.403   0.562   1.918
19384WAT      O58393   2.984   0.054   8.205
19384WAT     H158394   2.927   0.088   8.131
19384WAT     H258395   3.064   0.113   8.216
19385WAT      O58396   4.343   1.135   0.379
19385WAT     H158397   4.296   1.167   0.296
19385WAT     H258398   4.380   1.214   0.428
19386WAT      O58399   4.109   5.704   6.929
19386WAT     H158400   4.010   5.718   6.933
19386WAT     H258401   4.133   5.619   6.974
19387WAT      O58402   1.069   8.678   6.215
19387WAT     H158403   1.164   8.703   6.234
19387WAT     H258404   1.053   8.584   6.246
19388WAT      O58405   9.183   1.995   6.242
19388WAT     H158406   9.257   1.939   6.281
19388WAT     H258407   9.177   1.979   6.144
19389WAT      O58408   5.736   2.181   7.328
19389WAT     H158409   5.756   2.275   7.353
19389WAT     H258410   5.782   2.119   7.391
19390WAT      O58411   8.957   4.974   3.527
19390WAT     H158412   8.868   4.930   3.526
19390WAT     H258413   8.955   5.055   3.469
19391WAT      O58414   1.069   8.295   7.373
19391WAT     H158415   1.071   8.311   7.472
19391WAT     H258416   1.029   8.375   7.328
19392WAT      O58417   5.787   1.380   2.607
19392WAT     H158418   5.732   1.410   2.686
19392WAT     H258419   5.884   1.392   2.629
19393WAT      O58420   5.905   3.548   9.069
19393WAT     H158421   5.964   3.504   9.137
19393WAT     H258422   5.873   3.479   9.004
19394WAT      O58423   5.514   2.780   3.635
19394WAT     H158424   5.445   2.851   3.649
19394WAT     H258425   5.543   2.744   3.724
19395WAT      O58426   5.473   2.073   2.285
19395WAT     H158427   5.501   2.026   2.201
19395WAT     H258428   5.419   2.154   2.261
19396WAT      O58429   8.038   6.854   1.547
19396WAT     H158430   8.135   6.857   1.520
19396WAT     H258431   8.009   6.945   1.577
19397WAT      O58432   7.513   1.969   2.234
19397WAT     H158433   7.570   2.040   2.275
19397WAT     H258434   7.443   1.942   2.300
19398WAT      O58435   7.253   4.247   8.329
19398WAT     H158436   7.287   4.224   8.420
19398WAT     H258437   7.162   4.207   8.316
19399WAT      O58438   7.877   1.298   7.282
19399WAT     H158439   7.813   1.345   7.343
19399WAT     H258440   7.970   1.332   7.298
19400WAT      O58441   7.331   8.443   9.555
19400WAT     H158442   7.401   8.505   9.519
19400WAT     H258443   7.243   8.463   9.513
19401WAT      O58444   7.909   9.335   8.246
19401WAT     H158445   7.862   9.347   8.333
19401WAT     H258446   7.893   9.415   8.188
19402WAT      O58447   2.084   1.949   2.288
19402WAT     H158448   2.069   2.044   2.261
19402WAT     H258449   2.161   1.911   2.236
19403WAT      O58450   7.269   0.391   8.994
19403WAT     H158451   7.204   0.367   8.923
19403WAT     H258452   7.329   0.464   8.962
19404WAT      O58453   9.132   7.098   6.110
19404WAT     H158454   9.153   7.195   6.118
19404WAT     H258455   9.042   7.080   6.150
19405WAT      O58456   4.180   8.477   5.380
19405WAT     H158457   4.255   8.505   5.441
19405WAT     H258458   4.176   8.377   5.377
19406WAT      O58459   3.354   5.397   4.977
19406WAT     H158460   3.379   5.336   4.902
19406WAT     H258461   3.341   5.490   4.942
19407WAT      O58462   0.940   9.772   1.416
19407WAT     H158463   0.963   9.744   1.323
19407WAT     H258464   0.850   9.815   1.417
19408WAT      O58465   0.036   3.783   3.947
19408WAT     H158466   0.030   3.698   4.000
19408WAT     H258467   0.009   3.765   3.853
19409WAT      O58468   1.340   1.419   7.221
19409WAT     H158469   1.323   1.355   7.295
19409WAT     H258470   1.384   1.372   7.145
19410WAT      O58471   4.332   1.099   9.696
19410WAT     H158472   4.304   1.010   9.732
19410WAT     H258473   4.251   1.153   9.674
19411WAT      O58474   0.779   7.097   5.702
19411WAT     H158475   0.738   7.009   5.726
19411WAT     H258476   0.765   7.114   5.604
19412WAT      O58477   0.147   5.673   5.201
19412WAT     H158478   0.179   5.660   5.295
19412WAT     H258479   0.216   5.722   5.148
19413WAT      O58480   4.899   1.341   5.619
19413WAT     H158481   4.894   1.333   5.519
19413WAT     H258482   4.935   1.256   5.658
19414WAT      O58483   5.195   3.523   4.626
19414WAT     H158484   5.174   3.551   4.720
19414WAT     H258485   5.228   3.429   4.626
19415WAT      O58486   6.722   7.355   7.812
19415WAT     H158487   6.765   7.278   7.859
19415WAT     H258488   6.776   7.378   7.731
19416WAT      O58489   8.059   2.746   8.410
19416WAT     H158490   8.088   2.835   8.373
19416WAT     H258491   8.118   2.722   8.487
19417WAT      O58492   1.195   5.033   8.713
19417WAT     H158493   1.152   4.943   8.708
19417WAT     H258494   1.213   5.067   8.621
19418WAT      O58495   3.487   8.169   2.769
19418WAT     H158496   3.570   8.164   2.714
19418WAT     H258497   3.511   8.172   2.866
19419WAT      O58498   7.461   1.222   7.219
19419WAT     H158499   7.373   1.242   7.262
19419WAT     H258500   7.482   1.124   7.228
19420WAT      O58501   0.852   2.626   3.543
19420WAT     H158502   0.932   2.681   3.566
19420WAT     H258503   0.857   2.598   3.447
19421WAT      O58504   6.925   0.212   7.822
19421WAT     H158505   6.960   0.304   7.807
19421WAT     H258506   6.838   0.216   7.872
19422WAT      O58507   6.335   7.176   1.547
19422WAT     H158508   6.340   7.103   1.615
19422WAT     H258509   6.395   7.154   1.470
19423WAT      O58510   9.742   9.693   3.520
19423WAT     H158511   9.803   9.614   3.519
19423WAT     H258512   9.734   9.731   3.428
19424WAT      O58513   5.823   8.983   2.136
19424WAT     H158514   5.831   8.907   2.071
19424WAT     H258515   5.733   9.026   2.127
19425WAT      O58516   5.256   2.296   4.089
19425WAT     H158517   5.252   2.247   4.001
19425WAT     H258518   5.165   2.331   4.110
19426WAT      O58519   5.178   9.310   7.195
19426WAT     H158520   5.237   9.295   7.274
19426WAT     H258521   5.194   9.239   7.127
19427WAT      O58522   2.332   8.699   7.552
19427WAT     H158523   2.313   8.603   7.570
19427WAT     H258524   2.284   8.728   7.470
19428WAT      O58525   3.685   8.958   4.416
19428WAT     H158526   3.701   8.966   4.317
19428WAT     H258527   3.598   8.912   4.432
19429WAT      O58528   5.964   1.276   0.906
19429WAT     H158529   6.056   1.275   0.945
19429WAT     H258530   5.963   1.224   0.821
19430WAT      O58531   5.058   3.337   1.784
19430WAT     H158532   4.985   3.405   1.794
19430WAT     H258533   5.117   3.340   1.865
19431WAT      O58534   1.549   5.917   3.447
19431WAT     H158535   1.497   6.002   3.437
19431WAT     H258536   1.522   5.853   3.375
19432WAT      O58537   3.835   7.207   7.080
19432WAT     H158538   3.745   7.248   7.092
19432WAT     H258539   3.835   7.114   7.118
19433WAT      O58540   8.542   1.406   5.972
19433WAT     H158541   8.616   1.470   5.951
19433WAT     H258542   8.554   1.371   6.065
19434WAT      O58543   4.733   4.152   1.105
19434WAT     H158544   4.799   4.165   1.178
19434WAT     H258545   4.781   4.141   1.018
19435WAT      O58546   5.127   5.901   6.605
19435WAT     H158547   5.154   5.878   6.698
19435WAT     H258548   5.207   5.895   6.544
19436WAT      O58549   5.770   7.065   1.088
19436WAT     H158550   5.810   7.086   1.177
19436WAT     H258551   5.707   7.139   1.062
19437WAT      O58552   1.716   2.504   9.629
19437WAT     H158553   1.743   2.590   9.587
19437WAT     H258554   1.753   2.498   9.721
19438WAT      O58555   1.256   3.565   7.780
19438WAT     H158556   1.170   3.535   7.738
19438WAT     H258557   1.272   3.661   7.756
19439WAT      O58558   6.938   2.726   7.014
19439WAT     H158559   6.892   2.760   6.931
19439WAT     H258560   6.888   2.647   7.049
19440WAT      O58561   0.488   9.547   9.086
19440WAT     H158562   0.395   9.514   9.066
19440WAT     H258563   0.483   9.635   9.132
19441WAT      O58564   0.112   0.417   1.018
19441WAT     H158565   0.151   0.482   0.953
19441WAT     H258566   0.043   0.361   0.972
19442WAT      O58567   8.645   7.438   1.116
19442WAT     H158568   8.731   7.442   1.066
19442WAT     H258569   8.663   7.428   1.214
19443WAT      O58570   0.765   6.808   4.778
19443WAT     H158571   0.771   6.838   4.683
19443WAT     H258572   0.829   6.733   4.794
19444WAT      O58573   7.601   9.832   1.120
19444WAT     H158574   7.683   9.786   1.086
19444WAT     H258575   7.600   9.927   1.088
19445WAT      O58576   1.812   7.758   3.432
19445WAT     H158577   1.740   7.776   3.364
19445WAT     H258578   1.797   7.668   3.473
19446WAT      O58579   6.894   6.184   7.516
19446WAT     H158580   6.867   6.092   7.543
19446WAT     H258581   6.978   6.179   7.462
19447WAT      O58582   2.243   4.060   7.789
19447WAT     H158583   2.174   4.127   7.763
19447WAT     H258584   2.204   3.968   7.781
19448WAT      O58585   7.113   4.683   4.418
19448WAT     H158586   7.202   4.683   4.465
19448WAT     H258587   7.087   4.777   4.397
19449WAT      O58588   1.749   2.453   5.459
19449WAT     H158589   1.790   2.367   5.428
19449WAT     H258590   1.820   2.523   5.467
19450WAT      O58591   6.744   7.687   3.870
19450WAT     H158592   6.772   7.638   3.788
19450WAT     H258593   6.819   7.685   3.936
19451WAT      O58594   8.411   0.782   7.711
19451WAT     H158595   8.433   0.868   7.664
19451WAT     H258596   8.424   0.705   7.648
19452WAT      O58597   5.388   7.387   5.269
19452WAT     H158598   5.402   7.288   5.270
19452WAT     H258599   5.291   7.407   5.256
19453WAT      O58600   0.736   7.002   0.420
19453WAT     H158601   0.783   7.084   0.389
19453WAT     H258602   0.640   7.004   0.389
19454WAT      O58603   6.984   3.289   7.038
19454WAT     H158604   6.927   3.339   7.103
19454WAT     H258605   7.079   3.318   7.048
19455WAT      O58606   4.110   0.325   6.958
19455WAT     H158607   4.093   0.375   7.043
19455WAT     H258608   4.120   0.228   6.979
19456WAT      O58609   8.812   6.085   5.984
19456WAT     H158610   8.835   5.988   5.993
19456WAT     H258611   8.718   6.099   6.015
19457WAT      O58612   4.627   0.483   5.967
19457WAT     H158613   4.617   0.547   5.891
19457WAT     H258614   4.697   0.414   5.943
19458WAT      O58615   3.471   3.466   8.563
19458WAT     H158616   3.459   3.514   8.649
19458WAT     H258617   3.449   3.527   8.487
19459WAT      O58618   1.528   6.706   0.621
19459WAT     H158619   1.439   6.723   0.662
19459WAT     H258620   1.568   6.792   0.590
19460WAT      O58621   4.967   7.966   9.282
19460WAT     H158622   5.029   8.045   9.278
19460WAT     H258623   4.984   7.915   9.367
19461WAT      O58624   9.169   2.604   7.273
19461WAT     H158625   9.210   2.677   7.220
19461WAT     H258626   9.079   2.581   7.235
19462WAT      O58627   7.816   4.657   3.226
19462WAT     H158628   7.848   4.751   3.243
19462WAT     H258629   7.894   4.597   3.214
19463WAT      O58630   1.359   6.051   4.365
19463WAT     H158631   1.313   5.969   4.333
19463WAT     H258632   1.292   6.124   4.378
19464WAT      O58633   6.234   9.670   4.172
19464WAT     H158634   6.331   9.671   4.150
19464WAT     H258635   6.221   9.655   4.270
19465WAT      O58636   2.128   6.871   8.490
19465WAT     H158637   2.169   6.795   8.441
19465WAT     H258638   2.196   6.944   8.502
19466WAT      O58639   8.984   5.563   8.855
19466WAT     H158640   8.899   5.509   8.851
19466WAT     H258641   9.062   5.502   8.847
19467WAT      O58642   5.386   6.586   4.661
19467WAT     H158643   5.464   6.606   4.721
19467WAT     H258644   5.398   6.496   4.619
19468WAT      O58645   7.737   9.796   4.462
19468WAT     H158646   7.835   9.812   4.468
19468WAT     H258647   7.717   9.743   4.379
19469WAT      O58648   9.168   2.250   5.421
19469WAT     H158649   9.185   2.331   5.477
19469WAT     H258650   9.120   2.277   5.338
19470WAT      O58651   7.858   0.913   1.257
19470WAT     H158652   7.778   0.877   1.207
19470WAT     H258653   7.854   1.013   1.256
19471WAT      O58654   4.166   2.391   7.947
19471WAT     H158655   4.201   2.461   7.884
19471WAT     H258656   4.242   2.354   8.000
19472WAT      O58657   8.062   2.974   4.049
19472WAT     H158658   8.138   2.930   4.002
19472WAT     H258659   8.056   3.070   4.021
19473WAT      O58660   4.354   0.361   1.357
19473WAT     H158661   4.421   0.361   1.432
19473WAT     H258662   4.344   0.455   1.322
19474WAT      O58663   0.839   7.242   7.457
19474WAT     H158664   0.819   7.152   7.496
19474WAT     H258665   0.930   7.240   7.415
19475WAT      O58666   8.428   0.020   1.478
19475WAT     H158667   8.446   0.074   1.395
19475WAT     H258668   8.333   0.031   1.506
19476WAT      O58669   5.715   0.230   4.315
19476WAT     H158670   5.736   0.144   4.268
19476WAT     H258671   5.639   0.216   4.378
19477WAT      O58672   5.525   0.107   6.073
19477WAT     H158673   5.580   0.034   6.112
19477WAT     H258674   5.507   0.176   6.143
19478WAT      O58675   0.116   1.675   8.587
19478WAT     H158676   0.168   1.592   8.607
19478WAT     H258677   0.177   1.745   8.550
19479WAT      O58678   6.350   1.072   4.960
19479WAT     H158679   6.329   1.000   4.894
19479WAT     H258680   6.402   1.145   4.914
19480WAT      O58681   5.739   8.566   2.874
19480WAT     H158682   5.822   8.523   2.909
19480WAT     H258683   5.762   8.652   2.830
19481WAT      O58684   8.522   6.566   7.909
19481WAT     H158685   8.597   6.631   7.901
19481WAT     H258686   8.544   6.498   7.979
19482WAT      O58687   0.481   7.337   5.067
19482WAT     H158688   0.450   7.291   4.983
19482WAT     H258689   0.469   7.275   5.144
19483WAT      O58690   5.567   3.287   7.879
19483WAT     H158691   5.509   3.346   7.823
19483WAT     H258692   5.537   3.291   7.975
19484WAT      O58693   5.681   5.645   0.383
19484WAT     H158694   5.758   5.674   0.326
19484WAT     H258695   5.674   5.545   0.381
19485WAT      O58696   7.299   0.187   9.449
19485WAT     H158697   7.249   0.214   9.366
19485WAT     H258698   7.326   0.091   9.441
19486WAT      O58699   8.419   0.381   8.259
19486WAT     H158700   8.487   0.349   8.325
19486WAT     H258701   8.381   0.469   8.290
19487WAT      O58702   5.785   8.384   1.335
19487WAT     H158703   5.857   8.433   1.285
19487WAT     H258704   5.735   8.447   1.393
19488WAT      O58705   2.473   6.598   0.112
19488WAT     H158706   2.508   6.677   0.162
19488WAT     H258707   2.543   6.562   0.051
19489WAT      O58708   5.310   6.484   2.337
19489WAT     H158709   5.316   6.566   2.394
19489WAT     H258710   5.284   6.406   2.393
19490WAT      O58711   6.227   7.837   7.653
19490WAT     H158712   6.211   7.910   7.719
19490WAT     H258713   6.299   7.866   7.589
19491WAT      O58714   9.106   2.864   4.906
19491WAT     H158715   9.180   2.928   4.923
19491WAT     H258716   9.134   2.799   4.835
19492WAT      O58717   1.933   7.005   0.427
19492WAT     H158718   1.892   6.977   0.340
19492WAT     H258719   2.024   6.965   0.436
19493WAT      O58720   3.515   9.653   7.686
19493WAT     H158721   3.500   9.717   7.610
19493WAT     H258722   3.497   9.559   7.654
19494WAT      O58723   4.832   3.294   8.234
19494WAT     H158724   4.773   3.253   8.303
19494WAT     H258725   4.817   3.248   8.146
19495WAT      O58726   5.333   9.476   5.525
19495WAT     H158727   5.280   9.437   5.600
19495WAT     H258728   5.426   9.497   5.557
19496WAT      O58729   9.496   8.458   6.208
19496WAT     H158730   9.494   8.513   6.125
19496WAT     H258731   9.578   8.481   6.261
19497WAT      O58732   3.336   4.364   6.200
19497WAT     H158733   3.406   4.365   6.271
19497WAT     H258734   3.324   4.271   6.167
19498WAT      O58735   8.857   3.708   2.938
19498WAT     H158736   8.885   3.629   2.884
19498WAT     H258737   8.761   3.698   2.964
19499WAT      O58738   7.225   6.588   0.915
19499WAT     H158739   7.253   6.523   0.844
19499WAT     H258740   7.304   6.615   0.969
19500WAT      O58741   9.084   9.222   0.916
19500WAT     H158742   9.085   9.130   0.878
19500WAT     H258743   9.122   9.286   0.849
19501WAT      O58744   6.733   8.436   9.833
19501WAT     H158745   6.797   8.359   9.845
19501WAT     H258746   6.784   8.519   9.814
19502WAT      O58747   3.729   3.171   5.501
19502WAT     H158748   3.667   3.101   5.466
19502WAT     H258749   3.695   3.261   5.474
19503WAT      O58750   3.931   4.814   0.567
19503WAT     H158751   4.018   4.808   0.518
19503WAT     H258752   3.866   4.868   0.513
19504WAT      O58753   2.431   6.643   1.494
19504WAT     H158754   2.408   6.641   1.396
19504WAT     H258755   2.354   6.683   1.545
19505WAT      O58756   8.170   8.610   9.571
19505WAT     H158757   8.270   8.606   9.574
19505WAT     H258758   8.135   8.532   9.520
19506WAT      O58759   4.908   2.601   7.495
19506WAT     H158760   4.988   2.541   7.496
19506WAT     H258761   4.837   2.562   7.555
19507WAT      O58762   0.975   8.310   0.985
19507WAT     H158763   1.027   8.252   1.048
19507WAT     H258764   0.895   8.259   0.952
19508WAT      O58765   2.448   0.286   4.874
19508WAT     H158766   2.469   0.215   4.806
19508WAT     H258767   2.394   0.358   4.832
19509WAT      O58768   2.745   8.641   1.945
19509WAT     H158769   2.800   8.650   1.862
19509WAT     H258770   2.803   8.607   2.019
19510WAT      O58771   1.255   4.079   2.961
19510WAT     H158772   1.226   4.160   3.012
19510WAT     H258773   1.181   4.012   2.957
19511WAT      O58774   4.568   3.265   1.151
19511WAT     H158775   4.508   3.333   1.109
19511WAT     H258776   4.649   3.310   1.187
19512WAT      O58777   7.742   1.673   4.559
19512WAT     H158778   7.840   1.661   4.546
19512WAT     H258779   7.694   1.590   4.532
19513WAT      O58780   2.708   0.530   4.521
19513WAT     H158781   2.754   0.542   4.434
19513WAT     H258782   2.768   0.483   4.586
19514WAT      O58783   1.383   8.622   5.937
19514WAT     H158784   1.323   8.702   5.930
19514WAT     H258785   1.346   8.559   6.005
19515WAT      O58786   1.197   1.337   0.815
19515WAT     H158787   1.123   1.367   0.754
19515WAT     H258788   1.226   1.414   0.871
19516WAT      O58789   4.185   0.485   5.941
19516WAT     H158790   4.215   0.398   5.902
19516WAT     H258791   4.201   0.559   5.875
19517WAT      O58792   3.765   4.989   1.462
19517WAT     H158793   3.810   5.027   1.543
19517WAT     H258794   3.821   4.915   1.424
19518WAT      O58795   3.078   3.207   3.375
19518WAT     H158796   3.056   3.109   3.378
19518WAT     H258797   3.059   3.248   3.465
19519WAT      O58798   0.243   9.836   3.928
19519WAT     H158799   0.276   9.762   3.986
19519WAT     H258800   0.186   9.897   3.983
19520WAT      O58801   2.363   2.740   5.498
19520WAT     H158802   2.449   2.789   5.515
19520WAT     H258803   2.302   2.752   5.576
19521WAT      O58804   1.892   2.069   6.823
19521WAT     H158805   1.926   2.164   6.818
19521WAT     H258806   1.952   2.016   6.882
19522WAT      O58807   8.288   3.741   0.715
19522WAT     H158808   8.224   3.675   0.754
19522WAT     H258809   8.341   3.698   0.642
19523WAT      O58810   3.535   5.350   2.914
19523WAT     H158811   3.478   5.304   2.981
19523WAT     H258812   3.630   5.318   2.923
19524WAT      O58813   9.553   5.359   0.491
19524WAT     H158814   9.536   5.287   0.558
19524WAT     H258815   9.643   5.400   0.509
19525WAT      O58816   6.145   8.743   8.626
19525WAT     H158817   6.068   8.683   8.603
19525WAT     H258818   6.121   8.800   8.704
19526WAT      O58819   8.667   4.991   0.549
19526WAT     H158820   8.736   5.063   0.550
19526WAT     H258821   8.601   5.007   0.623
19527WAT      O58822   4.317   3.917   8.906
19527WAT     H158823   4.331   3.973   8.824
19527WAT     H258824   4.267   3.834   8.882
19528WAT      O58825   6.108   6.736   1.918
19528WAT     H158826   6.030   6.674   1.907
19528WAT     H258827   6.083   6.827   1.884
19529WAT      O58828   7.480   1.168   2.868
19529WAT     H158829   7.544   1.141   2.940
19529WAT     H258830   7.450   1.087   2.817
19530WAT      O58831   7.877   8.900   5.725
19530WAT     H158832   7.820   8.818   5.716
19530WAT     H258833   7.973   8.873   5.737
19531WAT      O58834   8.903   4.096   5.693
19531WAT     H158835   8.889   4.029   5.767
19531WAT     H258836   9.001   4.108   5.678
19532WAT      O58837   3.413   0.839   6.051
19532WAT     H158838   3.489   0.903   6.053
19532WAT     H258839   3.408   0.789   6.138
19533WAT      O58840   6.930   5.554   8.122
19533WAT     H158841   7.017   5.517   8.153
19533WAT     H258842   6.914   5.643   8.164
19534WAT      O58843   7.929   3.036   7.236
19534WAT     H158844   7.941   2.939   7.256
19534WAT     H258845   7.892   3.046   7.144
19535WAT      O58846   6.360   3.016   8.110
19535WAT     H158847   6.288   2.959   8.071
19535WAT     H258848   6.440   2.960   8.131
19536WAT      O58849   3.807   9.168   1.281
19536WAT     H158850   3.897   9.193   1.315
19536WAT     H258851   3.816   9.108   1.201
19537WAT      O58852   1.551   0.152   9.515
19537WAT     H158853   1.514   0.164   9.607
19537WAT     H258854   1.500   0.081   9.467
19538WAT      O58855   4.047   5.511   3.168
19538WAT     H158856   4.118   5.575   3.138
19538WAT     H258857   3.957   5.547   3.142
19539WAT      O58858   5.383   5.055   3.625
19539WAT     H158859   5.321   5.133   3.626
19539WAT     H258860   5.470   5.082   3.583
19540WAT      O58861   3.320   9.752   9.780
19540WAT     H158862   3.222   9.771   9.778
19540WAT     H258863   3.336   9.658   9.811
19541WAT      O58864   1.322   5.174   9.360
19541WAT     H158865   1.363   5.258   9.324
19541WAT     H258866   1.242   5.150   9.304
19542WAT      O58867   0.664   4.242   4.914
19542WAT     H158868   0.596   4.214   4.847
19542WAT     H258869   0.636   4.210   5.005
19543WAT      O58870   0.125   9.818   8.069
19543WAT     H158871   0.109   9.863   7.981
19543WAT     H258872   0.206   9.857   8.112
19544WAT      O58873   5.689   9.043   8.690
19544WAT     H158874   5.671   8.975   8.761
19544WAT     H258875   5.606   9.059   8.637
19545WAT      O58876   7.249   8.636   0.771
19545WAT     H158877   7.235   8.539   0.753
19545WAT     H258878   7.167   8.675   0.812
19546WAT      O58879   9.385   1.994   8.988
19546WAT     H158880   9.366   2.092   8.999
19546WAT     H258881   9.445   1.964   9.062
19547WAT      O58882   1.249   3.141   2.106
19547WAT     H158883   1.321   3.072   2.100
19547WAT     H258884   1.228   3.160   2.202
19548WAT      O58885   6.482   1.830   9.092
19548WAT     H158886   6.492   1.814   8.993
19548WAT     H258887   6.549   1.898   9.121
19549WAT      O58888   1.333   0.685   7.613
19549WAT     H158889   1.420   0.734   7.618
19549WAT     H258890   1.337   0.604   7.671
19550WAT      O58891   9.102   7.396   9.049
19550WAT     H158892   9.142   7.379   8.959
19550WAT     H258893   9.152   7.344   9.118
19551WAT      O58894   2.501   5.551   7.438
19551WAT     H158895   2.433   5.478   7.450
19551WAT     H258896   2.591   5.516   7.463
19552WAT      O58897   5.666   7.208   0.404
19552WAT     H158898   5.648   7.138   0.334
19552WAT     H258899   5.743   7.265   0.376
19553WAT      O58900   8.582   9.141   8.946
19553WAT     H158901   8.564   9.239   8.941
19553WAT     H258902   8.497   9.090   8.934
19554WAT      O58903   1.353   4.321   0.245
19554WAT     H158904   1.351   4.236   0.298
19554WAT     H258905   1.386   4.395   0.303
19555WAT      O58906   2.545   0.221   7.070
19555WAT     H158907   2.505   0.251   7.157
19555WAT     H258908   2.610   0.147   7.087
19556WAT      O58909   9.002   2.345   3.339
19556WAT     H158910   9.090   2.372   3.301
19556WAT     H258911   8.994   2.245   3.337
19557WAT      O58912   7.845   4.565   0.972
19557WAT     H158913   7.889   4.523   1.051
19557WAT     H258914   7.870   4.516   0.889
19558WAT      O58915   6.557   9.221   5.357
19558WAT     H158916   6.628   9.288   5.377
19558WAT     H258917   6.600   9.138   5.321
19559WAT      O58918   4.063   5.120   1.425
19559WAT     H158919   4.064   5.217   1.401
19559WAT     H258920   3.975   5.096   1.464
19560WAT      O58921   0.427   6.122   4.535
19560WAT     H158922   0.439   6.219   4.511
19560WAT     H258923   0.458   6.107   4.628
19561WAT      O58924   4.398   4.935   1.601
19561WAT     H158925   4.494   4.921   1.628
19561WAT     H258926   4.366   5.023   1.636
19562WAT      O58927   1.102   4.434   3.638
19562WAT     H158928   1.065   4.391   3.556
19562WAT     H258929   1.192   4.394   3.658
19563WAT      O58930   2.871   6.541   7.532
19563WAT     H158931   2.900   6.629   7.571
19563WAT     H258932   2.869   6.548   7.432
19564WAT      O58933   0.197   7.208   4.694
19564WAT     H158934   0.215   7.155   4.612
19564WAT     H258935   0.128   7.161   4.749
19565WAT      O58936   8.671   1.780   7.989
19565WAT     H158937   8.641   1.872   7.962
19565WAT     H258938   8.744   1.749   7.928
19566WAT      O58939   4.913   5.549   8.727
19566WAT     H158940   5.010   5.550   8.701
19566WAT     H258941   4.860   5.507   8.653
19567WAT      O58942   0.836   7.335   2.881
19567WAT     H158943   0.770   7.401   2.916
19567WAT     H258944   0.896   7.305   2.955
19568WAT      O58945   5.519   8.112   0.594
19568WAT     H158946   5.571   8.063   0.664
19568WAT     H258947   5.472   8.190   0.635
19569WAT      O58948   7.661   6.876   2.418
19569WAT     H158949   7.575   6.874   2.367
19569WAT     H258950   7.737   6.859   2.355
19570WAT      O58951   8.904   7.480   5.769
19570WAT     H158952   8.969   7.474   5.844
19570WAT     H258953   8.890   7.389   5.729
19571WAT      O58954   1.982   0.714   2.302
19571WAT     H158955   1.953   0.734   2.396
19571WAT     H258956   1.967   0.795   2.245
19572WAT      O58957   9.295   6.337   1.014
19572WAT     H158958   9.329   6.243   1.023
19572WAT     H258959   9.331   6.378   0.930
19573WAT      O58960   0.338   0.944   5.062
19573WAT     H158961   0.244   0.955   5.030
19573WAT     H258962   0.356   0.847   5.079
19574WAT      O58963   8.717   6.792   1.383
19574WAT     H158964   8.790   6.738   1.342
19574WAT     H258965   8.684   6.860   1.317
19575WAT      O58966   4.845   0.354   2.166
19575WAT     H158967   4.792   0.399   2.238
19575WAT     H258968   4.938   0.391   2.165
19576WAT      O58969   7.748   5.240   8.565
19576WAT     H158970   7.813   5.165   8.578
19576WAT     H258971   7.792   5.313   8.511
19577WAT      O58972   3.700   1.789   8.290
19577WAT     H158973   3.753   1.711   8.324
19577WAT     H258974   3.693   1.783   8.190
19578WAT      O58975   1.505   7.231   0.272
19578WAT     H158976   1.463   7.250   0.361
19578WAT     H258977   1.506   7.132   0.256
19579WAT      O58978   1.546   2.307   1.318
19579WAT     H158979   1.621   2.277   1.377
19579WAT     H258980   1.498   2.227   1.282
19580WAT      O58981   7.493   7.758   6.931
19580WAT     H158982   7.472   7.737   6.835
19580WAT     H258983   7.583   7.801   6.937
19581WAT      O58984   3.210   6.206   3.148
19581WAT     H158985   3.218   6.107   3.158
19581WAT     H258986   3.183   6.228   3.054
19582WAT      O58987   3.857   9.464   2.977
19582WAT     H158988   3.863   9.526   3.055
19582WAT     H258989   3.861   9.369   3.009
19583WAT      O58990   9.828   5.483   8.360
19583WAT     H158991   9.780   5.491   8.273
19583WAT     H258992   9.925   5.466   8.342
19584WAT      O58993   5.870   5.383   8.977
19584WAT     H158994   5.966   5.360   8.959
19584WAT     H258995   5.813   5.344   8.904
19585WAT      O58996   0.892   2.864   4.327
19585WAT     H158997   0.841   2.778   4.323
19585WAT     H258998   0.832   2.940   4.301
19586WAT      O58999   0.204   9.706   3.705
19586WAT     H159000   0.274   9.635   3.691
19586WAT     H259001   0.221   9.752   3.792
19587WAT      O59002   3.858   2.857   0.730
19587WAT     H159003   3.908   2.778   0.766
19587WAT     H259004   3.876   2.937   0.787
19588WAT      O59005   8.530   7.853   7.038
19588WAT     H159006   8.432   7.843   7.020
19588WAT     H259007   8.548   7.837   7.135
19589WAT      O59008   8.474   4.777   8.198
19589WAT     H159009   8.473   4.685   8.159
19589WAT     H259010   8.385   4.799   8.236
19590WAT      O59011   5.191   4.995   0.194
19590WAT     H159012   5.241   5.039   0.268
19590WAT     H259013   5.248   4.923   0.153
19591WAT      O59014   9.011   0.735   9.682
19591WAT     H159015   9.021   0.645   9.640
19591WAT     H259016   9.096   0.787   9.670
19592WAT      O59017   9.678   2.997   7.526
19592WAT     H159018   9.660   2.913   7.474
19592WAT     H259019   9.684   2.975   7.623
19593WAT      O59020   7.599   0.438   6.772
19593WAT     H159021   7.674   0.372   6.775
19593WAT     H259022   7.574   0.464   6.865
19594WAT      O59023   1.335   2.127   7.604
19594WAT     H159024   1.418   2.099   7.557
19594WAT     H259025   1.358   2.184   7.684
19595WAT      O59026   4.152   0.406   1.112
19595WAT     H159027   4.217   0.340   1.074
19595WAT     H259028   4.170   0.496   1.072
19596WAT      O59029   8.138   6.215   6.779
19596WAT     H159030   8.049   6.177   6.755
19596WAT     H259031   8.210   6.158   6.739
19597WAT      O59032   5.213   7.063   7.327
19597WAT     H159033   5.278   7.133   7.358
19597WAT     H259034   5.138   7.057   7.393
19598WAT      O59035   9.637   7.982   6.828
19598WAT     H159036   9.665   7.971   6.923
19598WAT     H259037   9.715   7.965   6.768
19599WAT      O59038   7.342   4.508   1.004
19599WAT     H159039   7.258   4.458   1.026
19599WAT     H259040   7.376   4.478   0.914
19600WAT      O59041   3.638   1.763   6.973
19600WAT     H159042   3.694   1.682   6.989
19600WAT     H259043   3.543   1.736   6.959
19601WAT      O59044   3.976   4.554   9.530
19601WAT     H159045   3.966   4.469   9.582
19601WAT     H259046   4.072   4.577   9.522
19602WAT      O59047   4.244   0.401   9.619
19602WAT     H159048   4.300   0.413   9.537
19602WAT     H259049   4.298   0.354   9.689
19603WAT      O59050   2.118   7.388   4.724
19603WAT     H159051   2.201   7.339   4.748
19603WAT     H259052   2.065   7.335   4.658
19604WAT      O59053   8.762   3.572   2.592
19604WAT     H159054   8.842   3.600   2.539
19604WAT     H259055   8.792   3.528   2.677
19605WAT      O59056   1.892   7.173   1.058
19605WAT     H159057   1.910   7.231   0.979
19605WAT     H259058   1.883   7.231   1.140
19606WAT      O59059   9.740   9.755   7.223
19606WAT     H159060   9.651   9.778   7.263
19606WAT     H259061   9.764   9.824   7.155
19607WAT      O59062   5.725   0.475   5.026
19607WAT     H159063   5.736   0.410   5.100
19607WAT     H259064   5.743   0.430   4.939
19608WAT      O59065   0.537   4.246   5.380
19608WAT     H159066   0.599   4.324   5.389
19608WAT     H259067   0.460   4.256   5.443
19609WAT      O59068   4.737   5.315   6.066
19609WAT     H159069   4.775   5.361   5.985
19609WAT     H259070   4.808   5.262   6.111
19610WAT      O59071   2.761   1.906   0.047
19610WAT     H159072   2.670   1.923   0.084
19610WAT     H259073   2.829   1.916   0.119
19611WAT      O59074   6.282   0.070   8.879
19611WAT     H159075   6.323   0.139   8.820
19611WAT     H259076   6.188   0.053   8.851
19612WAT      O59077   7.696   1.441   6.868
19612WAT     H159078   7.617   1.464   6.924
19612WAT     H259079   7.703   1.504   6.791
19613WAT      O59080   8.578   5.490   0.953
19613WAT     H159081   8.641   5.484   0.875
19613WAT     H259082   8.622   5.541   1.027
19614WAT      O59083   1.992   3.144   4.781
19614WAT     H159084   2.083   3.112   4.756
19614WAT     H259085   1.928   3.067   4.778
19615WAT      O59086   2.177   5.051   9.489
19615WAT     H159087   2.120   5.050   9.408
19615WAT     H259088   2.261   5.000   9.470
19616WAT      O59089   9.172   2.731   6.520
19616WAT     H159090   9.167   2.830   6.519
19616WAT     H259091   9.255   2.701   6.566
19617WAT      O59092   1.677   4.019   3.359
19617WAT     H159093   1.605   3.980   3.302
19617WAT     H259094   1.644   4.102   3.404
19618WAT      O59095   2.492   8.408   0.327
19618WAT     H159096   2.536   8.426   0.415
19618WAT     H259097   2.553   8.437   0.253
19619WAT      O59098   6.556   7.751   9.695
19619WAT     H159099   6.591   7.844   9.691
19619WAT     H259100   6.619   7.689   9.649
19620WAT      O59101   3.521   5.933   4.640
19620WAT     H159102   3.493   5.929   4.736
19620WAT     H259103   3.518   6.027   4.608
19621WAT      O59104   8.762   4.485   8.179
19621WAT     H159105   8.725   4.567   8.133
19621WAT     H259106   8.705   4.406   8.156
19622WAT      O59107   7.506   1.223   2.256
19622WAT     H159108   7.497   1.197   2.159
19622WAT     H259109   7.575   1.295   2.264
19623WAT      O59110   8.832   3.332   1.516
19623WAT     H159111   8.889   3.295   1.442
19623WAT     H259112   8.870   3.418   1.548
19624WAT      O59113   3.227   8.083   3.403
19624WAT     H159114   3.232   7.989   3.436
19624WAT     H259115   3.203   8.144   3.478
19625WAT      O59116   7.890   0.234   9.062
19625WAT     H159117   7.888   0.303   8.990
19625WAT     H259118   7.810   0.245   9.121
19626WAT      O59119   6.574   5.711   9.075
19626WAT     H159120   6.607   5.804   9.062
19626WAT     H259121   6.474   5.711   9.074
19627WAT      O59122   9.558   4.136   1.446
19627WAT     H159123   9.574   4.046   1.485
19627WAT     H259124   9.645   4.177   1.418
19628WAT      O59125   0.307   1.709   2.872
19628WAT     H159126   0.351   1.620   2.875
19628WAT     H259127   0.214   1.700   2.837
19629WAT      O59128   0.305   3.585   6.014
19629WAT     H159129   0.342   3.542   5.932
19629WAT     H259130   0.367   3.657   6.045
19630WAT      O59131   0.962   9.790   7.192
19630WAT     H159132   1.019   9.789   7.109
19630WAT     H259133   0.921   9.700   7.205
19631WAT      O59134   0.046   1.120   4.406
19631WAT     H159135  -0.048   1.154   4.407
19631WAT     H259136   0.047   1.028   4.367
19632WAT      O59137   9.281   8.879   0.506
19632WAT     H159138   9.366   8.901   0.554
19632WAT     H259139   9.238   8.801   0.550
19633WAT      O59140   4.903   5.977   3.280
19633WAT     H159141   4.955   5.993   3.364
19633WAT     H259142   4.903   5.880   3.258
19634WAT      O59143   1.088   6.954   2.412
19634WAT     H159144   1.022   7.016   2.372
19634WAT     H259145   1.042   6.869   2.439
19635WAT      O59146   7.157   1.791   3.097
19635WAT     H159147   7.149   1.891   3.103
19635WAT     H259148   7.075   1.749   3.136
19636WAT      O59149   0.613   8.116   4.619
19636WAT     H159150   0.665   8.184   4.567
19636WAT     H259151   0.543   8.076   4.560
19637WAT      O59152   8.229   5.669   3.688
19637WAT     H159153   8.142   5.717   3.690
19637WAT     H259154   8.285   5.698   3.765
19638WAT      O59155   5.353   3.154   0.122
19638WAT     H159156   5.352   3.207   0.207
19638WAT     H259157   5.448   3.135   0.096
19639WAT      O59158   6.701   8.795   4.620
19639WAT     H159159   6.608   8.768   4.594
19639WAT     H259160   6.716   8.891   4.596
19640WAT      O59161   9.676   6.089   4.346
19640WAT     H159162   9.723   6.101   4.258
19640WAT     H259163   9.744   6.073   4.418
19641WAT      O59164   6.347   0.898   3.857
19641WAT     H159165   6.383   0.984   3.894
19641WAT     H259166   6.268   0.870   3.911
19642WAT      O59167   9.590   0.866   7.242
19642WAT     H159168   9.673   0.919   7.263
19642WAT     H259169   9.593   0.836   7.147
19643WAT      O59170   8.119   2.790   0.277
19643WAT     H159171   8.202   2.844   0.264
19643WAT     H259172   8.039   2.843   0.247
19644WAT      O59173   0.033   3.506   7.948
19644WAT     H159174  -0.050   3.558   7.966
19644WAT     H259175   0.023   3.455   7.863
19645WAT      O59176   0.173   7.962   4.857
19645WAT     H159177   0.267   7.950   4.889
19645WAT     H259178   0.172   8.024   4.779
19646WAT      O59179   6.889   9.138   8.248
19646WAT     H159180   6.901   9.236   8.231
19646WAT     H259181   6.806   9.124   8.303
19647WAT      O59182   4.532   7.945   6.636
19647WAT     H159183   4.454   7.947   6.574
19647WAT     H259184   4.500   7.953   6.730
19648WAT      O59185   2.529   9.626   5.127
19648WAT     H159186   2.584   9.683   5.189
19648WAT     H259187   2.442   9.672   5.109
19649WAT      O59188   8.253   7.853   5.812
19649WAT     H159189   8.332   7.795   5.832
19649WAT     H259190   8.194   7.857   5.892
19650WAT      O59191   5.175   4.963   6.039
19650WAT     H159192   5.238   5.041   6.042
19650WAT     H259193   5.220   4.882   6.077
19651WAT      O59194   4.487   3.993   3.568
19651WAT     H159195   4.481   4.092   3.555
19651WAT     H259196   4.463   3.971   3.663
19652WAT      O59197   8.261   7.433   4.843
19652WAT     H159198   8.286   7.377   4.764
19652WAT     H259199   8.251   7.374   4.923
19653WAT      O59200   5.156   5.306   9.568
19653WAT     H159201   5.120   5.318   9.476
19653WAT     H259202   5.235   5.367   9.581
19654WAT      O59203   3.061   4.826   8.261
19654WAT     H159204   3.046   4.729   8.279
19654WAT     H259205   3.003   4.855   8.186
19655WAT      O59206   8.220   0.399   5.735
19655WAT     H159207   8.149   0.366   5.672
19655WAT     H259208   8.243   0.327   5.800
19656WAT      O59209   2.125   0.634   9.265
19656WAT     H159210   2.044   0.597   9.219
19656WAT     H259211   2.177   0.690   9.201
19657WAT      O59212   8.656   6.947   1.155
19657WAT     H159213   8.607   6.866   1.124
19657WAT     H259214   8.592   7.024   1.160
19658WAT      O59215   4.595   7.008   7.954
19658WAT     H159216   4.639   7.090   7.989
19658WAT     H259217   4.620   6.929   8.010
19659WAT      O59218   8.845   5.824   6.025
19659WAT     H159219   8.752   5.789   6.016
19659WAT     H259220   8.890   5.778   6.102
19660WAT      O59221   8.858   0.065   5.023
19660WAT     H159222   8.857  -0.034   5.035
19660WAT     H259223   8.791   0.091   4.953
19661WAT      O59224   1.403   2.790   1.349
19661WAT     H159225   1.399   2.696   1.381
19661WAT     H259226   1.318   2.813   1.302
19662WAT      O59227   4.250   7.783   8.144
19662WAT     H159228   4.323   7.819   8.201
19662WAT     H259229   4.238   7.686   8.161
19663WAT      O59230   4.302   7.071   0.689
19663WAT     H159231   4.295   7.141   0.761
19663WAT     H259232   4.350   6.991   0.725
19664WAT      O59233   9.087   5.993   3.189
19664WAT     H159234   9.108   5.901   3.225
19664WAT     H259235   9.066   5.986   3.092
19665WAT      O59236   7.193   5.856   2.464
19665WAT     H159237   7.103   5.875   2.424
19665WAT     H259238   7.191   5.767   2.510
19666WAT      O59239   6.459   6.663   1.389
19666WAT     H159240   6.536   6.620   1.342
19666WAT     H259241   6.388   6.686   1.322
19667WAT      O59242   2.695   9.023   9.161
19667WAT     H159243   2.735   9.006   9.071
19667WAT     H259244   2.752   9.087   9.211
19668WAT      O59245   1.066   2.185   0.419
19668WAT     H159246   1.100   2.279   0.422
19668WAT     H259247   1.080   2.143   0.509
19669WAT      O59248   3.525   0.505   6.808
19669WAT     H159249   3.506   0.421   6.757
19669WAT     H259250   3.606   0.550   6.769
19670WAT      O59251   3.879   7.010   1.333
19670WAT     H159252   3.903   6.979   1.241
19670WAT     H259253   3.939   7.085   1.359
19671WAT      O59254   8.763   3.337   2.214
19671WAT     H159255   8.718   3.359   2.300
19671WAT     H259256   8.844   3.282   2.232
19672WAT      O59257   7.379   8.326   4.830
19672WAT     H159258   7.446   8.390   4.792
19672WAT     H259259   7.425   8.241   4.855
19673WAT      O59260   2.367   1.480   1.660
19673WAT     H159261   2.396   1.447   1.570
19673WAT     H259262   2.447   1.513   1.711
19674WAT      O59263   0.081   6.769   8.443
19674WAT     H159264   0.039   6.679   8.428
19674WAT     H259265   0.168   6.773   8.394
19675WAT      O59266   8.841   8.859   9.096
19675WAT     H159267   8.778   8.850   9.019
19675WAT     H259268   8.866   8.955   9.108
19676WAT      O59269   7.988   9.419   6.421
19676WAT     H159270   8.009   9.475   6.341
19676WAT     H259271   7.895   9.438   6.453
19677WAT      O59272   1.134   5.296   5.171
19677WAT     H159273   1.228   5.275   5.196
19677WAT     H259274   1.133   5.344   5.083
19678WAT      O59275   0.050   6.685   3.199
19678WAT     H159276  -0.027   6.674   3.262
19678WAT     H259277   0.135   6.658   3.245
19679WAT      O59278   7.224   5.140   8.597
19679WAT     H159279   7.316   5.141   8.637
19679WAT     H259280   7.214   5.059   8.539
19680WAT      O59281   5.546   8.746   9.259
19680WAT     H159282   5.564   8.653   9.228
19680WAT     H259283   5.631   8.799   9.258
19681WAT      O59284   8.707   4.490   4.290
19681WAT     H159285   8.779   4.510   4.356
19681WAT     H259286   8.652   4.572   4.276
19682WAT      O59287   6.461   9.070   9.257
19682WAT     H159288   6.477   9.160   9.217
19682WAT     H259289   6.539   9.010   9.237
19683WAT      O59290   1.693   2.618   2.099
19683WAT     H159291   1.676   2.659   2.189
19683WAT     H259292   1.740   2.684   2.040
19684WAT      O59293   0.504   4.823   3.790
19684WAT     H159294   0.521   4.814   3.692
19684WAT     H259295   0.583   4.867   3.834
19685WAT      O59296   1.764   3.683   2.458
19685WAT     H159297   1.754   3.772   2.501
19685WAT     H259298   1.855   3.675   2.418
19686WAT      O59299   7.583   6.193   7.020
19686WAT     H159300   7.675   6.231   7.008
19686WAT     H259301   7.518   6.245   6.964
19687WAT      O59302   5.856   0.715   8.662
19687WAT     H159303   5.878   0.765   8.745
19687WAT     H259304   5.779   0.760   8.616
19688WAT      O59305   1.186   4.298   9.522
19688WAT     H159306   1.136   4.272   9.440
19688WAT     H259307   1.156   4.389   9.551
19689WAT      O59308   4.717   8.838   5.824
19689WAT     H159309   4.671   8.813   5.739
19689WAT     H259310   4.815   8.842   5.809
19690WAT      O59311   5.525   3.410   7.465
19690WAT     H159312   5.550   3.456   7.551
19690WAT     H259313   5.555   3.466   7.388
19691WAT      O59314   9.814   2.286   7.372
19691WAT     H159315   9.824   2.244   7.462
19691WAT     H259316   9.893   2.262   7.315
19692WAT      O59317   6.765   0.163   9.096
19692WAT     H159318   6.839   0.180   9.160
19692WAT     H259319   6.684   0.215   9.124
19693WAT      O59320   7.449   0.297   3.276
19693WAT     H159321   7.362   0.280   3.229
19693WAT     H259322   7.522   0.245   3.232
19694WAT      O59323   4.298   6.318   2.881
19694WAT     H159324   4.257   6.357   2.963
19694WAT     H259325   4.386   6.361   2.864
19695WAT      O59326   7.690   3.677   9.490
19695WAT     H159327   7.637   3.602   9.452
19695WAT     H259328   7.787   3.653   9.490
19696WAT      O59329   8.704   3.869   9.170
19696WAT     H159330   8.764   3.947   9.191
19696WAT     H259331   8.655   3.842   9.253
19697WAT      O59332   8.757   2.059   2.437
19697WAT     H159333   8.782   2.154   2.420
19697WAT     H259334   8.705   2.052   2.522
19698WAT      O59335   3.217   1.180   9.878
19698WAT     H159336   3.269   1.168   9.793
19698WAT     H259337   3.176   1.094   9.905
19699WAT      O59338   1.135   7.018   1.663
19699WAT     H159339   1.113   7.113   1.640
19699WAT     H259340   1.087   6.992   1.746
19700WAT      O59341   1.628   2.815   4.168
19700WAT     H159342   1.531   2.792   4.165
19700WAT     H259343   1.665   2.818   4.076
19701WAT      O59344   2.831   9.361   5.783
19701WAT     H159345   2.921   9.371   5.827
19701WAT     H259346   2.774   9.299   5.836
19702WAT      O59347   4.148   4.870   5.561
19702WAT     H159348   4.247   4.860   5.557
19702WAT     H259349   4.118   4.866   5.656
19703WAT      O59350   1.808   5.818   9.557
19703WAT     H159351   1.892   5.872   9.549
19703WAT     H259352   1.735   5.875   9.594
19704WAT      O59353   8.585   3.745   1.656
19704WAT     H159354   8.501   3.792   1.628
19704WAT     H259355   8.581   3.649   1.628
19705WAT      O59356   4.817   8.713   7.750
19705WAT     H159357   4.722   8.679   7.748
19705WAT     H259358   4.858   8.694   7.839
19706WAT      O59359   4.520   3.234   8.868
19706WAT     H159360   4.612   3.233   8.908
19706WAT     H259361   4.520   3.290   8.785
19707WAT      O59362   8.855   9.756   1.683
19707WAT     H159363   8.897   9.805   1.607
19707WAT     H259364   8.803   9.820   1.740
19708WAT      O59365   3.337   2.843   5.536
19708WAT     H159366   3.296   2.898   5.463
19708WAT     H259367   3.396   2.901   5.592
19709WAT      O59368   6.293   1.181   0.162
19709WAT     H159369   6.369   1.221   0.112
19709WAT     H259370   6.212   1.238   0.150
19710WAT      O59371   8.088   1.768   3.046
19710WAT     H159372   7.999   1.746   3.007
19710WAT     H259373   8.081   1.852   3.101
19711WAT      O59374   3.974   0.756   0.825
19711WAT     H159375   4.059   0.711   0.851
19711WAT     H259376   3.897   0.709   0.869
19712WAT      O59377   9.270   3.363   1.259
19712WAT     H159378   9.233   3.424   1.190
19712WAT     H259379   9.205   3.356   1.335
19713WAT      O59380   1.977   5.929   4.482
19713WAT     H159381   1.951   5.840   4.444
19713WAT     H259382   2.072   5.949   4.459
19714WAT      O59383   3.249   7.879   3.857
19714WAT     H159384   3.292   7.819   3.924
19714WAT     H259385   3.178   7.933   3.902
19715WAT      O59386   5.350   7.209   4.598
19715WAT     H159387   5.342   7.236   4.694
19715WAT     H259388   5.268   7.238   4.548
19716WAT      O59389   7.594   5.300   6.725
19716WAT     H159390   7.693   5.305   6.710
19716WAT     H259391   7.551   5.385   6.694
19717WAT      O59392   2.152   2.320   3.164
19717WAT     H159393   2.244   2.338   3.197
19717WAT     H259394   2.149   2.230   3.121
19718WAT      O59395   4.469   6.972   6.803
19718WAT     H159396   4.431   6.926   6.722
19718WAT     H259397   4.568   6.965   6.802
19719WAT      O59398   3.725   5.032   2.336
19719WAT     H159399   3.700   4.953   2.391
19719WAT     H259400   3.763   5.001   2.249
19720WAT      O59401   9.557   3.002   6.621
19720WAT     H159402   9.496   3.068   6.576
19720WAT     H259403   9.540   3.003   6.719
19721WAT      O59404   2.111   5.062   1.025
19721WAT     H159405   2.161   5.037   1.108
19721WAT     H259406   2.055   4.984   0.996
19722WAT      O59407   8.477   7.073   4.500
19722WAT     H159408   8.411   7.121   4.442
19722WAT     H259409   8.570   7.091   4.467
19723WAT      O59410   9.273   9.808   0.650
19723WAT     H159411   9.314   9.754   0.577
19723WAT     H259412   9.217   9.881   0.611
19724WAT      O59413   7.456   5.051   6.655
19724WAT     H159414   7.491   5.145   6.649
19724WAT     H259415   7.434   5.018   6.563
19725WAT      O59416   3.359   4.777   2.431
19725WAT     H159417   3.340   4.832   2.513
19725WAT     H259418   3.458   4.766   2.421
19726WAT      O59419   1.973   6.854   2.743
19726WAT     H159420   2.016   6.872   2.655
19726WAT     H259421   1.957   6.756   2.753
19727WAT      O59422   5.216   3.145   0.478
19727WAT     H159423   5.214   3.049   0.448
19727WAT     H259424   5.308   3.183   0.463
19728WAT      O59425   8.635   1.130   2.908
19728WAT     H159426   8.595   1.163   2.994
19728WAT     H259427   8.605   1.037   2.891
19729WAT      O59428   7.981   8.611   8.261
19729WAT     H159429   8.052   8.597   8.191
19729WAT     H259430   8.024   8.622   8.350
19730WAT      O59431   6.650   8.943   9.110
19730WAT     H159432   6.710   8.973   9.036
19730WAT     H259433   6.613   8.853   9.089
19731WAT      O59434   3.428   1.702   8.942
19731WAT     H159435   3.506   1.740   8.993
19731WAT     H259436   3.460   1.629   8.882
19732WAT      O59437   9.502   7.300   2.786
19732WAT     H159438   9.497   7.204   2.811
19732WAT     H259439   9.525   7.308   2.688
19733WAT      O59440   0.923   8.437   2.632
19733WAT     H159441   0.959   8.420   2.540
19733WAT     H259442   0.979   8.506   2.678
19734WAT      O59443   5.591   5.004   7.862
19734WAT     H159444   5.647   5.015   7.780
19734WAT     H259445   5.532   5.084   7.874
19735WAT      O59446   0.965   5.068   4.345
19735WAT     H159447   1.020   4.987   4.326
19735WAT     H259448   0.914   5.094   4.263
19736WAT      O59449   7.346   9.108   3.028
19736WAT     H159450   7.320   9.094   2.933
19736WAT     H259451   7.280   9.169   3.072
19737WAT      O59452   0.771   9.574   6.849
19737WAT     H159453   0.840   9.530   6.791
19737WAT     H259454   0.725   9.504   6.905
19738WAT      O59455   5.878   4.895   2.245
19738WAT     H159456   5.910   4.871   2.336
19738WAT     H259457   5.945   4.866   2.177
19739WAT      O59458   4.877   7.594   6.021
19739WAT     H159459   4.943   7.654   6.066
19739WAT     H259460   4.788   7.604   6.064
19740WAT      O59461   5.283   5.841   1.713
19740WAT     H159462   5.230   5.788   1.780
19740WAT     H259463   5.310   5.928   1.753
19741WAT      O59464   1.637   3.711   7.866
19741WAT     H159465   1.628   3.715   7.767
19741WAT     H259466   1.664   3.619   7.894
19742WAT      O59467   7.469   4.378   2.770
19742WAT     H159468   7.395   4.408   2.830
19742WAT     H259469   7.497   4.285   2.794
19743WAT      O59470   7.341   4.588   7.476
19743WAT     H159471   7.365   4.494   7.453
19743WAT     H259472   7.392   4.617   7.557
19744WAT      O59473   9.816   9.436   8.521
19744WAT     H159474   9.914   9.447   8.507
19744WAT     H259475   9.766   9.480   8.446
19745WAT      O59476   6.421   7.582   1.639
19745WAT     H159477   6.475   7.508   1.679
19745WAT     H259478   6.474   7.667   1.643
19746WAT      O59479   6.833   7.429   7.580
19746WAT     H159480   6.743   7.420   7.537
19746WAT     H259481   6.868   7.521   7.564
19747WAT      O59482   8.100   0.869   4.083
19747WAT     H159483   8.095   0.968   4.083
19747WAT     H259484   8.196   0.840   4.083
19748WAT      O59485   9.071   5.099   8.195
19748WAT     H159486   9.115   5.128   8.111
19748WAT     H259487   8.975   5.079   8.177
19749WAT      O59488   5.896   2.265   4.283
19749WAT     H159489   5.877   2.356   4.246
19749WAT     H259490   5.957   2.216   4.220
19750WAT      O59491   6.446   4.552   9.835
19750WAT     H159492   6.511   4.496   9.887
19750WAT     H259493   6.431   4.511   9.745
19751WAT      O59494   9.512   3.806   1.662
19751WAT     H159495   9.415   3.816   1.684
19751WAT     H259496   9.523   3.798   1.563
19752WAT      O59497   6.292   5.205   7.201
19752WAT     H159498   6.391   5.194   7.189
19752WAT     H259499   6.258   5.135   7.265
19753WAT      O59500   5.182   9.060   8.012
19753WAT     H159501   5.102   9.115   7.989
19753WAT     H259502   5.260   9.120   8.032
19754WAT      O59503   2.573   3.819   1.782
19754WAT     H159504   2.606   3.911   1.800
19754WAT     H259505   2.509   3.792   1.854
19755WAT      O59506   5.301   4.552   0.345
19755WAT     H159507   5.265   4.563   0.438
19755WAT     H259508   5.381   4.492   0.347
19756WAT      O59509   4.087   1.249   1.933
19756WAT     H159510   4.030   1.208   2.004
19756WAT     H259511   4.117   1.339   1.962
19757WAT      O59512   1.857   3.859   8.758
19757WAT     H159513   1.951   3.832   8.776
19757WAT     H259514   1.852   3.910   8.672
19758WAT      O59515   7.385   0.433   7.054
19758WAT     H159516   7.369   0.378   7.136
19758WAT     H259517   7.314   0.413   6.986
19759WAT      O59518   0.880   0.107   2.262
19759WAT     H159519   0.783   0.095   2.241
19759WAT     H259520   0.890   0.127   2.360
19760WAT      O59521   0.991   1.233   9.396
19760WAT     H159522   0.937   1.275   9.322
19760WAT     H259523   1.053   1.302   9.434
19761WAT      O59524   8.046   7.741   2.572
19761WAT     H159525   8.000   7.728   2.660
19761WAT     H259526   8.097   7.827   2.573
19762WAT      O59527   8.867   3.036   0.874
19762WAT     H159528   8.920   2.962   0.917
19762WAT     H259529   8.832   3.097   0.945
19763WAT      O59530   3.899   3.554   2.321
19763WAT     H159531   3.917   3.648   2.290
19763WAT     H259532   3.965   3.492   2.279
19764WAT      O59533   7.351   1.369   5.978
19764WAT     H159534   7.363   1.316   5.894
19764WAT     H259535   7.269   1.337   6.027
19765WAT      O59536   3.025   7.791   9.821
19765WAT     H159537   3.123   7.789   9.836
19765WAT     H259538   2.995   7.702   9.785
19766WAT      O59539   4.987   3.230   3.729
19766WAT     H159540   5.052   3.253   3.801
19766WAT     H259541   4.904   3.286   3.740
19767WAT      O59542   9.499   5.719   8.256
19767WAT     H159543   9.553   5.651   8.207
19767WAT     H259544   9.538   5.734   8.347
19768WAT      O59545   5.812   2.809   5.590
19768WAT     H159546   5.857   2.876   5.649
19768WAT     H259547   5.819   2.718   5.631
19769WAT      O59548   7.180   0.058   7.068
19769WAT     H159549   7.161   0.131   7.134
19769WAT     H259550   7.279   0.046   7.061
19770WAT      O59551   5.961   9.808   2.796
19770WAT     H159552   5.931   9.765   2.881
19770WAT     H259553   5.910   9.893   2.781
19771WAT      O59554   4.958   3.772   2.995
19771WAT     H159555   4.945   3.795   3.092
19771WAT     H259556   4.894   3.826   2.940
19772WAT      O59557   4.651   9.031   3.855
19772WAT     H159558   4.607   8.943   3.871
19772WAT     H259559   4.585   9.105   3.868
19773WAT      O59560   1.043   2.417   2.570
19773WAT     H159561   1.019   2.386   2.478
19773WAT     H259562   1.110   2.491   2.564
19774WAT      O59563   5.822   6.094   8.457
19774WAT     H159564   5.838   5.996   8.467
19774WAT     H259565   5.726   6.114   8.480
19775WAT      O59566   2.931   3.427   7.272
19775WAT     H159567   3.020   3.447   7.313
19775WAT     H259568   2.942   3.416   7.173
19776WAT      O59569   3.894   5.643   0.776
19776WAT     H159570   3.804   5.624   0.814
19776WAT     H259571   3.886   5.713   0.706
19777WAT      O59572   8.157   7.814   3.399
19777WAT     H159573   8.207   7.772   3.474
19777WAT     H259574   8.165   7.756   3.317
19778WAT      O59575   9.540   6.237   7.846
19778WAT     H159576   9.539   6.303   7.922
19778WAT     H259577   9.468   6.260   7.782
19779WAT      O59578   9.207   2.096   3.259
19779WAT     H159579   9.249   2.016   3.217
19779WAT     H259580   9.218   2.175   3.198
19780WAT      O59581   1.762   7.490   4.495
19780WAT     H159582   1.732   7.499   4.591
19780WAT     H259583   1.735   7.400   4.461
19781WAT      O59584   9.834   3.328   7.764
19781WAT     H159585   9.749   3.298   7.808
19781WAT     H259586   9.890   3.248   7.741
19782WAT      O59587   9.492   5.332   5.590
19782WAT     H159588   9.587   5.304   5.606
19782WAT     H259589   9.440   5.256   5.552
19783WAT      O59590   8.700   5.961   0.216
19783WAT     H159591   8.672   5.912   0.299
19783WAT     H259592   8.727   6.055   0.240
19784WAT      O59593   0.144   5.667   3.162
19784WAT     H159594   0.061   5.627   3.202
19784WAT     H259595   0.124   5.758   3.127
19785WAT      O59596   7.608   0.902   5.333
19785WAT     H159597   7.695   0.859   5.309
19785WAT     H259598   7.563   0.850   5.406
19786WAT      O59599   4.837   2.246   4.120
19786WAT     H159600   4.863   2.338   4.093
19786WAT     H259601   4.917   2.198   4.156
19787WAT      O59602   5.076   5.300   4.558
19787WAT     H159603   4.981   5.299   4.587
19787WAT     H259604   5.092   5.226   4.492
19788WAT      O59605   0.462   4.755   4.794
19788WAT     H159606   0.558   4.780   4.779
19788WAT     H259607   0.411   4.836   4.823
19789WAT      O59608   7.373   6.061   9.759
19789WAT     H159609   7.356   6.127   9.833
19789WAT     H259610   7.302   6.070   9.689
19790WAT      O59611   8.672   7.573   8.910
19790WAT     H159612   8.725   7.568   8.994
19790WAT     H259613   8.719   7.634   8.845
19791WAT      O59614   7.996   1.097   2.199
19791WAT     H159615   8.016   1.006   2.163
19791WAT     H259616   7.926   1.141   2.143
19792WAT      O59617   6.401   2.497   0.449
19792WAT     H159618   6.402   2.577   0.510
19792WAT     H259619   6.406   2.413   0.504
19793WAT      O59620   4.013   4.648   1.037
19793WAT     H159621   3.936   4.589   1.061
19793WAT     H259622   4.074   4.656   1.116
19794WAT      O59623   9.748   6.853   0.512
19794WAT     H159624   9.697   6.796   0.448
19794WAT     H259625   9.735   6.819   0.605
19795WAT      O59626   1.346   8.895   4.706
19795WAT     H159627   1.436   8.906   4.664
19795WAT     H259628   1.352   8.828   4.780
19796WAT      O59629   2.658   7.952   3.220
19796WAT     H159630   2.674   7.956   3.122
19796WAT     H259631   2.729   7.897   3.264
19797WAT      O59632   6.553   4.429   4.498
19797WAT     H159633   6.473   4.417   4.557
19797WAT     H259634   6.567   4.348   4.442
19798WAT      O59635   1.230   0.977   8.281
19798WAT     H159636   1.145   0.992   8.230
19798WAT     H259637   1.216   0.901   8.345
19799WAT      O59638   1.051   9.184   5.034
19799WAT     H159639   1.116   9.130   4.980
19799WAT     H259640   1.101   9.252   5.088
19800WAT      O59641   2.343   4.108   7.207
19800WAT     H159642   2.396   4.178   7.254
19800WAT     H259643   2.396   4.072   7.130
19801WAT      O59644   3.244   3.243   4.397
19801WAT     H159645   3.274   3.337   4.376
19801WAT     H259646   3.316   3.196   4.447
19802WAT      O59647   3.171   2.537   5.160
19802WAT     H159648   3.149   2.439   5.153
19802WAT     H259649   3.206   2.569   5.072
19803WAT      O59650   2.868   8.148   0.637
19803WAT     H159651   2.851   8.143   0.539
19803WAT     H259652   2.824   8.231   0.674
19804WAT      O59653   7.607   6.442   1.513
19804WAT     H159654   7.523   6.495   1.498
19804WAT     H259655   7.586   6.344   1.505
19805WAT      O59656   9.288   7.763   2.785
19805WAT     H159657   9.249   7.811   2.864
19805WAT     H259658   9.240   7.676   2.772
19806WAT      O59659   6.497   1.614   6.407
19806WAT     H159660   6.546   1.690   6.449
19806WAT     H259661   6.498   1.535   6.469
19807WAT      O59662   0.924   8.825   8.016
19807WAT     H159663   0.915   8.765   7.936
19807WAT     H259664   0.833   8.850   8.049
19808WAT      O59665   9.144   1.512   7.965
19808WAT     H159666   9.071   1.473   8.021
19808WAT     H259667   9.151   1.461   7.879
19809WAT      O59668   4.949   8.701   4.944
19809WAT     H159669   4.938   8.799   4.929
19809WAT     H259670   4.974   8.656   4.858
19810WAT      O59671   6.154   9.556   3.936
19810WAT     H159672   6.191   9.621   3.870
19810WAT     H259673   6.172   9.589   4.029
19811WAT      O59674   4.613   5.828   3.090
19811WAT     H159675   4.669   5.869   3.018
19811WAT     H259676   4.666   5.826   3.175
19812WAT      O59677   7.070   8.483   4.515
19812WAT     H159678   7.127   8.496   4.434
19812WAT     H259679   7.036   8.388   4.516
19813WAT      O59680   6.750   6.649   3.675
19813WAT     H159681   6.757   6.682   3.581
19813WAT     H259682   6.654   6.649   3.703
19814WAT      O59683   5.684   7.065   8.186
19814WAT     H159684   5.626   7.124   8.129
19814WAT     H259685   5.764   7.117   8.217
19815WAT      O59686   2.925   0.923   1.420
19815WAT     H159687   2.990   0.891   1.351
19815WAT     H259688   2.842   0.955   1.374
19816WAT      O59689   3.586   3.787   6.904
19816WAT     H159690   3.568   3.803   6.807
19816WAT     H259691   3.520   3.721   6.940
19817WAT      O59692   7.033   0.229   1.364
19817WAT     H159693   7.040   0.140   1.320
19817WAT     H259694   6.938   0.249   1.386
19818WAT      O59695   1.991   0.541   7.681
19818WAT     H159696   1.971   0.476   7.754
19818WAT     H259697   1.906   0.580   7.646
19819WAT      O59698   4.451   1.934   6.708
19819WAT     H159699   4.373   1.994   6.691
19819WAT     H259700   4.444   1.852   6.652
19820WAT      O59701   9.574   9.505   4.011
19820WAT     H159702   9.508   9.568   3.970
19820WAT     H259703   9.528   9.421   4.038
19821WAT      O59704   5.076   9.575   5.300
19821WAT     H159705   5.117   9.502   5.246
19821WAT     H259706   5.131   9.658   5.292
19822WAT      O59707   6.025   0.494   0.375
19822WAT     H159708   6.035   0.459   0.468
19822WAT     H259709   6.115   0.520   0.340
19823WAT      O59710   1.870   5.421   4.028
19823WAT     H159711   1.922   5.471   3.958
19823WAT     H259712   1.929   5.351   4.069
19824WAT      O59713   9.496   3.081   6.885
19824WAT     H159714   9.547   3.162   6.858
19824WAT     H259715   9.412   3.108   6.933
19825WAT      O59716   0.691   7.445   6.819
19825WAT     H159717   0.632   7.490   6.886
19825WAT     H259718   0.654   7.355   6.797
19826WAT      O59719   7.810   4.082   8.457
19826WAT     H159720   7.818   3.995   8.407
19826WAT     H259721   7.847   4.156   8.401
19827WAT      O59722   5.296   1.713   8.416
19827WAT     H159723   5.292   1.674   8.324
19827WAT     H259724   5.384   1.759   8.429
19828WAT      O59725   5.513   8.779   0.225
19828WAT     H159726   5.532   8.797   0.321
19828WAT     H259727   5.491   8.865   0.179
19829WAT      O59728   1.875   5.028   2.545
19829WAT     H159729   1.785   4.986   2.557
19829WAT     H259730   1.889   5.099   2.614
19830WAT      O59731   2.381   2.204   9.494
19830WAT     H159732   2.324   2.144   9.550
19830WAT     H259733   2.438   2.150   9.432
19831WAT      O59734   3.010   5.083   4.774
19831WAT     H159735   3.101   5.092   4.732
19831WAT     H259736   2.950   5.033   4.711
19832WAT      O59737   6.198   8.363   3.474
19832WAT     H159738   6.261   8.292   3.441
19832WAT     H259739   6.171   8.342   3.568
19833WAT      O59740   4.788   1.625   2.069
19833WAT     H159741   4.880   1.664   2.075
19833WAT     H259742   4.763   1.615   1.973
19834WAT      O59743   0.510   7.508   6.374
19834WAT     H159744   0.524   7.430   6.433
19834WAT     H259745   0.538   7.485   6.281
19835WAT      O59746   0.983   6.918   1.848
19835WAT     H159747   0.905   6.955   1.897
19835WAT     H259748   0.979   6.818   1.850
19836WAT      O59749   8.335   3.885   5.404
19836WAT     H159750   8.322   3.787   5.418
19836WAT     H259751   8.430   3.909   5.423
19837WAT      O59752   4.516   0.356   0.135
19837WAT     H159753   4.505   0.295   0.213
19837WAT     H259754   4.604   0.403   0.142
19838WAT      O59755   3.166   5.685   7.630
19838WAT     H159756   3.176   5.665   7.533
19838WAT     H259757   3.152   5.783   7.642
19839WAT      O59758   5.807   7.718   1.443
19839WAT     H159759   5.777   7.623   1.447
19839WAT     H259760   5.896   7.723   1.398
19840WAT      O59761   7.237   9.442   2.375
19840WAT     H159762   7.288   9.434   2.460
19840WAT     H259763   7.165   9.373   2.372
19841WAT      O59764   7.324   9.631   1.558
19841WAT     H159765   7.254   9.576   1.605
19841WAT     H259766   7.279   9.697   1.498
19842WAT      O59767   6.172   3.649   1.826
19842WAT     H159768   6.142   3.568   1.775
19842WAT     H259769   6.093   3.696   1.864
19843WAT      O59770   2.542   5.720   3.350
19843WAT     H159771   2.518   5.626   3.374
19843WAT     H259772   2.631   5.721   3.305
19844WAT      O59773   5.936   8.867   3.565
19844WAT     H159774   5.923   8.939   3.633
19844WAT     H259775   5.850   8.850   3.517
19845WAT      O59776   0.845   8.376   1.942
19845WAT     H159777   0.866   8.472   1.921
19845WAT     H259778   0.853   8.322   1.858
19846WAT      O59779   7.122   7.165   4.073
19846WAT     H159780   7.210   7.212   4.084
19846WAT     H259781   7.055   7.228   4.035
19847WAT      O59782   7.180   8.735   3.751
19847WAT     H159783   7.181   8.834   3.738
19847WAT     H259784   7.235   8.712   3.831
19848WAT      O59785   1.035   5.390   1.556
19848WAT     H159786   0.980   5.327   1.611
19848WAT     H259787   1.123   5.347   1.536
19849WAT      O59788   8.823   3.502   5.762
19849WAT     H159789   8.799   3.406   5.751
19849WAT     H259790   8.745   3.552   5.801
19850WAT      O59791   1.051   0.863   6.843
19850WAT     H159792   1.042   0.960   6.819
19850WAT     H259793   1.004   0.846   6.930
19851WAT      O59794   7.894   4.870   0.012
19851WAT     H159795   7.976   4.813   0.022
19851WAT     H259796   7.895   4.913  -0.078
19852WAT      O59797   9.408   3.549   5.779
19852WAT     H159798   9.464   3.526   5.699
19852WAT     H259799   9.313   3.524   5.761
19853WAT      O59800   2.941   5.574   4.198
19853WAT     H159801   2.919   5.479   4.216
19853WAT     H259802   2.987   5.613   4.278
19854WAT      O59803   1.685   5.931   7.463
19854WAT     H159804   1.635   6.017   7.461
19854WAT     H259805   1.781   5.948   7.438
19855WAT      O59806   1.928   6.083   9.831
19855WAT     H159807   1.920   6.028   9.914
19855WAT     H259808   1.981   6.166   9.851
19856WAT      O59809   5.895   7.920   5.260
19856WAT     H159810   5.890   7.966   5.349
19856WAT     H259811   5.816   7.859   5.250
19857WAT      O59812   6.138   4.860   8.787
19857WAT     H159813   6.097   4.947   8.758
19857WAT     H259814   6.065   4.797   8.816
19858WAT      O59815   1.438   2.503   4.508
19858WAT     H159816   1.387   2.577   4.552
19858WAT     H259817   1.500   2.461   4.573
19859WAT      O59818   8.007   3.848   0.081
19859WAT     H159819   8.074   3.804   0.021
19859WAT     H259820   7.924   3.791   0.086
19860WAT      O59821   2.067   8.079   3.353
19860WAT     H159822   2.068   8.140   3.433
19860WAT     H259823   2.078   7.984   3.384
19861WAT      O59824   7.308   3.199   0.252
19861WAT     H159825   7.285   3.121   0.193
19861WAT     H259826   7.230   3.222   0.309
19862WAT      O59827   2.062   1.008   9.003
19862WAT     H159828   2.091   1.070   9.075
19862WAT     H259829   2.097   0.916   9.022
19863WAT      O59830   2.622   0.848   0.557
19863WAT     H159831   2.595   0.801   0.473
19863WAT     H259832   2.549   0.842   0.624
19864WAT      O59833   7.511   6.705   9.133
19864WAT     H159834   7.602   6.725   9.171
19864WAT     H259835   7.487   6.610   9.151
19865WAT      O59836   5.256   6.782   7.338
19865WAT     H159837   5.237   6.872   7.300
19865WAT     H259838   5.171   6.739   7.366
19866WAT      O59839   3.234   0.669   7.185
19866WAT     H159840   3.157   0.620   7.226
19866WAT     H259841   3.203   0.754   7.145
19867WAT      O59842   2.761   2.185   0.942
19867WAT     H159843   2.796   2.257   0.882
19867WAT     H259844   2.765   2.098   0.894
19868WAT      O59845   3.657   5.168   9.777
19868WAT     H159846   3.612   5.256   9.759
19868WAT     H259847   3.646   5.144   9.873
19869WAT      O59848   5.773   1.113   4.395
19869WAT     H159849   5.822   1.052   4.333
19869WAT     H259850   5.781   1.079   4.489
19870WAT      O59851   9.684   3.888   7.879
19870WAT     H159852   9.631   3.970   7.898
19870WAT     H259853   9.759   3.911   7.816
19871WAT      O59854   9.316   3.698   8.962
19871WAT     H159855   9.318   3.747   9.049
19871WAT     H259856   9.299   3.601   8.980
19872WAT      O59857   5.252   8.065   5.401
19872WAT     H159858   5.207   8.143   5.359
19872WAT     H259859   5.193   7.984   5.392
19873WAT      O59860   0.693   5.802   5.601
19873WAT     H159861   0.626   5.765   5.666
19873WAT     H259862   0.672   5.898   5.583
19874WAT      O59863   5.349   6.359   4.511
19874WAT     H159864   5.250   6.351   4.524
19874WAT     H259865   5.372   6.335   4.417
19875WAT      O59866   9.084   5.312   5.642
19875WAT     H159867   9.121   5.300   5.734
19875WAT     H259868   9.013   5.383   5.645
19876WAT      O59869   4.777   5.023   2.133
19876WAT     H159870   4.788   4.926   2.154
19876WAT     H259871   4.867   5.067   2.131
19877WAT      O59872   0.982   4.294   5.019
19877WAT     H159873   1.046   4.359   5.060
19877WAT     H259874   0.932   4.339   4.945
19878WAT      O59875   9.485   7.481   3.313
19878WAT     H159876   9.464   7.495   3.410
19878WAT     H259877   9.584   7.472   3.301
19879WAT      O59878   3.457   6.861   0.501
19879WAT     H159879   3.381   6.915   0.463
19879WAT     H259880   3.441   6.846   0.598
19880WAT      O59881   5.687   6.038   7.821
19880WAT     H159882   5.730   6.102   7.757
19880WAT     H259883   5.596   6.014   7.787
19881WAT      O59884   9.742   4.358   7.449
19881WAT     H159885   9.816   4.297   7.422
19881WAT     H259886   9.736   4.434   7.384
19882WAT      O59887   5.301   0.761   2.764
19882WAT     H159888   5.336   0.757   2.670
19882WAT     H259889   5.202   0.746   2.763
19883WAT      O59890   2.373   4.018   5.632
19883WAT     H159891   2.441   3.945   5.645
19883WAT     H259892   2.310   4.018   5.709
19884WAT      O59893   7.383   4.935   6.424
19884WAT     H159894   7.361   4.840   6.405
19884WAT     H259895   7.360   4.992   6.345
19885WAT      O59896   3.928   9.733   7.292
19885WAT     H159897   3.898   9.817   7.247
19885WAT     H259898   4.028   9.729   7.292
19886WAT      O59899   7.714   0.468   9.890
19886WAT     H159900   7.680   0.437   9.802
19886WAT     H259901   7.637   0.480   9.953
19887WAT      O59902   8.352   5.963   1.359
19887WAT     H159903   8.264   5.921   1.381
19887WAT     H259904   8.339   6.036   1.293
19888WAT      O59905   0.408   9.834   6.621
19888WAT     H159906   0.429   9.841   6.523
19888WAT     H259907   0.454   9.753   6.659
19889WAT      O59908   7.933   2.156   7.656
19889WAT     H159909   7.921   2.254   7.674
19889WAT     H259910   7.929   2.106   7.743
19890WAT      O59911   5.443   3.088   1.132
19890WAT     H159912   5.344   3.088   1.146
19890WAT     H259913   5.489   3.091   1.221
19891WAT      O59914   1.786   2.814   6.824
19891WAT     H159915   1.803   2.851   6.732
19891WAT     H259916   1.779   2.889   6.889
19892WAT      O59917   2.714   7.912   7.578
19892WAT     H159918   2.648   7.897   7.652
19892WAT     H259919   2.673   7.883   7.492
19893WAT      O59920   0.814   1.577   4.241
19893WAT     H159921   0.741   1.641   4.216
19893WAT     H259922   0.777   1.484   4.245
19894WAT      O59923   2.018   4.897   3.543
19894WAT     H159924   2.102   4.854   3.510
19894WAT     H259925   2.005   4.873   3.639
19895WAT      O59926   2.851   6.417   9.034
19895WAT     H159927   2.758   6.440   9.006
19895WAT     H259928   2.895   6.498   9.073
19896WAT      O59929   0.822   0.400   7.196
19896WAT     H159930   0.845   0.429   7.103
19896WAT     H259931   0.886   0.331   7.226
19897WAT      O59932   8.534   9.834   9.520
19897WAT     H159933   8.478   9.898   9.467
19897WAT     H259934   8.514   9.845   9.617
19898WAT      O59935   6.504   1.050   5.409
19898WAT     H159936   6.591   1.084   5.374
19898WAT     H259937   6.456   1.123   5.458
19899WAT      O59938   2.389   0.439   2.009
19899WAT     H159939   2.449   0.506   1.965
19899WAT     H259940   2.325   0.487   2.070
19900WAT      O59941   7.779   1.264   0.474
19900WAT     H159942   7.785   1.226   0.382
19900WAT     H259943   7.729   1.351   0.472
19901WAT      O59944   2.918   8.614   3.944
19901WAT     H159945   2.910   8.656   3.853
19901WAT     H259946   2.909   8.684   4.014
19902WAT      O59947   8.765   7.957   3.665
19902WAT     H159948   8.773   7.927   3.570
19902WAT     H259949   8.764   7.876   3.725
19903WAT      O59950   2.926   6.094   8.232
19903WAT     H159951   2.835   6.104   8.273
19903WAT     H259952   2.953   6.180   8.189
19904WAT      O59953   3.266   1.465   7.710
19904WAT     H159954   3.354   1.425   7.686
19904WAT     H259955   3.271   1.564   7.699
19905WAT      O59956   4.079   6.171   0.114
19905WAT     H159957   4.120   6.262   0.102
19905WAT     H259958   4.114   6.130   0.198
19906WAT      O59959   0.897   9.682   6.381
19906WAT     H159960   0.997   9.676   6.388
19906WAT     H259961   0.866   9.634   6.299
19907WAT      O59962   1.263   0.529   8.005
19907WAT     H159963   1.184   0.572   7.962
19907WAT     H259964   1.326   0.599   8.036
19908WAT      O59965   1.116   5.241   2.098
19908WAT     H159966   1.099   5.292   2.182
19908WAT     H259967   1.092   5.145   2.112
19909WAT      O59968   9.348   0.859   5.841
19909WAT     H159969   9.340   0.958   5.837
19909WAT     H259970   9.266   0.817   5.801
19910WAT      O59971   2.100   7.810   2.751
19910WAT     H159972   2.108   7.725   2.699
19910WAT     H259973   2.167   7.810   2.825
19911WAT      O59974   6.979   8.693   1.201
19911WAT     H159975   6.945   8.775   1.245
19911WAT     H259976   7.056   8.656   1.253
19912WAT      O59977   4.349   3.010   8.850
19912WAT     H159978   4.397   3.097   8.860
19912WAT     H259979   4.396   2.954   8.781
19913WAT      O59980   0.011   5.847   1.932
19913WAT     H159981   0.110   5.842   1.921
19913WAT     H259982  -0.033   5.778   1.875
19914WAT      O59983   8.352   7.439   1.953
19914WAT     H159984   8.441   7.396   1.967
19914WAT     H259985   8.280   7.377   1.984
19915WAT      O59986   3.210   0.058   9.429
19915WAT     H159987   3.254   0.145   9.450
19915WAT     H259988   3.278  -0.015   9.428
19916WAT      O59989   1.034   9.177   6.399
19916WAT     H159990   1.044   9.101   6.463
19916WAT     H259991   1.078   9.154   6.312
19917WAT      O59992   8.152   1.386   5.510
19917WAT     H159993   8.236   1.416   5.465
19917WAT     H259994   8.073   1.425   5.463
19918WAT      O59995   4.281   6.114   6.791
19918WAT     H159996   4.204   6.145   6.735
19918WAT     H259997   4.266   6.019   6.817
19919WAT      O59998   2.366   1.995   3.669
19919WAT     H159999   2.295   2.057   3.701
19919WAT     H260000   2.411   1.952   3.748
19920WAT      O60001   9.071   5.624   4.546
19920WAT     H160002   9.055   5.655   4.452
19920WAT     H260003   9.069   5.703   4.608
19921WAT      O60004   4.757   1.183   8.046
19921WAT     H160005   4.802   1.268   8.019
19921WAT     H260006   4.661   1.202   8.070
19922WAT      O60007   6.904   3.121   5.476
19922WAT     H160008   6.887   3.025   5.456
19922WAT     H260009   6.891   3.176   5.394
19923WAT      O60010   2.671   8.175   4.210
19923WAT     H160011   2.687   8.258   4.157
19923WAT     H260012   2.739   8.169   4.284
19924WAT      O60013   4.350   6.040   8.164
19924WAT     H160014   4.379   5.979   8.238
19924WAT     H260015   4.428   6.093   8.131
19925WAT      O60016   5.192   6.331   8.362
19925WAT     H160017   5.205   6.235   8.338
19925WAT     H260018   5.265   6.385   8.320
19926WAT      O60019   0.388   3.547   8.503
19926WAT     H160020   0.429   3.636   8.481
19926WAT     H260021   0.288   3.555   8.500
19927WAT      O60022   5.860   9.658   7.905
19927WAT     H160023   5.851   9.582   7.969
19927WAT     H260024   5.906   9.627   7.822
19928WAT      O60025   1.906   3.559   2.137
19928WAT     H160026   1.810   3.556   2.109
19928WAT     H260027   1.958   3.490   2.087
19929WAT      O60028   2.703   4.969   8.948
19929WAT     H160029   2.680   4.970   8.850
19929WAT     H260030   2.803   4.968   8.958
19930WAT      O60031   3.812   8.461   0.726
19930WAT     H160032   3.870   8.456   0.645
19930WAT     H260033   3.842   8.393   0.793
19931WAT      O60034   5.681   2.865   8.816
19931WAT     H160035   5.637   2.896   8.901
19931WAT     H260036   5.776   2.841   8.835
19932WAT      O60037   8.532   6.600   1.987
19932WAT     H160038   8.578   6.517   1.955
19932WAT     H260039   8.574   6.680   1.945
19933WAT      O60040   1.930   4.676   9.798
19933WAT     H160041   1.896   4.589   9.760
19933WAT     H260042   1.982   4.725   9.728
19934WAT      O60043   2.713   7.512   5.647
19934WAT     H160044   2.706   7.443   5.576
19934WAT     H260045   2.659   7.592   5.621
19935WAT      O60046   7.892   0.055   0.667
19935WAT     H160047   7.811   0.009   0.632
19935WAT     H260048   7.872   0.093   0.758
19936WAT      O60049   2.963   1.142   6.626
19936WAT     H160050   2.902   1.146   6.547
19936WAT     H260051   2.951   1.224   6.682
19937WAT      O60052   6.860   1.025   0.352
19937WAT     H160053   6.785   1.033   0.419
19937WAT     H260054   6.865   0.930   0.320
19938WAT      O60055   7.311   1.773   9.086
19938WAT     H160056   7.364   1.857   9.097
19938WAT     H260057   7.263   1.753   9.171
19939WAT      O60058   3.291   5.865   5.635
19939WAT     H160059   3.353   5.814   5.576
19939WAT     H260060   3.201   5.872   5.591
19940WAT      O60061   6.157   5.282   0.502
19940WAT     H160062   6.190   5.201   0.453
19940WAT     H260063   6.143   5.356   0.436
19941WAT      O60064   9.406   1.248   8.239
19941WAT     H160065   9.411   1.298   8.326
19941WAT     H260066   9.397   1.312   8.164
19942WAT      O60067   3.145   4.649   2.031
19942WAT     H160068   3.223   4.587   2.036
19942WAT     H260069   3.066   4.608   2.078
19943WAT      O60070   9.732   5.022   6.865
19943WAT     H160071   9.697   5.114   6.885
19943WAT     H260072   9.774   4.984   6.947
19944WAT      O60073   5.014   6.849   2.786
19944WAT     H160074   4.954   6.773   2.813
19944WAT     H260075   5.029   6.909   2.865
19945WAT      O60076   3.456   9.057   0.975
19945WAT     H160077   3.460   8.980   0.912
19945WAT     H260078   3.522   9.043   1.049
19946WAT      O60079   4.604   6.081   7.130
19946WAT     H160080   4.601   6.032   7.217
19946WAT     H260081   4.590   6.017   7.054
19947WAT      O60082   4.169   0.080   9.056
19947WAT     H160083   4.185   0.071   9.154
19947WAT     H260084   4.182   0.175   9.028
19948WAT      O60085   4.501   1.070   5.085
19948WAT     H160086   4.459   1.027   5.005
19948WAT     H260087   4.429   1.114   5.140
19949WAT      O60088   4.049   0.423   3.945
19949WAT     H160089   3.950   0.421   3.958
19949WAT     H260090   4.081   0.517   3.947
19950WAT      O60091   1.931   3.775   5.328
19950WAT     H160092   1.915   3.763   5.230
19950WAT     H260093   2.024   3.746   5.351
19951WAT      O60094   1.004   7.331   9.031
19951WAT     H160095   1.052   7.267   9.091
19951WAT     H260096   0.953   7.280   8.962
19952WAT      O60097   8.805   8.545   6.924
19952WAT     H160098   8.718   8.577   6.961
19952WAT     H260099   8.874   8.616   6.936
19953WAT      O60100   2.664   3.416   7.152
19953WAT     H160101   2.673   3.406   7.053
19953WAT     H260102   2.753   3.399   7.195
19954WAT      O60103   4.661   1.934   7.808
19954WAT     H160104   4.564   1.911   7.822
19954WAT     H260105   4.675   1.962   7.713
19955WAT      O60106   5.949   3.537   2.606
19955WAT     H160107   5.972   3.547   2.703
19955WAT     H260108   5.993   3.455   2.570
19956WAT      O60109   6.834   9.775   4.441
19956WAT     H160110   6.856   9.814   4.351
19956WAT     H260111   6.774   9.838   4.490
19957WAT      O60112   0.685   7.306   3.983
19957WAT     H160113   0.753   7.304   4.056
19957WAT     H260114   0.594   7.320   4.022
19958WAT      O60115   4.647   2.225   1.450
19958WAT     H160116   4.551   2.200   1.453
19958WAT     H260117   4.675   2.241   1.355
19959WAT      O60118   8.659   6.204   7.868
19959WAT     H160119   8.599   6.127   7.888
19959WAT     H260120   8.725   6.216   7.942
19960WAT      O60121   6.998   3.863   3.911
19960WAT     H160122   7.045   3.777   3.890
19960WAT     H260123   7.065   3.936   3.920
19961WAT      O60124   6.679   8.578   6.784
19961WAT     H160125   6.716   8.500   6.834
19961WAT     H260126   6.607   8.547   6.722
19962WAT      O60127   7.124   5.434   8.966
19962WAT     H160128   7.213   5.420   9.008
19962WAT     H260129   7.131   5.417   8.868
19963WAT      O60130   5.440   5.222   9.333
19963WAT     H160131   5.467   5.157   9.405
19963WAT     H260132   5.515   5.285   9.315
19964WAT      O60133   2.911   2.270   2.505
19964WAT     H160134   2.939   2.199   2.440
19964WAT     H260135   2.905   2.231   2.597
19965WAT      O60136   3.324   7.350   0.068
19965WAT     H160137   3.363   7.415   0.003
19965WAT     H260138   3.397   7.301   0.115
19966WAT      O60139   6.692   4.902   1.383
19966WAT     H160140   6.628   4.919   1.457
19966WAT     H260141   6.692   4.805   1.360
19967WAT      O60142   6.161   7.412   3.306
19967WAT     H160143   6.144   7.316   3.330
19967WAT     H260144   6.074   7.460   3.300
19968WAT      O60145   0.622   7.088   6.232
19968WAT     H160146   0.650   7.119   6.141
19968WAT     H260147   0.703   7.065   6.286
19969WAT      O60148   2.360   9.826   0.748
19969WAT     H160149   2.303   9.749   0.719
19969WAT     H260150   2.420   9.854   0.673
19970WAT      O60151   4.708   1.951   2.712
19970WAT     H160152   4.632   2.014   2.695
19970WAT     H260153   4.737   1.960   2.807
19971WAT      O60154   0.801   7.732   6.771
19971WAT     H160155   0.828   7.777   6.686
19971WAT     H260156   0.749   7.649   6.750
19972WAT      O60157   4.443   7.327   0.007
19972WAT     H160158   4.382   7.251   0.029
19972WAT     H260159   4.536   7.306   0.038
19973WAT      O60160   1.491   5.388   1.914
19973WAT     H160161   1.535   5.301   1.934
19973WAT     H260162   1.520   5.456   1.981
19974WAT      O60163   9.102   1.067   0.139
19974WAT     H160164   9.154   1.123   0.074
19974WAT     H260165   9.006   1.062   0.110
19975WAT      O60166   2.781   7.227   2.161
19975WAT     H160167   2.726   7.200   2.081
19975WAT     H260168   2.874   7.192   2.150
19976WAT      O60169   4.742   5.518   4.111
19976WAT     H160170   4.757   5.617   4.110
19976WAT     H260171   4.708   5.489   4.021
19977WAT      O60172   5.995   4.582   2.647
19977WAT     H160173   6.072   4.616   2.700
19977WAT     H260174   6.013   4.488   2.618
19978WAT      O60175   4.517   9.737   8.716
19978WAT     H160176   4.429   9.690   8.709
19978WAT     H260177   4.566   9.728   8.630
19979WAT      O60178   2.913   2.094   5.032
19979WAT     H160179   2.841   2.132   4.973
19979WAT     H260180   2.876   2.017   5.084
19980WAT      O60181   3.996   6.120   1.729
19980WAT     H160182   4.094   6.138   1.738
19980WAT     H260183   3.975   6.096   1.635
19981WAT      O60184   7.812   7.544   1.561
19981WAT     H160185   7.845   7.469   1.504
19981WAT     H260186   7.750   7.601   1.507
19982WAT      O60187   5.416   4.033   5.403
19982WAT     H160188   5.346   3.962   5.413
19982WAT     H260189   5.470   4.016   5.320
19983WAT      O60190   3.667   3.134   6.860
19983WAT     H160191   3.742   3.200   6.861
19983WAT     H260192   3.662   3.089   6.949
19984WAT      O60193   6.650   1.044   0.516
19984WAT     H160194   6.601   1.018   0.600
19984WAT     H260195   6.587   1.039   0.438
19985WAT      O60196   0.150   6.581   6.200
19985WAT     H160197   0.095   6.535   6.270
19985WAT     H260198   0.225   6.521   6.172
19986WAT      O60199   5.287   4.666   8.851
19986WAT     H160200   5.260   4.645   8.757
19986WAT     H260201   5.241   4.749   8.882
19987WAT      O60202   7.352   7.438   2.518
19987WAT     H160203   7.279   7.372   2.536
19987WAT     H260204   7.401   7.412   2.435
19988WAT      O60205   1.361   9.126   5.284
19988WAT     H160206   1.444   9.094   5.239
19988WAT     H260207   1.310   9.186   5.222
19989WAT      O60208   8.102   7.569   1.896
19989WAT     H160209   8.045   7.558   1.977
19989WAT     H260210   8.198   7.562   1.922
19990WAT      O60211   8.678   2.633   1.633
19990WAT     H160212   8.663   2.557   1.570
19990WAT     H260213   8.691   2.718   1.581
19991WAT      O60214   4.458   2.598   2.013
19991WAT     H160215   4.481   2.693   1.991
19991WAT     H260216   4.415   2.554   1.935
19992WAT      O60217   9.689   8.186   4.008
19992WAT     H160218   9.705   8.187   3.909
19992WAT     H260219   9.708   8.277   4.046
19993WAT      O60220   1.974   2.600   6.254
19993WAT     H160221   1.919   2.626   6.175
19993WAT     H260222   2.066   2.575   6.224
19994WAT      O60223   1.636   9.519   1.891
19994WAT     H160224   1.627   9.606   1.842
19994WAT     H260225   1.675   9.451   1.830
19995WAT      O60226   3.554   3.705   3.959
19995WAT     H160227   3.475   3.766   3.964
19995WAT     H260228   3.527   3.613   3.988
19996WAT      O60229   8.749   9.039   0.291
19996WAT     H160230   8.733   8.958   0.348
19996WAT     H260231   8.819   9.096   0.334
19997WAT      O60232   0.862   3.716   9.192
19997WAT     H160233   0.778   3.712   9.246
19997WAT     H260234   0.855   3.651   9.116
19998WAT      O60235   0.357   1.962   4.154
19998WAT     H160236   0.406   2.046   4.175
19998WAT     H260237   0.346   1.953   4.055
19999WAT      O60238   3.694   7.862   8.392
19999WAT     H160239   3.661   7.796   8.459
19999WAT     H260240   3.617   7.912   8.353
20000WAT      O60241   3.639   0.630   7.701
20000WAT     H160242   3.658   0.720   7.662
20000WAT     H260243   3.541   0.619   7.715
20001WAT      O60244   9.165   3.424   8.646
20001WAT     H160245   9.180   3.505   8.589
20001WAT     H260246   9.245   3.409   8.703
20002WAT      O60247   8.714   2.396   4.040
20002WAT     H160248   8.618   2.423   4.038
20002WAT     H260249   8.721   2.297   4.027
20003WAT      O60250   0.691   7.884   0.955
20003WAT     H160251   0.714   7.803   0.900
20003WAT     H260252   0.598   7.914   0.932
20004WAT      O60253   1.151   9.600   4.239
20004WAT     H160254   1.144   9.700   4.239
20004WAT     H260255   1.112   9.564   4.324
20005WAT      O60256   6.022   4.791   2.035
20005WAT     H160257   5.941   4.751   1.992
20005WAT     H260258   6.080   4.718   2.072
20006WAT      O60259   6.027   8.949   9.219
20006WAT     H160260   5.978   8.945   9.306
20006WAT     H260261   6.122   8.919   9.233
20007WAT      O60262   8.533   8.742   4.170
20007WAT     H160263   8.556   8.691   4.253
20007WAT     H260264   8.493   8.680   4.103
20008WAT      O60265   3.149   1.843   2.599
20008WAT     H160266   3.177   1.774   2.532
20008WAT     H260267   3.188   1.932   2.573
20009WAT      O60268   5.332   7.720   7.806
20009WAT     H160269   5.269   7.727   7.728
20009WAT     H260270   5.361   7.625   7.817
20010WAT      O60271   5.401   6.185   0.684
20010WAT     H160272   5.322   6.171   0.624
20010WAT     H260273   5.421   6.283   0.690
20011WAT      O60274   4.889   1.868   7.414
20011WAT     H160275   4.822   1.800   7.385
20011WAT     H260276   4.956   1.826   7.475
20012WAT      O60277   3.191   4.750   3.826
20012WAT     H160278   3.125   4.763   3.753
20012WAT     H260279   3.146   4.709   3.905
20013WAT      O60280   8.689   2.006   0.010
20013WAT     H160281   8.613   2.031   0.069
20013WAT     H260282   8.692   1.907  -0.003
20014WAT      O60283   5.696   1.909   0.625
20014WAT     H160284   5.786   1.911   0.581
20014WAT     H260285   5.688   1.987   0.688
20015WAT      O60286   9.208   6.612   4.077
20015WAT     H160287   9.138   6.665   4.124
20015WAT     H260288   9.178   6.592   3.984
20016WAT      O60289   1.461   1.733   9.335
20016WAT     H160290   1.387   1.692   9.388
20016WAT     H260291   1.544   1.738   9.390
20017WAT      O60292   4.058   2.693   3.073
20017WAT     H160293   3.976   2.727   3.028
20017WAT     H260294   4.045   2.598   3.099
20018WAT      O60295   3.781   0.315   8.278
20018WAT     H160296   3.688   0.329   8.243
20018WAT     H260297   3.791   0.362   8.366
20019WAT      O60298   8.894   9.105   9.605
20019WAT     H160299   8.982   9.093   9.652
20019WAT     H260300   8.856   9.016   9.582
20020WAT      O60301   8.036   0.704   2.225
20020WAT     H160302   8.104   0.630   2.231
20020WAT     H260303   8.045   0.750   2.137
20021WAT      O60304   6.882   0.497   0.984
20021WAT     H160305   6.825   0.573   0.951
20021WAT     H260306   6.869   0.487   1.083
20022WAT      O60307   1.289   7.523   8.253
20022WAT     H160308   1.339   7.519   8.166
20022WAT     H260309   1.317   7.604   8.304
20023WAT      O60310   6.617   2.092   2.102
20023WAT     H160311   6.633   2.190   2.085
20023WAT     H260312   6.636   2.041   2.018
20024WAT      O60313   9.366   0.412   4.723
20024WAT     H160314   9.374   0.511   4.733
20024WAT     H260315   9.424   0.366   4.791
20025WAT      O60316   6.303   2.194   2.874
20025WAT     H160317   6.215   2.147   2.874
20025WAT     H260318   6.372   2.135   2.916
20026WAT      O60319   8.298   0.295   0.572
20026WAT     H160320   8.343   0.213   0.606
20026WAT     H260321   8.207   0.272   0.537
20027WAT      O60322   7.345   5.527   0.306
20027WAT     H160323   7.261   5.528   0.360
20027WAT     H260324   7.416   5.478   0.356
20028WAT      O60325   4.261   8.172   8.670
20028WAT     H160326   4.171   8.212   8.652
20028WAT     H260327   4.329   8.244   8.675
20029WAT      O60328   6.793   5.575   7.874
20029WAT     H160329   6.828   5.535   7.790
20029WAT     H260330   6.859   5.560   7.948
20030WAT      O60331   8.971   8.340   3.960
20030WAT     H160332   8.910   8.419   3.961
20030WAT     H260333   9.065   8.371   3.942
20031WAT      O60334   1.514   5.365   5.740
20031WAT     H160335   1.431   5.373   5.685
20031WAT     H260336   1.540   5.456   5.774
20032WAT      O60337   2.094   8.321   0.446
20032WAT     H160338   2.143   8.385   0.387
20032WAT     H260339   2.027   8.372   0.501
20033WAT      O60340   6.532   5.593   4.459
20033WAT     H160341   6.441   5.558   4.479
20033WAT     H260342   6.530   5.693   4.461
20034WAT      O60343   0.283   1.984   1.091
20034WAT     H160344   0.203   1.926   1.102
20034WAT     H260345   0.254   2.078   1.071
20035WAT      O60346   6.221   8.719   9.469
20035WAT     H160347   6.128   8.683   9.469
20035WAT     H260348   6.241   8.758   9.379
20036WAT      O60349   9.480   9.796   8.032
20036WAT     H160350   9.421   9.864   7.990
20036WAT     H260351   9.574   9.831   8.037
20037WAT      O60352   1.472   0.445   0.373
20037WAT     H160353   1.392   0.464   0.430
20037WAT     H260354   1.443   0.410   0.285
20038WAT      O60355   2.128   8.793   9.268
20038WAT     H160356   2.036   8.772   9.234
20038WAT     H260357   2.184   8.827   9.193
20039WAT      O60358   6.099   6.686   8.212
20039WAT     H160359   6.124   6.761   8.152
20039WAT     H260360   6.018   6.712   8.266
20040WAT      O60361   9.546   0.179   5.116
20040WAT     H160362   9.451   0.161   5.142
20040WAT     H260363   9.597   0.094   5.116
20041WAT      O60364   6.471   7.122   5.794
20041WAT     H160365   6.384   7.083   5.823
20041WAT     H260366   6.545   7.088   5.853
20042WAT      O60367   5.113   5.302   0.279
20042WAT     H160368   5.021   5.268   0.297
20042WAT     H260369   5.172   5.283   0.358
20043WAT      O60370   0.418   3.497   0.625
20043WAT     H160371   0.460   3.406   0.621
20043WAT     H260372   0.318   3.488   0.624
20044WAT      O60373   8.630   9.763   3.432
20044WAT     H160374   8.715   9.759   3.380
20044WAT     H260375   8.594   9.856   3.432
20045WAT      O60376   6.510   1.760   3.725
20045WAT     H160377   6.591   1.728   3.775
20045WAT     H260378   6.430   1.707   3.754
20046WAT      O60379   4.774   3.695   3.282
20046WAT     H160380   4.736   3.782   3.312
20046WAT     H260381   4.794   3.638   3.362
20047WAT      O60382   7.347   4.478   4.580
20047WAT     H160383   7.330   4.577   4.579
20047WAT     H260384   7.445   4.461   4.578
20048WAT      O60385   0.860   8.664   2.359
20048WAT     H160386   0.796   8.626   2.426
20048WAT     H260387   0.810   8.691   2.277
20049WAT      O60388   5.861   6.360   4.135
20049WAT     H160389   5.796   6.368   4.210
20049WAT     H260390   5.919   6.441   4.133
20050WAT      O60391   2.404   8.190   4.971
20050WAT     H160392   2.379   8.259   4.904
20050WAT     H260393   2.500   8.202   4.997
20051WAT      O60394   6.907   9.754   0.349
20051WAT     H160395   6.919   9.803   0.262
20051WAT     H260396   6.883   9.819   0.421
20052WAT      O60397   2.845   2.668   2.062
20052WAT     H160398   2.837   2.602   2.137
20052WAT     H260399   2.877   2.622   1.980
20053WAT      O60400   9.053   5.041   6.719
20053WAT     H160401   9.101   4.956   6.739
20053WAT     H260402   9.019   5.038   6.625
20054WAT      O60403   9.310   8.992   0.035
20054WAT     H160404   9.363   8.956   0.111
20054WAT     H260405   9.367   8.993  -0.047
20055WAT      O60406   4.792   4.031   5.728
20055WAT     H160407   4.780   4.023   5.827
20055WAT     H260408   4.823   4.124   5.706
20056WAT      O60409   1.952   0.266   2.648
20056WAT     H160410   1.977   0.279   2.744
20056WAT     H260411   1.886   0.336   2.621
20057WAT      O60412   1.795   4.304   8.899
20057WAT     H160413   1.735   4.310   8.819
20057WAT     H260414   1.828   4.211   8.909
20058WAT      O60415   3.890   5.999   0.031
20058WAT     H160416   3.890   6.010  -0.068
20058WAT     H260417   3.954   6.065   0.071
20059WAT      O60418   7.254   0.049   3.277
20059WAT     H160419   7.280   0.041   3.373
20059WAT     H260420   7.317  -0.005   3.221
20060WAT      O60421   3.861   3.341   3.105
20060WAT     H160422   3.844   3.381   3.195
20060WAT     H260423   3.845   3.409   3.034
20061WAT      O60424   9.743   4.792   4.132
20061WAT     H160425   9.672   4.741   4.084
20061WAT     H260426   9.785   4.734   4.201
20062WAT      O60427   7.422   0.316   1.825
20062WAT     H160428   7.396   0.357   1.912
20062WAT     H260429   7.344   0.267   1.787
20063WAT      O60430   9.524   9.307   8.138
20063WAT     H160431   9.619   9.333   8.156
20063WAT     H260432   9.463   9.379   8.172
20064WAT      O60433   6.806   4.718   9.353
20064WAT     H160434   6.858   4.803   9.359
20064WAT     H260435   6.803   4.687   9.258
20065WAT      O60436   1.910   5.088   4.932
20065WAT     H160437   1.854   5.006   4.924
20065WAT     H260438   1.878   5.143   5.009
20066WAT      O60439   1.312   7.409   7.798
20066WAT     H160440   1.332   7.311   7.792
20066WAT     H260441   1.364   7.449   7.873
20067WAT      O60442   0.286   2.102   6.805
20067WAT     H160443   0.245   2.044   6.735
20067WAT     H260444   0.326   2.183   6.763
20068WAT      O60445   4.815   4.908   9.586
20068WAT     H160446   4.766   4.987   9.624
20068WAT     H260447   4.888   4.941   9.527
20069WAT      O60448   0.075   3.267   1.972
20069WAT     H160449   0.091   3.344   1.911
20069WAT     H260450  -0.021   3.266   2.000
20070WAT      O60451   1.859   3.891   7.532
20070WAT     H160452   1.941   3.834   7.525
20070WAT     H260453   1.786   3.839   7.577
20071WAT      O60454   2.513   8.886   1.813
20071WAT     H160455   2.473   8.813   1.868
20071WAT     H260456   2.552   8.848   1.730
20072WAT      O60457   5.443   3.538   6.386
20072WAT     H160458   5.489   3.587   6.312
20072WAT     H260459   5.507   3.473   6.427
20073WAT      O60460   8.436   0.978   6.003
20073WAT     H160461   8.491   0.897   5.984
20073WAT     H260462   8.437   1.039   5.924
20074WAT      O60463   7.274   8.885   5.115
20074WAT     H160464   7.304   8.860   5.207
20074WAT     H260465   7.257   8.802   5.062
20075WAT      O60466   0.987   8.267   8.938
20075WAT     H160467   1.021   8.175   8.956
20075WAT     H260468   0.981   8.281   8.839
20076WAT      O60469   8.726   9.747   0.550
20076WAT     H160470   8.788   9.676   0.517
20076WAT     H260471   8.779   9.823   0.586
20077WAT      O60472   8.734   1.963   9.571
20077WAT     H160473   8.798   1.987   9.644
20077WAT     H260474   8.650   2.017   9.582
20078WAT      O60475   1.005   4.707   1.099
20078WAT     H160476   0.981   4.664   1.186
20078WAT     H260477   1.038   4.800   1.116
20079WAT      O60478   2.150   8.606   1.201
20079WAT     H160479   2.217   8.571   1.135
20079WAT     H260480   2.197   8.661   1.270
20080WAT      O60481   4.000   7.768   0.201
20080WAT     H160482   4.053   7.720   0.272
20080WAT     H260483   3.960   7.702   0.138
20081WAT      O60484   4.014   0.552   6.527
20081WAT     H160485   3.915   0.552   6.541
20081WAT     H260486   4.037   0.618   6.455
20082WAT      O60487   7.428   2.032   9.078
20082WAT     H160488   7.412   2.129   9.093
20082WAT     H260489   7.475   2.018   8.991
20083WAT      O60490   7.140   3.658   9.124
20083WAT     H160491   7.084   3.691   9.048
20083WAT     H260492   7.111   3.565   9.148
20084WAT      O60493   7.400   0.496   8.014
20084WAT     H160494   7.476   0.555   7.988
20084WAT     H260495   7.337   0.487   7.937
20085WAT      O60496   6.926   9.228   5.171
20085WAT     H160497   6.869   9.253   5.093
20085WAT     H260498   7.022   9.236   5.146
20086WAT      O60499   7.946   6.219   7.694
20086WAT     H160500   7.926   6.313   7.722
20086WAT     H260501   8.043   6.210   7.673
20087WAT      O60502   8.935   6.024   1.445
20087WAT     H160503   8.871   5.998   1.373
20087WAT     H260504   8.885   6.052   1.527
20088WAT      O60505   9.375   1.020   3.285
20088WAT     H160506   9.383   1.062   3.195
20088WAT     H260507   9.420   0.930   3.284
20089WAT      O60508   9.864   1.058   2.121
20089WAT     H160509   9.896   1.009   2.040
20089WAT     H260510   9.801   0.999   2.172
20090WAT      O60511   3.308   8.806   4.125
20090WAT     H160512   3.368   8.882   4.100
20090WAT     H260513   3.339   8.723   4.078
20091WAT      O60514   9.689   9.658   2.535
20091WAT     H160515   9.779   9.696   2.513
20091WAT     H260516   9.623   9.685   2.466
20092WAT      O60517   5.352   1.878   9.844
20092WAT     H160518   5.400   1.881   9.756
20092WAT     H260519   5.286   1.803   9.844
20093WAT      O60520   8.868   3.541   8.218
20093WAT     H160521   8.840   3.613   8.281
20093WAT     H260522   8.826   3.557   8.128
20094WAT      O60523   5.645   7.897   4.929
20094WAT     H160524   5.707   7.819   4.935
20094WAT     H260525   5.692   7.980   4.959
20095WAT      O60526   4.828   2.034   1.891
20095WAT     H160527   4.882   2.081   1.822
20095WAT     H260528   4.818   2.093   1.972
20096WAT      O60529   8.260   8.130   6.802
20096WAT     H160530   8.281   8.057   6.738
20096WAT     H260531   8.306   8.214   6.774
20097WAT      O60532   7.134   1.561   9.548
20097WAT     H160533   7.139   1.617   9.631
20097WAT     H260534   7.039   1.531   9.535
20098WAT      O60535   0.657   0.012   0.862
20098WAT     H160536   0.587   0.083   0.858
20098WAT     H260537   0.632  -0.064   0.801
20099WAT      O60538   9.673   1.217   5.159
20099WAT     H160539   9.711   1.272   5.084
20099WAT     H260540   9.672   1.121   5.131
20100WAT      O60541   5.047   6.837   3.217
20100WAT     H160542   5.058   6.753   3.164
20100WAT     H260543   5.130   6.854   3.270
20101WAT      O60544   0.981   1.514   9.214
20101WAT     H160545   0.887   1.538   9.191
20101WAT     H260546   0.995   1.416   9.199
20102WAT      O60547   5.987   3.093   7.073
20102WAT     H160548   5.979   3.179   7.124
20102WAT     H260549   5.943   3.103   6.983
20103WAT      O60550   4.812   1.761   4.672
20103WAT     H160551   4.909   1.751   4.697
20103WAT     H260552   4.802   1.840   4.611
20104WAT      O60553   0.889   0.993   5.848
20104WAT     H160554   0.985   1.020   5.837
20104WAT     H260555   0.885   0.902   5.888
20105WAT      O60556   3.491   0.289   6.645
20105WAT     H160557   3.558   0.312   6.574
20105WAT     H260558   3.485   0.189   6.653
20106WAT      O60559   5.919   4.927   9.883
20106WAT     H160560   5.913   4.843   9.935
20106WAT     H260561   5.922   5.005   9.945
20107WAT      O60562   5.156   3.976   6.748
20107WAT     H160563   5.126   3.913   6.820
20107WAT     H260564   5.255   3.965   6.734
20108WAT      O60565   4.929   3.687   6.137
20108WAT     H160566   5.011   3.745   6.134
20108WAT     H260567   4.949   3.604   6.189
20109WAT      O60568   8.488   6.240   1.665
20109WAT     H160569   8.498   6.155   1.613
20109WAT     H260570   8.401   6.239   1.714
20110WAT      O60571   0.644   8.626   3.336
20110WAT     H160572   0.552   8.587   3.332
20110WAT     H260573   0.646   8.713   3.286
20111WAT      O60574   6.765   3.587   1.896
20111WAT     H160575   6.731   3.498   1.927
20111WAT     H260576   6.695   3.630   1.838
20112WAT      O60577   6.521   7.961   3.215
20112WAT     H160578   6.539   7.900   3.292
20112WAT     H260579   6.514   7.907   3.131
20113WAT      O60580   3.460   5.898   7.071
20113WAT     H160581   3.368   5.883   7.034
20113WAT     H260582   3.453   5.943   7.160
20114WAT      O60583   4.736   9.813   2.378
20114WAT     H160584   4.799   9.841   2.306
20114WAT     H260585   4.774   9.735   2.428
20115WAT      O60586   5.313  -0.004   4.041
20115WAT     H160587   5.372   0.022   4.117
20115WAT     H260588   5.300   0.075   3.981
20116WAT      O60589   6.183   6.869   8.045
20116WAT     H160590   6.271   6.883   7.999
20116WAT     H260591   6.148   6.957   8.075
20117WAT      O60592   6.828   3.936   6.156
20117WAT     H160593   6.894   4.001   6.118
20117WAT     H260594   6.796   3.875   6.084
20118WAT      O60595   4.144   6.593   1.493
20118WAT     H160596   4.046   6.580   1.482
20118WAT     H260597   4.166   6.607   1.590
20119WAT      O60598   1.672   8.803   7.144
20119WAT     H160599   1.601   8.871   7.165
20119WAT     H260600   1.721   8.831   7.062
20120WAT      O60601   5.324   5.962   8.002
20120WAT     H160602   5.382   6.037   8.034
20120WAT     H260603   5.286   5.913   8.081
20121WAT      O60604   7.579   4.141   7.655
20121WAT     H160605   7.516   4.202   7.606
20121WAT     H260606   7.585   4.054   7.606
20122WAT      O60607   6.228   5.173   7.698
20122WAT     H160608   6.280   5.240   7.646
20122WAT     H260609   6.132   5.202   7.704
20123WAT      O60610   6.763   3.640   0.230
20123WAT     H160611   6.734   3.550   0.198
20123WAT     H260612   6.715   3.711   0.178
20124WAT      O60613   3.648   7.687   8.582
20124WAT     H160614   3.744   7.665   8.596
20124WAT     H260615   3.596   7.661   8.664
20125WAT      O60616   3.680   3.779   5.450
20125WAT     H160617   3.696   3.733   5.362
20125WAT     H260618   3.604   3.733   5.497
20126WAT      O60619   5.465   1.345   4.680
20126WAT     H160620   5.542   1.289   4.711
20126WAT     H260621   5.383   1.288   4.672
20127WAT      O60622   6.613   3.678   7.073
20127WAT     H160623   6.590   3.583   7.095
20127WAT     H260624   6.569   3.739   7.139
20128WAT      O60625   4.030   8.648   8.517
20128WAT     H160626   4.044   8.664   8.420
20128WAT     H260627   3.973   8.721   8.556
20129WAT      O60628   5.846   4.243   4.872
20129WAT     H160629   5.824   4.281   4.782
20129WAT     H260630   5.781   4.277   4.939
20130WAT      O60631   0.673   9.163   8.157
20130WAT     H160632   0.741   9.190   8.225
20130WAT     H260633   0.591   9.220   8.167
20131WAT      O60634   4.126   9.807   9.323
20131WAT     H160635   4.045   9.840   9.371
20131WAT     H260636   4.109   9.714   9.288
20132WAT      O60637   4.009   6.022   4.692
20132WAT     H160638   4.054   5.947   4.741
20132WAT     H260639   3.938   6.061   4.751
20133WAT      O60640   8.136   4.685   5.009
20133WAT     H160641   8.104   4.770   4.967
20133WAT     H260642   8.060   4.641   5.057
20134WAT      O60643   6.339   6.288   0.837
20134WAT     H160644   6.378   6.380   0.841
20134WAT     H260645   6.394   6.226   0.893
20135WAT      O60646   0.026   0.877   4.277
20135WAT     H160647  -0.057   0.821   4.278
20135WAT     H260648   0.090   0.842   4.209
20136WAT      O60649   8.337   6.952   2.509
20136WAT     H160650   8.327   6.995   2.599
20136WAT     H260651   8.347   7.023   2.439
20137WAT      O60652   7.281   6.266   0.106
20137WAT     H160653   7.229   6.237   0.187
20137WAT     H260654   7.223   6.320   0.046
20138WAT      O60655   8.868   5.668   2.092
20138WAT     H160656   8.874   5.572   2.064
20138WAT     H260657   8.775   5.701   2.080
20139WAT      O60658   5.328   4.040   0.304
20139WAT     H160659   5.244   4.053   0.251
20139WAT     H260660   5.315   3.968   0.371
20140WAT      O60661   6.256   5.988   3.370
20140WAT     H160662   6.227   5.892   3.376
20140WAT     H260663   6.353   5.992   3.349
20141WAT      O60664   0.434   8.316   2.000
20141WAT     H160665   0.336   8.329   2.019
20141WAT     H260666   0.447   8.227   1.957
20142WAT      O60667   1.690   8.280   5.402
20142WAT     H160668   1.647   8.294   5.491
20142WAT     H260669   1.627   8.232   5.341
20143WAT      O60670   0.702   5.019   3.061
20143WAT     H160671   0.606   5.047   3.066
20143WAT     H260672   0.710   4.932   3.011
20144WAT      O60673   3.042   3.757   6.924
20144WAT     H160674   3.114   3.827   6.924
20144WAT     H260675   3.012   3.742   7.018
20145WAT      O60676   0.533   3.860   2.552
20145WAT     H160677   0.476   3.886   2.474
20145WAT     H260678   0.556   3.763   2.545
20146WAT      O60679   6.788   3.272   9.427
20146WAT     H160680   6.712   3.279   9.491
20146WAT     H260681   6.779   3.344   9.358
20147WAT      O60682   6.197   4.226   5.743
20147WAT     H160683   6.126   4.222   5.672
20147WAT     H260684   6.284   4.197   5.704
20148WAT      O60685   6.586   9.410   2.140
20148WAT     H160686   6.532   9.346   2.085
20148WAT     H260687   6.680   9.412   2.105
20149WAT      O60688   7.957   0.095   7.253
20149WAT     H160689   7.971   0.186   7.213
20149WAT     H260690   7.894   0.103   7.331
20150WAT      O60691   6.543   4.252   1.962
20150WAT     H160692   6.593   4.165   1.962
20150WAT     H260693   6.546   4.292   2.053
20151WAT      O60694   8.498   1.777   4.285
20151WAT     H160695   8.478   1.737   4.196
20151WAT     H260696   8.430   1.747   4.352
20152WAT      O60697   5.385   4.691   1.088
20152WAT     H160698   5.306   4.631   1.102
20152WAT     H260699   5.396   4.750   1.167
20153WAT      O60700   9.478   7.330   1.303
20153WAT     H160701   9.570   7.321   1.266
20153WAT     H260702   9.415   7.356   1.229
20154WAT      O60703   0.154   7.198   0.628
20154WAT     H160704   0.199   7.208   0.540
20154WAT     H260705   0.192   7.120   0.677
20155WAT      O60706   8.363   0.324   6.368
20155WAT     H160707   8.288   0.257   6.370
20155WAT     H260708   8.450   0.277   6.361
20156WAT      O60709   8.788   3.373   5.014
20156WAT     H160710   8.792   3.309   4.938
20156WAT     H260711   8.864   3.437   5.008
20157WAT      O60712   7.795   1.083   8.859
20157WAT     H160713   7.710   1.082   8.913
20157WAT     H260714   7.779   1.130   8.772
20158WAT      O60715   1.931   1.885   2.894
20158WAT     H160716   1.950   1.972   2.849
20158WAT     H260717   1.965   1.887   2.988
20159WAT      O60718   0.022   4.170   7.732
20159WAT     H160719   0.086   4.111   7.683
20159WAT     H260720   0.062   4.261   7.743
20160WAT      O60721   7.903   8.276   7.920
20160WAT     H160722   7.940   8.183   7.911
20160WAT     H260723   7.966   8.341   7.877
20161WAT      O60724   2.065   0.781   4.869
20161WAT     H160725   2.152   0.779   4.917
20161WAT     H260726   2.060   0.862   4.811
20162WAT      O60727   9.195   5.220   5.874
20162WAT     H160728   9.295   5.229   5.875
20162WAT     H260729   9.167   5.154   5.944
20163WAT      O60730   0.259   8.207   9.431
20163WAT     H160731   0.345   8.248   9.400
20163WAT     H260732   0.221   8.150   9.358
20164WAT      O60733   8.510   2.368   6.791
20164WAT     H160734   8.560   2.427   6.854
20164WAT     H260735   8.567   2.289   6.767
20165WAT      O60736   7.724   7.532   7.696
20165WAT     H160737   7.798   7.540   7.764
20165WAT     H260738   7.637   7.552   7.740
20166WAT      O60739   4.762   4.681   8.923
20166WAT     H160740   4.749   4.685   9.022
20166WAT     H260741   4.678   4.707   8.877
20167WAT      O60742   7.324   2.821   1.175
20167WAT     H160743   7.354   2.917   1.177
20167WAT     H260744   7.225   2.818   1.166
20168WAT      O60745   8.582   7.898   2.569
20168WAT     H160746   8.607   7.900   2.472
20168WAT     H260747   8.654   7.854   2.622
20169WAT      O60748   5.808   4.092   5.181
20169WAT     H160749   5.901   4.084   5.214
20169WAT     H260750   5.756   4.152   5.241
20170WAT      O60751   7.874   9.731   7.716
20170WAT     H160752   7.832   9.689   7.636
20170WAT     H260753   7.968   9.757   7.695
20171WAT      O60754   5.836   4.475   7.923
20171WAT     H160755   5.889   4.453   8.005
20171WAT     H260756   5.895   4.520   7.856
20172WAT      O60757   2.542   9.803   0.965
20172WAT     H160758   2.626   9.853   0.944
20172WAT     H260759   2.472   9.825   0.897
20173WAT      O60760   1.263   7.523   5.348
20173WAT     H160761   1.198   7.494   5.418
20173WAT     H260762   1.260   7.459   5.271
20174WAT      O60763   2.800   5.879   2.551
20174WAT     H160764   2.759   5.818   2.618
20174WAT     H260765   2.742   5.960   2.540
20175WAT      O60766   7.193   2.390   2.253
20175WAT     H160767   7.132   2.348   2.320
20175WAT     H260768   7.280   2.341   2.250
20176WAT      O60769   8.659   1.687   6.978
20176WAT     H160770   8.625   1.673   7.071
20176WAT     H260771   8.684   1.599   6.938
20177WAT      O60772   1.007   7.266   3.111
20177WAT     H160773   1.076   7.283   3.181
20177WAT     H260774   1.052   7.252   3.023
20178WAT      O60775   6.481   3.279   6.831
20178WAT     H160776   6.560   3.325   6.791
20178WAT     H260777   6.425   3.238   6.759
20179WAT      O60778   7.854   3.031   6.963
20179WAT     H160779   7.820   3.073   6.879
20179WAT     H260780   7.895   2.942   6.942
20180WAT      O60781   7.297   5.773   5.293
20180WAT     H160782   7.361   5.841   5.328
20180WAT     H260783   7.216   5.819   5.255
20181WAT      O60784   9.294   4.419   0.462
20181WAT     H160785   9.221   4.353   0.441
20181WAT     H260786   9.294   4.439   0.560
20182WAT      O60787   4.029   9.028   5.908
20182WAT     H160788   4.032   9.010   6.006
20182WAT     H260789   3.937   9.007   5.873
20183WAT      O60790   7.636   9.794   8.448
20183WAT     H160791   7.658   9.724   8.516
20183WAT     H260792   7.720   9.827   8.405
20184WAT      O60793   3.947   7.014   0.830
20184WAT     H160794   3.867   7.065   0.798
20184WAT     H260795   3.959   6.932   0.774
20185WAT      O60796   7.613   2.361   8.564
20185WAT     H160797   7.667   2.278   8.555
20185WAT     H260798   7.534   2.343   8.623
20186WAT      O60799   0.304   5.348   1.848
20186WAT     H160800   0.301   5.437   1.802
20186WAT     H260801   0.297   5.275   1.780
20187WAT      O60802   5.190   7.183   2.192
20187WAT     H160803   5.171   7.186   2.290
20187WAT     H260804   5.276   7.230   2.173
20188WAT      O60805   1.675   3.656   0.203
20188WAT     H160806   1.682   3.600   0.120
20188WAT     H260807   1.717   3.607   0.280
20189WAT      O60808   5.762   1.926   1.803
20189WAT     H160809   5.707   1.871   1.866
20189WAT     H260810   5.849   1.948   1.847
20190WAT      O60811   6.841   6.163   4.128
20190WAT     H160812   6.779   6.242   4.125
20190WAT     H260813   6.892   6.164   4.214
20191WAT      O60814   6.229   3.961   7.290
20191WAT     H160815   6.300   3.916   7.237
20191WAT     H260816   6.254   4.057   7.305
20192WAT      O60817   2.992   6.228   3.294
20192WAT     H160818   3.088   6.206   3.273
20192WAT     H260819   2.953   6.282   3.220
20193WAT      O60820   5.285   8.907   6.239
20193WAT     H160821   5.293   8.900   6.338
20193WAT     H260822   5.372   8.883   6.196
20194WAT      O60823   0.753   2.907   7.488
20194WAT     H160824   0.785   3.001   7.477
20194WAT     H260825   0.663   2.907   7.531
20195WAT      O60826   9.819   9.589   9.891
20195WAT     H160827   9.909   9.585   9.847
20195WAT     H260828   9.764   9.511   9.861
20196WAT      O60829   1.542   2.489   3.011
20196WAT     H160830   1.535   2.460   2.916
20196WAT     H260831   1.573   2.584   3.015
20197WAT      O60832   2.166   2.702   7.246
20197WAT     H160833   2.180   2.801   7.241
20197WAT     H260834   2.103   2.674   7.173
20198WAT      O60835   3.109   2.101   7.493
20198WAT     H160836   3.022   2.148   7.509
20198WAT     H260837   3.138   2.118   7.399
20199WAT      O60838   4.718   6.277   7.268
20199WAT     H160839   4.655   6.233   7.205
20199WAT     H260840   4.669   6.306   7.350
20200WAT      O60841   2.478   6.793   7.453
20200WAT     H160842   2.492   6.775   7.551
20200WAT     H260843   2.500   6.710   7.401
20201WAT      O60844   7.634   9.453   3.858
20201WAT     H160845   7.579   9.535   3.845
20201WAT     H260846   7.703   9.447   3.786
20202WAT      O60847   7.787   5.528   5.649
20202WAT     H160848   7.814   5.432   5.653
20202WAT     H260849   7.819   5.575   5.732
20203WAT      O60850   7.132   2.233   5.948
20203WAT     H160851   7.190   2.224   5.867
20203WAT     H260852   7.137   2.327   5.982
20204WAT      O60853   0.587   3.200   5.911
20204WAT     H160854   0.595   3.286   5.961
20204WAT     H260855   0.612   3.215   5.815
20205WAT      O60856   9.092   8.118   6.442
20205WAT     H160857   9.166   8.110   6.375
20205WAT     H260858   9.004   8.106   6.395
20206WAT      O60859   9.600   5.570   5.454
20206WAT     H160860   9.689   5.534   5.426
20206WAT     H260861   9.558   5.509   5.520
20207WAT      O60862   5.821   5.961   1.182
20207WAT     H160863   5.793   6.012   1.100
20207WAT     H260864   5.740   5.921   1.225
20208WAT      O60865   3.056   0.979   3.884
20208WAT     H160866   3.055   1.042   3.961
20208WAT     H260867   3.083   0.888   3.915
20209WAT      O60868   6.167   0.082   0.523
20209WAT     H160869   6.102   0.139   0.473
20209WAT     H260870   6.189   0.001   0.469
20210WAT      O60871   8.207   1.249   6.997
20210WAT     H160872   8.120   1.283   6.961
20210WAT     H260873   8.188   1.184   7.071
20211WAT      O60874   7.904   7.785   9.653
20211WAT     H160875   7.884   7.872   9.698
20211WAT     H260876   7.991   7.749   9.687
20212WAT      O60877   8.330   2.879   6.224
20212WAT     H160878   8.257   2.827   6.269
20212WAT     H260879   8.290   2.956   6.173
20213WAT      O60880   4.022   9.679   1.190
20213WAT     H160881   3.968   9.645   1.112
20213WAT     H260882   3.983   9.644   1.275
20214WAT      O60883   5.572   5.484   3.724
20214WAT     H160884   5.652   5.461   3.669
20214WAT     H260885   5.580   5.579   3.756
20215WAT      O60886   9.399   5.875   6.206
20215WAT     H160887   9.467   5.847   6.138
20215WAT     H260888   9.432   5.957   6.253
20216WAT      O60889   9.458   1.433   0.669
20216WAT     H160890   9.391   1.372   0.710
20216WAT     H260891   9.545   1.425   0.718
20217WAT      O60892   8.794   6.942   8.596
20217WAT     H160893   8.819   7.035   8.626
20217WAT     H260894   8.746   6.895   8.670
20218WAT      O60895   3.292   0.231   7.152
20218WAT     H160896   3.244   0.268   7.232
20218WAT     H260897   3.343   0.304   7.106
20219WAT      O60898   2.348   2.217   7.473
20219WAT     H160899   2.397   2.225   7.560
20219WAT     H260900   2.290   2.297   7.460
20220WAT      O60901   1.880   7.943   3.840
20220WAT     H160902   1.945   7.867   3.852
20220WAT     H260903   1.883   7.974   3.746
20221WAT      O60904   1.540   9.480   7.806
20221WAT     H160905   1.476   9.557   7.800
20221WAT     H260906   1.547   9.436   7.716
20222WAT      O60907   1.285   1.179   1.798
20222WAT     H160908   1.365   1.195   1.856
20222WAT     H260909   1.307   1.113   1.727
20223WAT      O60910   6.733   0.193   1.968
20223WAT     H160911   6.736   0.107   2.019
20223WAT     H260912   6.765   0.177   1.874
20224WAT      O60913   9.774   1.618   9.169
20224WAT     H160914   9.829   1.548   9.124
20224WAT     H260915   9.794   1.619   9.267
20225WAT      O60916   3.545   8.801   6.425
20225WAT     H160917   3.482   8.723   6.436
20225WAT     H260918   3.631   8.780   6.471
20226WAT      O60919   6.265   5.997   1.782
20226WAT     H160920   6.235   6.091   1.796
20226WAT     H260921   6.268   5.976   1.684
20227WAT      O60922   1.891   8.988   2.355
20227WAT     H160923   1.809   9.033   2.391
20227WAT     H260924   1.972   9.025   2.401
20228WAT      O60925   5.438   2.799   3.936
20228WAT     H160926   5.513   2.866   3.941
20228WAT     H260927   5.463   2.717   3.988
20229WAT      O60928   9.317   2.377   6.298
20229WAT     H160929   9.317   2.292   6.350
20229WAT     H260930   9.243   2.436   6.331
20230WAT      O60931   3.775   0.478   7.120
20230WAT     H160932   3.863   0.482   7.167
20230WAT     H260933   3.701   0.487   7.186
20231WAT      O60934   2.085   2.965   6.673
20231WAT     H160935   2.004   2.911   6.649
20231WAT     H260936   2.073   3.059   6.642
20232WAT      O60937   0.003   6.781   0.040
20232WAT     H160938   0.074   6.802  -0.028
20232WAT     H260939  -0.053   6.705   0.007
20233WAT      O60940   2.057   2.669   6.982
20233WAT     H160941   2.004   2.636   6.903
20233WAT     H260942   2.032   2.763   7.002
20234WAT      O60943   3.125   2.701   1.039
20234WAT     H160944   3.190   2.678   1.112
20234WAT     H260945   3.108   2.799   1.038
20235WAT      O60946   4.140   9.555   9.891
20235WAT     H160947   4.071   9.625   9.869
20235WAT     H260948   4.188   9.529   9.807
20236WAT      O60949   6.481   1.770   8.806
20236WAT     H160950   6.463   1.824   8.724
20236WAT     H260951   6.580   1.763   8.820
20237WAT      O60952   0.483   5.039   6.313
20237WAT     H160953   0.514   5.121   6.265
20237WAT     H260954   0.441   5.066   6.400
20238WAT      O60955   8.593   0.948   1.598
20238WAT     H160956   8.632   0.863   1.633
20238WAT     H260957   8.513   0.928   1.542
20239WAT      O60958   5.499   6.923   7.691
20239WAT     H160959   5.524   6.964   7.604
20239WAT     H260960   5.580   6.920   7.751
20240WAT      O60961   6.619   8.077   7.360
20240WAT     H160962   6.556   8.148   7.392
20240WAT     H260963   6.592   8.047   7.269
20241WAT      O60964   7.809   3.964   6.553
20241WAT     H160965   7.894   3.917   6.579
20241WAT     H260966   7.747   3.898   6.510
20242WAT      O60967   2.636   8.291   4.613
20242WAT     H160968   2.697   8.341   4.551
20242WAT     H260969   2.543   8.324   4.601
20243WAT      O60970   3.679   2.632   8.058
20243WAT     H160971   3.646   2.694   8.129
20243WAT     H260972   3.733   2.683   7.991
20244WAT      O60973   9.814   0.604   3.199
20244WAT     H160974   9.789   0.549   3.119
20244WAT     H260975   9.788   0.555   3.282
20245WAT      O60976   3.873   3.550   3.306
20245WAT     H160977   3.923   3.622   3.355
20245WAT     H260978   3.782   3.582   3.283
20246WAT      O60979   1.987   9.030   1.204
20246WAT     H160980   2.008   9.128   1.198
20246WAT     H260981   2.018   8.994   1.292
20247WAT      O60982   1.165   7.753   3.745
20247WAT     H160983   1.146   7.728   3.840
20247WAT     H260984   1.262   7.740   3.726
20248WAT      O60985   2.532   5.982   3.502
20248WAT     H160986   2.576   5.953   3.587
20248WAT     H260987   2.513   5.902   3.446
20249WAT      O60988   1.323   1.000   9.041
20249WAT     H160989   1.294   1.055   9.118
20249WAT     H260990   1.259   0.923   9.028
20250WAT      O60991   2.877   5.570   3.621
20250WAT     H160992   2.840   5.489   3.576
20250WAT     H260993   2.923   5.543   3.706
20251WAT      O60994   3.979   8.057   7.034
20251WAT     H160995   3.960   8.152   7.062
20251WAT     H260996   3.977   7.998   7.114
20252WAT      O60997   9.206   4.919   1.053
20252WAT     H160998   9.168   4.833   1.019
20252WAT     H260999   9.139   4.992   1.040
20253WAT      O61000   7.684   8.312   8.101
20253WAT     H161001   7.765   8.286   8.049
20253WAT     H261002   7.687   8.411   8.119
20254WAT      O61003   8.237   6.232   7.601
20254WAT     H161004   8.225   6.249   7.503
20254WAT     H261005   8.315   6.284   7.634
20255WAT      O61006   6.791   2.938   3.969
20255WAT     H161007   6.749   3.016   4.016
20255WAT     H261008   6.761   2.935   3.874
20256WAT      O61009   9.247   9.423   7.924
20256WAT     H161010   9.193   9.507   7.921
20256WAT     H261011   9.335   9.441   7.969
20257WAT      O61012   6.615   6.011   0.383
20257WAT     H161013   6.614   5.989   0.481
20257WAT     H261014   6.545   6.080   0.364
20258WAT      O61015   7.327   7.051   8.449
20258WAT     H161016   7.264   7.105   8.392
20258WAT     H261017   7.341   6.962   8.407
20259WAT      O61018   4.035   0.812   7.301
20259WAT     H161019   4.123   0.764   7.312
20259WAT     H261020   4.041   0.874   7.223
20260WAT      O61021   7.515   0.756   1.346
20260WAT     H161022   7.427   0.719   1.376
20260WAT     H261023   7.538   0.836   1.401
20261WAT      O61024   0.445   2.261   8.101
20261WAT     H161025   0.526   2.210   8.072
20261WAT     H261026   0.437   2.257   8.200
20262WAT      O61027   9.664   1.705   2.497
20262WAT     H161028   9.652   1.729   2.594
20262WAT     H261029   9.608   1.625   2.476
20263WAT      O61030   8.200   8.873   8.138
20263WAT     H161031   8.277   8.935   8.151
20263WAT     H261032   8.210   8.795   8.199
20264WAT      O61033   0.609   2.267   6.125
20264WAT     H161034   0.616   2.176   6.085
20264WAT     H261035   0.693   2.289   6.175
20265WAT      O61036   2.059   7.516   1.180
20265WAT     H161037   2.014   7.604   1.195
20265WAT     H261038   1.998   7.442   1.208
20266WAT      O61039   7.636   2.790   4.319
20266WAT     H161040   7.703   2.844   4.270
20266WAT     H261041   7.644   2.807   4.418
20267WAT      O61042   5.551   5.331   8.831
20267WAT     H161043   5.565   5.239   8.795
20267WAT     H261044   5.496   5.325   8.915
20268WAT      O61045   8.750   1.821   4.238
20268WAT     H161046   8.783   1.913   4.259
20268WAT     H261047   8.656   1.811   4.271
20269WAT      O61048   1.079   9.499   3.045
20269WAT     H161049   1.068   9.575   2.980
20269WAT     H261050   1.173   9.497   3.078
20270WAT      O61051   8.491   2.371   6.423
20270WAT     H161052   8.563   2.414   6.477
20270WAT     H261053   8.513   2.274   6.408
20271WAT      O61054   8.074   3.949   9.637
20271WAT     H161055   8.038   3.966   9.545
20271WAT     H261056   8.140   4.020   9.661
20272WAT      O61057   9.638   7.559   8.087
20272WAT     H161058   9.732   7.588   8.105
20272WAT     H261059   9.593   7.538   8.174
20273WAT      O61060   6.593   4.021   6.623
20273WAT     H161061   6.661   3.951   6.644
20273WAT     H261062   6.517   3.980   6.572
20274WAT      O61063   6.272   8.103   3.417
20274WAT     H161064   6.356   8.066   3.456
20274WAT     H261065   6.291   8.143   3.327
20275WAT      O61066   2.121   7.615   0.907
20275WAT     H161067   2.156   7.709   0.914
20275WAT     H261068   2.058   7.597   0.982
20276WAT      O61069   9.147   0.390   9.824
20276WAT     H161070   9.076   0.356   9.763
20276WAT     H261071   9.236   0.387   9.777
20277WAT      O61072   0.658   8.977   5.291
20277WAT     H161073   0.569   9.021   5.301
20277WAT     H261074   0.699   8.962   5.381
20278WAT      O61075   3.495   4.793   2.155
20278WAT     H161076   3.462   4.887   2.166
20278WAT     H261077   3.594   4.793   2.150
20279WAT      O61078   1.757   0.830   6.513
20279WAT     H161079   1.805   0.836   6.425
20279WAT     H261080   1.824   0.811   6.585
20280WAT      O61081   9.790   0.493   9.362
20280WAT     H161082   9.754   0.440   9.438
20280WAT     H261083   9.888   0.478   9.353
20281WAT      O61084   5.495   8.753   5.337
20281WAT     H161085   5.421   8.742   5.403
20281WAT     H261086   5.474   8.830   5.277
20282WAT      O61087   3.642   8.456   5.894
20282WAT     H161088   3.702   8.377   5.881
20282WAT     H261089   3.674   8.509   5.973
20283WAT      O61090   3.118   3.212   9.268
20283WAT     H161091   3.155   3.223   9.360
20283WAT     H261092   3.026   3.252   9.264
20284WAT      O61093   8.779   7.428   8.406
20284WAT     H161094   8.791   7.399   8.312
20284WAT     H261095   8.748   7.523   8.408
20285WAT      O61096   9.435   4.200   3.971
20285WAT     H161097   9.351   4.198   3.916
20285WAT     H261098   9.415   4.169   4.064
20286WAT      O61099   0.911   0.338   9.455
20286WAT     H161100   0.928   0.310   9.549
20286WAT     H261101   0.995   0.329   9.402
20287WAT      O61102   7.786   0.453   5.773
20287WAT     H161103   7.740   0.401   5.845
20287WAT     H261104   7.843   0.524   5.814
20288WAT      O61105   4.853   4.861   7.917
20288WAT     H161106   4.940   4.816   7.935
20288WAT     H261107   4.816   4.899   8.002
20289WAT      O61108   7.250   5.131   0.669
20289WAT     H161109   7.319   5.201   0.688
20289WAT     H261110   7.233   5.077   0.752
20290WAT      O61111   5.617   4.813   2.254
20290WAT     H161112   5.710   4.849   2.260
20290WAT     H261113   5.578   4.803   2.345
20291WAT      O61114   1.622   3.537   7.040
20291WAT     H161115   1.650   3.623   7.084
20291WAT     H261116   1.583   3.476   7.108
20292WAT      O61117   6.565   0.463   0.267
20292WAT     H161118   6.535   0.553   0.300
20292WAT     H261119   6.593   0.471   0.171
20293WAT      O61120   1.081   6.535   7.111
20293WAT     H161121   1.119   6.604   7.174
20293WAT     H261122   0.982   6.535   7.118
20294WAT      O61123   1.262   7.937   4.445
20294WAT     H161124   1.339   7.883   4.411
20294WAT     H261125   1.281   8.034   4.430
20295WAT      O61126   3.629   6.194   0.507
20295WAT     H161127   3.673   6.237   0.586
20295WAT     H261128   3.695   6.184   0.433
20296WAT      O61129   6.829   2.487   4.529
20296WAT     H161130   6.898   2.556   4.507
20296WAT     H261131   6.845   2.405   4.475
20297WAT      O61132   1.676   0.365   0.579
20297WAT     H161133   1.611   0.391   0.508
20297WAT     H261134   1.763   0.339   0.537
20298WAT      O61135   6.844   0.551   3.104
20298WAT     H161136   6.802   0.632   3.062
20298WAT     H261137   6.782   0.513   3.173
20299WAT      O61138   0.786   5.707   1.080
20299WAT     H161139   0.838   5.782   1.040
20299WAT     H261140   0.690   5.731   1.084
20300WAT      O61141   6.084   0.087   3.895
20300WAT     H161142   6.139   0.035   3.830
20300WAT     H261143   6.049   0.025   3.966
20301WAT      O61144   9.552   6.566   4.637
20301WAT     H161145   9.523   6.622   4.560
20301WAT     H261146   9.473   6.524   4.680
20302WAT      O61147   9.622   0.365   7.335
20302WAT     H161148   9.573   0.452   7.343
20302WAT     H261149   9.603   0.308   7.415
20303WAT      O61150   5.877   1.078   2.280
20303WAT     H161151   5.834   1.061   2.191
20303WAT     H261152   5.899   0.990   2.323
20304WAT      O61153   1.166   4.332   3.081
20304WAT     H161154   1.164   4.408   3.145
20304WAT     H261155   1.195   4.366   2.991
20305WAT      O61156   7.454   6.702   5.514
20305WAT     H161157   7.384   6.682   5.446
20305WAT     H261158   7.485   6.796   5.503
20306WAT      O61159   1.884   6.292   6.943
20306WAT     H161160   1.978   6.311   6.915
20306WAT     H261161   1.885   6.233   7.023
20307WAT      O61162   9.423   4.095   9.859
20307WAT     H161163   9.510   4.048   9.842
20307WAT     H261164   9.395   4.079   9.954
20308WAT      O61165   0.173   3.286   2.235
20308WAT     H161166   0.118   3.304   2.153
20308WAT     H261167   0.266   3.318   2.220
20309WAT      O61168   2.910   7.319   7.515
20309WAT     H161169   2.914   7.292   7.419
20309WAT     H261170   2.817   7.347   7.537
20310WAT      O61171   4.175   9.300   6.637
20310WAT     H161172   4.198   9.320   6.542
20310WAT     H261173   4.248   9.247   6.679
20311WAT      O61174   9.846   4.625   5.879
20311WAT     H161175   9.786   4.694   5.919
20311WAT     H261176   9.926   4.612   5.939
20312WAT      O61177   3.337   1.203   9.641
20312WAT     H161178   3.290   1.257   9.571
20312WAT     H261179   3.427   1.243   9.659
20313WAT      O61180   1.665   1.433   3.764
20313WAT     H161181   1.725   1.411   3.840
20313WAT     H261182   1.611   1.353   3.739
20314WAT      O61183   3.649   7.737   3.565
20314WAT     H161184   3.747   7.720   3.569
20314WAT     H261185   3.612   7.747   3.657
20315WAT      O61186   4.553   8.245   0.746
20315WAT     H161187   4.567   8.212   0.653
20315WAT     H261188   4.457   8.231   0.772
20316WAT      O61189   6.914   7.217   3.277
20316WAT     H161190   6.888   7.176   3.189
20316WAT     H261191   6.848   7.288   3.301
20317WAT      O61192   5.756   8.065   5.805
20317WAT     H161193   5.681   8.000   5.815
20317WAT     H261194   5.720   8.155   5.781
20318WAT      O61195   5.776   6.900   0.766
20318WAT     H161196   5.811   6.937   0.851
20318WAT     H261197   5.777   6.971   0.695
20319WAT      O61198   3.863   4.338   7.961
20319WAT     H161199   3.816   4.425   7.977
20319WAT     H261200   3.942   4.331   8.021
20320WAT      O61201   2.079   9.644   3.576
20320WAT     H161202   2.105   9.559   3.530
20320WAT     H261203   2.036   9.623   3.664
20321WAT      O61204   5.410   2.438   4.287
20321WAT     H161205   5.356   2.380   4.227
20321WAT     H261206   5.354   2.469   4.364
20322WAT      O61207   9.593   7.946   1.219
20322WAT     H161208   9.513   7.979   1.268
20322WAT     H261209   9.593   7.846   1.219
20323WAT      O61210   8.090   3.108   5.707
20323WAT     H161211   8.008   3.079   5.658
20323WAT     H261212   8.155   3.032   5.711
20324WAT      O61213   3.015   5.649   1.197
20324WAT     H161214   3.077   5.597   1.256
20324WAT     H261215   3.002   5.600   1.111
20325WAT      O61216   6.751   6.403   5.296
20325WAT     H161217   6.755   6.314   5.251
20325WAT     H261218   6.760   6.475   5.227
20326WAT      O61219   3.834   3.371   4.727
20326WAT     H161220   3.890   3.397   4.806
20326WAT     H261221   3.821   3.450   4.668
20327WAT      O61222   1.416   4.022   5.328
20327WAT     H161223   1.450   4.085   5.399
20327WAT     H261224   1.319   4.003   5.344
20328WAT      O61225   9.737   4.453   8.655
20328WAT     H161226   9.818   4.500   8.619
20328WAT     H261227   9.709   4.381   8.592
20329WAT      O61228   6.464   8.322   1.288
20329WAT     H161229   6.454   8.226   1.310
20329WAT     H261230   6.503   8.332   1.196
20330WAT      O61231   6.786   0.528   4.294
20330WAT     H161232   6.758   0.478   4.212
20330WAT     H261233   6.727   0.608   4.306
20331WAT      O61234   0.007   4.369   5.645
20331WAT     H161235  -0.004   4.275   5.677
20331WAT     H261236  -0.035   4.432   5.711
20332WAT      O61237   9.857   4.360   8.168
20332WAT     H161238   9.927   4.410   8.117
20332WAT     H261239   9.896   4.323   8.252
20333WAT      O61240   1.891   4.571   8.280
20333WAT     H161241   1.817   4.605   8.222
20333WAT     H261242   1.958   4.644   8.294
20334WAT      O61243   1.673   5.370   7.628
20334WAT     H161244   1.677   5.317   7.713
20334WAT     H261245   1.600   5.438   7.634
20335WAT      O61246   1.129   7.350   1.861
20335WAT     H161247   1.188   7.277   1.894
20335WAT     H261248   1.097   7.328   1.769
20336WAT      O61249   0.165   2.282   0.190
20336WAT     H161250   0.068   2.309   0.184
20336WAT     H261251   0.184   2.212   0.121
20337WAT      O61252   7.131   1.535   3.480
20337WAT     H161253   7.164   1.623   3.447
20337WAT     H261254   7.043   1.514   3.437
20338WAT      O61255   4.017   5.757   0.145
20338WAT     H161256   4.028   5.705   0.060
20338WAT     H261257   3.960   5.837   0.128
20339WAT      O61258   4.412   5.159   3.377
20339WAT     H161259   4.444   5.140   3.470
20339WAT     H261260   4.423   5.077   3.321
20340WAT      O61261   1.124   9.269   9.458
20340WAT     H161262   1.211   9.264   9.411
20340WAT     H261263   1.103   9.181   9.500
20341WAT      O61264   8.623   0.587   9.751
20341WAT     H161265   8.671   0.505   9.784
20341WAT     H261266   8.526   0.565   9.738
20342WAT      O61267   8.149   9.769   7.691
20342WAT     H161268   8.226   9.790   7.751
20342WAT     H261269   8.171   9.690   7.635
20343WAT      O61270   6.481   8.369   9.430
20343WAT     H161271   6.508   8.383   9.526
20343WAT     H261272   6.382   8.362   9.424
20344WAT      O61273   0.246   2.601   2.943
20344WAT     H161274   0.220   2.504   2.940
20344WAT     H261275   0.286   2.621   3.033
20345WAT      O61276   5.140   8.048   8.837
20345WAT     H161277   5.126   7.983   8.763
20345WAT     H261278   5.209   8.115   8.810
20346WAT      O61279   4.966   5.192   9.048
20346WAT     H161280   4.924   5.282   9.039
20346WAT     H261281   5.036   5.181   8.977
20347WAT      O61282   7.152   0.887   0.994
20347WAT     H161283   7.135   0.868   0.897
20347WAT     H261284   7.250   0.894   1.011
20348WAT      O61285   7.522   3.411   1.928
20348WAT     H161286   7.553   3.383   2.018
20348WAT     H261287   7.591   3.470   1.885
20349WAT      O61288   1.106   4.241   8.584
20349WAT     H161289   1.174   4.309   8.613
20349WAT     H261290   1.104   4.237   8.485
20350WAT      O61291   0.411   0.757   6.301
20350WAT     H161292   0.315   0.753   6.274
20350WAT     H261293   0.459   0.823   6.244
20351WAT      O61294   0.359   3.623   3.982
20351WAT     H161295   0.365   3.610   3.883
20351WAT     H261296   0.448   3.603   4.023
20352WAT      O61297   4.569   2.912   9.630
20352WAT     H161298   4.567   2.836   9.695
20352WAT     H261299   4.661   2.949   9.624
20353WAT      O61300   0.428   5.110   5.570
20353WAT     H161301   0.427   5.126   5.668
20353WAT     H261302   0.490   5.175   5.526
20354WAT      O61303   6.094   7.608   6.376
20354WAT     H161304   6.063   7.568   6.462
20354WAT     H261305   6.117   7.704   6.390
20355WAT      O61306   8.614   9.709   4.436
20355WAT     H161307   8.663   9.681   4.519
20355WAT     H261308   8.656   9.665   4.357
20356WAT      O61309   3.217   2.990   5.865
20356WAT     H161310   3.299   2.976   5.810
20356WAT     H261311   3.137   2.956   5.816
20357WAT      O61312   7.534   7.341   9.029
20357WAT     H161313   7.577   7.253   9.050
20357WAT     H261314   7.473   7.331   8.951
20358WAT      O61315   4.713   5.661   6.541
20358WAT     H161316   4.789   5.633   6.600
20358WAT     H261317   4.748   5.690   6.452
20359WAT      O61318   7.550   8.553   0.620
20359WAT     H161319   7.473   8.598   0.575
20359WAT     H261320   7.539   8.454   0.613
20360WAT      O61321   7.024   0.561   4.404
20360WAT     H161322   7.043   0.659   4.407
20360WAT     H261323   6.930   0.546   4.375
20361WAT      O61324   2.852   6.193   6.100
20361WAT     H161325   2.806   6.113   6.138
20361WAT     H261326   2.784   6.261   6.073
20362WAT      O61327   2.604   6.603   8.475
20362WAT     H161328   2.679   6.635   8.417
20362WAT     H261329   2.574   6.677   8.535
20363WAT      O61330   4.478   8.975   1.579
20363WAT     H161331   4.467   8.876   1.574
20363WAT     H261332   4.445   9.017   1.494
20364WAT      O61333   1.245   1.127   4.047
20364WAT     H161334   1.288   1.142   4.136
20364WAT     H261335   1.201   1.211   4.017
20365WAT      O61336   0.739   8.734   5.122
20365WAT     H161337   0.688   8.802   5.175
20365WAT     H261338   0.730   8.756   5.024
20366WAT      O61339   4.140   7.631   8.930
20366WAT     H161340   4.139   7.630   8.830
20366WAT     H261341   4.050   7.660   8.964
20367WAT      O61342   7.500   2.027   8.799
20367WAT     H161343   7.599   2.041   8.800
20367WAT     H261344   7.475   1.973   8.719
20368WAT      O61345   7.679   4.454   3.730
20368WAT     H161346   7.662   4.442   3.828
20368WAT     H261347   7.639   4.540   3.700
20369WAT      O61348   6.112   5.122   9.824
20369WAT     H161349   6.052   5.044   9.806
20369WAT     H261350   6.199   5.088   9.861
20370WAT      O61351   7.149   0.723   8.958
20370WAT     H161352   7.195   0.812   8.962
20370WAT     H261353   7.179   0.674   8.875
20371WAT      O61354   0.905   3.344   5.884
20371WAT     H161355   0.862   3.348   5.794
20371WAT     H261356   0.861   3.410   5.945
20372WAT      O61357   0.578   4.666   7.682
20372WAT     H161358   0.566   4.744   7.621
20372WAT     H261359   0.612   4.587   7.630
20373WAT      O61360   4.692   3.260   3.299
20373WAT     H161361   4.669   3.324   3.226
20373WAT     H261362   4.790   3.239   3.296
20374WAT      O61363   1.381   5.205   9.636
20374WAT     H161364   1.357   5.164   9.549
20374WAT     H261365   1.404   5.302   9.622
20375WAT      O61366   6.196   8.148   5.695
20375WAT     H161367   6.129   8.074   5.705
20375WAT     H261368   6.205   8.172   5.598
20376WAT      O61369   2.336   2.542   1.750
20376WAT     H161370   2.346   2.619   1.814
20376WAT     H261371   2.285   2.572   1.669
20377WAT      O61372   5.915   0.682   7.831
20377WAT     H161373   5.936   0.635   7.745
20377WAT     H261374   5.882   0.616   7.898
20378WAT      O61375   1.890   9.086   6.759
20378WAT     H161376   1.869   9.142   6.839
20378WAT     H261377   1.806   9.070   6.707
20379WAT      O61378   2.845   1.818   2.009
20379WAT     H161379   2.810   1.909   1.988
20379WAT     H261380   2.777   1.750   1.983
20380WAT      O61381   5.464   7.055   3.889
20380WAT     H161382   5.417   7.017   3.809
20380WAT     H261383   5.422   7.019   3.972
20381WAT      O61384   5.097   9.599   5.722
20381WAT     H161385   5.009   9.586   5.768
20381WAT     H261386   5.155   9.519   5.739
20382WAT      O61387   1.959   4.042   2.187
20382WAT     H161388   1.965   3.987   2.270
20382WAT     H261389   1.894   4.116   2.201
20383WAT      O61390   8.417   3.053   9.269
20383WAT     H161391   8.408   3.112   9.189
20383WAT     H261392   8.375   2.964   9.249
20384WAT      O61393   7.905   9.133   4.725
20384WAT     H161394   7.897   9.150   4.823
20384WAT     H261395   7.813   9.123   4.686
20385WAT      O61396   0.773   0.835   5.359
20385WAT     H161397   0.713   0.824   5.438
20385WAT     H261398   0.723   0.814   5.275
20386WAT      O61399   8.969   2.476   5.778
20386WAT     H161400   9.049   2.510   5.828
20386WAT     H261401   8.980   2.496   5.681
20387WAT      O61402   0.194   0.485   8.505
20387WAT     H161403   0.190   0.565   8.444
20387WAT     H261404   0.241   0.510   8.589
20388WAT      O61405   9.430   9.269   8.951
20388WAT     H161406   9.407   9.176   8.979
20388WAT     H261407   9.430   9.274   8.851
20389WAT      O61408   3.830   0.129   7.849
20389WAT     H161409   3.813   0.031   7.852
20389WAT     H261410   3.819   0.163   7.756
20390WAT      O61411   6.936   2.391   9.714
20390WAT     H161412   6.851   2.443   9.722
20390WAT     H261413   6.915   2.294   9.717
20391WAT      O61414   5.382   8.283   0.053
20391WAT     H161415   5.419   8.209   0.109
20391WAT     H261416   5.312   8.332   0.105
20392WAT      O61417   3.337   9.555   4.859
20392WAT     H161418   3.329   9.647   4.820
20392WAT     H261419   3.374   9.560   4.952
20393WAT      O61420   9.819   7.400   2.420
20393WAT     H161421   9.897   7.461   2.430
20393WAT     H261422   9.849   7.305   2.432
20394WAT      O61423   9.642   8.637   6.567
20394WAT     H161424   9.732   8.629   6.610
20394WAT     H261425   9.615   8.733   6.565
20395WAT      O61426   6.516   9.173   0.957
20395WAT     H161427   6.506   9.167   1.057
20395WAT     H261428   6.432   9.141   0.914
20396WAT      O61429   4.523   1.772   4.379
20396WAT     H161430   4.444   1.830   4.359
20396WAT     H261431   4.516   1.686   4.328
20397WAT      O61432   1.912   8.868   6.415
20397WAT     H161433   1.954   8.935   6.354
20397WAT     H261434   1.959   8.870   6.504
20398WAT      O61435   6.720   4.439   0.994
20398WAT     H161436   6.743   4.353   0.947
20398WAT     H261437   6.800   4.471   1.046
20399WAT      O61438   2.528   5.678   6.164
20399WAT     H161439   2.502   5.758   6.109
20399WAT     H261440   2.465   5.667   6.240
20400WAT      O61441   7.295   4.695   0.337
20400WAT     H161442   7.384   4.694   0.292
20400WAT     H261443   7.300   4.753   0.419
20401WAT      O61444   4.054   0.272   3.173
20401WAT     H161445   4.013   0.189   3.136
20401WAT     H261446   4.108   0.250   3.254
20402WAT      O61447   6.092   6.349   8.147
20402WAT     H161448   6.067   6.352   8.244
20402WAT     H261449   6.063   6.261   8.108
20403WAT      O61450   7.899   2.245   5.845
20403WAT     H161451   7.965   2.171   5.835
20403WAT     H261452   7.814   2.220   5.797
20404WAT      O61453   4.495   8.823   6.918
20404WAT     H161454   4.542   8.843   7.003
20404WAT     H261455   4.557   8.835   6.841
20405WAT      O61456   7.070   2.137   8.995
20405WAT     H161457   7.007   2.061   9.010
20405WAT     H261458   7.135   2.141   9.071
20406WAT      O61459   1.276   3.538   2.944
20406WAT     H161460   1.261   3.537   3.043
20406WAT     H261461   1.298   3.446   2.912
20407WAT      O61462   5.109   3.090   7.045
20407WAT     H161463   5.107   2.994   7.074
20407WAT     H261464   5.197   3.131   7.070
20408WAT      O61465   0.830   7.346   1.830
20408WAT     H161466   0.887   7.338   1.911
20408WAT     H261467   0.841   7.264   1.774
20409WAT      O61468   3.000   7.554   3.253
20409WAT     H161469   3.055   7.493   3.311
20409WAT     H261470   3.013   7.528   3.157
20410WAT      O61471   0.347   8.484   6.341
20410WAT     H161472   0.361   8.391   6.308
20410WAT     H261473   0.397   8.497   6.427
20411WAT      O61474   0.858   4.110   0.407
20411WAT     H161475   0.819   4.022   0.432
20411WAT     H261476   0.937   4.096   0.346
20412WAT      O61477   0.108   2.266   3.115
20412WAT     H161478   0.034   2.199   3.104
20412WAT     H261479   0.196   2.221   3.097
20413WAT      O61480   0.555   6.171   1.105
20413WAT     H161481   0.654   6.157   1.105
20413WAT     H261482   0.530   6.232   1.181
20414WAT      O61483   4.125   9.484   3.958
20414WAT     H161484   4.162   9.560   3.905
20414WAT     H261485   4.048   9.443   3.908
20415WAT      O61486   6.298   0.715   9.884
20415WAT     H161487   6.204   0.699   9.854
20415WAT     H261488   6.315   0.662   9.968
20416WAT      O61489   4.764   7.948   4.718
20416WAT     H161490   4.775   7.856   4.682
20416WAT     H261491   4.677   7.986   4.687
20417WAT      O61492   7.003   3.192   2.584
20417WAT     H161493   7.006   3.104   2.538
20417WAT     H261494   6.954   3.183   2.671
20418WAT      O61495   8.280   3.685   4.992
20418WAT     H161496   8.357   3.736   5.030
20418WAT     H261497   8.281   3.692   4.892
20419WAT      O61498   8.894   6.032   8.333
20419WAT     H161499   8.916   6.126   8.362
20419WAT     H261500   8.820   6.034   8.267
20420WAT      O61501   7.442   8.562   9.881
20420WAT     H161502   7.358   8.511   9.863
20420WAT     H261503   7.475   8.541   9.973
20421WAT      O61504   1.527   2.584   7.020
20421WAT     H161505   1.537   2.589   6.920
20421WAT     H261506   1.545   2.490   7.050
20422WAT      O61507   3.451   5.046   3.234
20422WAT     H161508   3.449   5.111   3.158
20422WAT     H261509   3.533   4.988   3.227
20423WAT      O61510   9.780   1.283   0.665
20423WAT     H161511   9.755   1.191   0.637
20423WAT     H261512   9.855   1.316   0.607
20424WAT      O61513   1.724   5.225   5.128
20424WAT     H161514   1.697   5.150   5.187
20424WAT     H261515   1.810   5.264   5.161
20425WAT      O61516   3.850   8.059   8.513
20425WAT     H161517   3.798   7.980   8.480
20425WAT     H261518   3.888   8.109   8.435
20426WAT      O61519   4.747   5.742   7.059
20426WAT     H161520   4.746   5.775   7.154
20426WAT     H261521   4.673   5.785   7.008
20427WAT      O61522   8.660   7.382   4.621
20427WAT     H161523   8.730   7.454   4.614
20427WAT     H261524   8.676   7.328   4.703
20428WAT      O61525   9.425   2.078   9.374
20428WAT     H161526   9.350   2.084   9.441
20428WAT     H261527   9.436   2.167   9.330
20429WAT      O61528   6.064   3.066   3.461
20429WAT     H161529   6.087   3.075   3.558
20429WAT     H261530   6.109   3.138   3.409
20430WAT      O61531   4.635   5.991   5.470
20430WAT     H161532   4.537   5.973   5.473
20430WAT     H261533   4.666   6.028   5.557
20431WAT      O61534   1.243   5.550   9.720
20431WAT     H161535   1.147   5.562   9.747
20431WAT     H261536   1.301   5.609   9.776
20432WAT      O61537   1.555   7.450   8.501
20432WAT     H161538   1.639   7.492   8.534
20432WAT     H261539   1.540   7.363   8.548
20433WAT      O61540   8.833   8.106   6.354
20433WAT     H161541   8.795   8.033   6.411
20433WAT     H261542   8.759   8.158   6.312
20434WAT      O61543   7.023   1.628   2.883
20434WAT     H161544   6.943   1.689   2.889
20434WAT     H261545   7.007   1.559   2.813
20435WAT      O61546   4.413   0.465   3.315
20435WAT     H161547   4.424   0.416   3.229
20435WAT     H261548   4.344   0.537   3.304
20436WAT      O61549   5.914   7.478   7.651
20436WAT     H161550   5.968   7.456   7.570
20436WAT     H261551   5.825   7.432   7.645
20437WAT      O61552   6.013   0.245   3.167
20437WAT     H161553   5.985   0.330   3.211
20437WAT     H261554   6.031   0.261   3.070
20438WAT      O61555   8.130   4.884   0.720
20438WAT     H161556   8.063   4.820   0.756
20438WAT     H261557   8.223   4.852   0.741
20439WAT      O61558   6.922   0.078   5.376
20439WAT     H161559   6.848   0.036   5.324
20439WAT     H261560   6.917   0.048   5.471
20440WAT      O61561   9.846   5.532   0.855
20440WAT     H161562   9.809   5.501   0.768
20440WAT     H261563   9.883   5.624   0.845
20441WAT      O61564   5.717   7.475   0.007
20441WAT     H161565   5.618   7.470  -0.007
20441WAT     H261566   5.759   7.392  -0.031
20442WAT      O61567   2.612   7.207   7.838
20442WAT     H161568   2.565   7.239   7.756
20442WAT     H261569   2.557   7.135   7.881
20443WAT      O61570   0.057   2.557   7.617
20443WAT     H161571   0.079   2.472   7.664
20443WAT     H261572   0.092   2.635   7.670
20444WAT      O61573   7.955   6.400   9.845
20444WAT     H161574   8.035   6.364   9.894
20444WAT     H261575   7.874   6.392   9.902
20445WAT      O61576   8.721   8.386   9.077
20445WAT     H161577   8.655   8.337   9.134
20445WAT     H261578   8.685   8.476   9.054
20446WAT      O61579   2.303   3.962   8.917
20446WAT     H161580   2.239   3.993   8.988
20446WAT     H261581   2.253   3.944   8.832
20447WAT      O61582   0.314   4.782   2.425
20447WAT     H161583   0.314   4.722   2.505
20447WAT     H261584   0.394   4.841   2.428
20448WAT      O61585   8.870   2.045   1.103
20448WAT     H161586   8.894   2.142   1.102
20448WAT     H261587   8.892   2.006   1.192
20449WAT      O61588   7.323   6.177   5.663
20449WAT     H161589   7.364   6.088   5.642
20449WAT     H261590   7.382   6.226   5.728
20450WAT      O61591   5.773   1.121   3.450
20450WAT     H161592   5.825   1.068   3.383
20450WAT     H261593   5.786   1.083   3.541
20451WAT      O61594   2.255   4.572   6.063
20451WAT     H161595   2.269   4.592   5.966
20451WAT     H261596   2.269   4.655   6.116
20452WAT      O61597   5.951   7.766   7.576
20452WAT     H161598   5.937   7.667   7.570
20452WAT     H261599   6.049   7.785   7.584
20453WAT      O61600   2.897   1.089   6.356
20453WAT     H161601   2.997   1.082   6.354
20453WAT     H261602   2.863   1.102   6.263
20454WAT      O61603   0.239   5.782   6.734
20454WAT     H161604   0.183   5.788   6.651
20454WAT     H261605   0.255   5.874   6.770
20455WAT      O61606   1.660   3.520   9.846
20455WAT     H161607   1.703   3.477   9.766
20455WAT     H261608   1.569   3.552   9.822
20456WAT      O61609   1.350   3.636   0.826
20456WAT     H161610   1.290   3.592   0.759
20456WAT     H261611   1.302   3.644   0.914
20457WAT      O61612   7.223   9.779   2.860
20457WAT     H161613   7.164   9.859   2.864
20457WAT     H261614   7.277   9.781   2.775
20458WAT      O61615   1.326   6.700   2.175
20458WAT     H161616   1.301   6.788   2.137
20458WAT     H261617   1.253   6.665   2.233
20459WAT      O61618   9.161   4.139   1.841
20459WAT     H161619   9.170   4.135   1.941
20459WAT     H261620   9.247   4.170   1.801
20460WAT      O61621   7.550   0.939   0.825
20460WAT     H161622   7.561   1.026   0.778
20460WAT     H261623   7.579   0.864   0.765
20461WAT      O61624   0.578   8.434   1.253
20461WAT     H161625   0.586   8.400   1.160
20461WAT     H261626   0.592   8.358   1.317
20462WAT      O61627   8.059   3.915   0.909
20462WAT     H161628   7.985   3.852   0.883
20462WAT     H261629   8.085   3.970   0.830
20463WAT      O61630   5.149   3.946   2.598
20463WAT     H161631   5.152   3.852   2.565
20463WAT     H261632   5.086   4.000   2.541
20464WAT      O61633   1.142   9.197   3.021
20464WAT     H161634   1.237   9.197   2.989
20464WAT     H261635   1.117   9.289   3.051
20465WAT      O61636   6.756   4.848   2.113
20465WAT     H161637   6.677   4.877   2.059
20465WAT     H261638   6.808   4.928   2.141
20466WAT      O61639   1.847   0.861   8.622
20466WAT     H161640   1.937   0.858   8.667
20466WAT     H261641   1.782   0.806   8.675
20467WAT      O61642   4.479   7.903   1.010
20467WAT     H161643   4.515   7.879   1.100
20467WAT     H261644   4.382   7.882   1.005
20468WAT      O61645   4.208   7.437   9.757
20468WAT     H161646   4.155   7.355   9.779
20468WAT     H261647   4.241   7.479   9.841
20469WAT      O61648   0.147   6.805   2.318
20469WAT     H161649   0.185   6.713   2.306
20469WAT     H261650   0.058   6.810   2.274
20470WAT      O61651   5.199   8.458   7.116
20470WAT     H161652   5.105   8.476   7.089
20470WAT     H261653   5.225   8.518   7.191
20471WAT      O61654   5.658   1.701   1.907
20471WAT     H161655   5.699   1.706   1.998
20471WAT     H261656   5.698   1.625   1.857
20472WAT      O61657   7.643   1.993   3.666
20472WAT     H161658   7.710   2.042   3.610
20472WAT     H261659   7.647   2.026   3.761
20473WAT      O61660   4.056   0.940   3.541
20473WAT     H161661   4.111   1.003   3.597
20473WAT     H261662   4.106   0.918   3.457
20474WAT      O61663   1.655   0.099   5.905
20474WAT     H161664   1.702   0.063   5.825
20474WAT     H261665   1.627   0.193   5.888
20475WAT      O61666   4.368   1.425   7.979
20475WAT     H161667   4.309   1.474   8.044
20475WAT     H261668   4.437   1.488   7.943
20476WAT      O61669   2.638   3.514   0.105
20476WAT     H161670   2.554   3.519   0.051
20476WAT     H261671   2.616   3.519   0.202
20477WAT      O61672   2.281   4.342   0.647
20477WAT     H161673   2.381   4.338   0.644
20477WAT     H261674   2.249   4.418   0.592
20478WAT      O61675   4.435   2.726   6.501
20478WAT     H161676   4.365   2.752   6.568
20478WAT     H261677   4.515   2.690   6.549
20479WAT      O61678   1.507   8.239   3.775
20479WAT     H161679   1.588   8.199   3.818
20479WAT     H261680   1.517   8.339   3.773
20480WAT      O61681   4.825   7.075   3.823
20480WAT     H161682   4.737   7.120   3.811
20480WAT     H261683   4.832   7.038   3.916
20481WAT      O61684   5.670   9.812   8.569
20481WAT     H161685   5.699   9.891   8.623
20481WAT     H261686   5.742   9.788   8.504
20482WAT      O61687   7.857   7.774   6.054
20482WAT     H161688   7.860   7.674   6.063
20482WAT     H261689   7.805   7.799   5.973
20483WAT      O61690   5.516   4.141   1.769
20483WAT     H161691   5.520   4.125   1.867
20483WAT     H261692   5.603   4.114   1.727
20484WAT      O61693   3.152   6.151   7.340
20484WAT     H161694   3.227   6.092   7.308
20484WAT     H261695   3.126   6.124   7.433
20485WAT      O61696   7.991   7.793   7.444
20485WAT     H161697   7.928   7.717   7.461
20485WAT     H261698   7.957   7.876   7.489
20486WAT      O61699   7.392   6.756   5.983
20486WAT     H161700   7.396   6.712   5.894
20486WAT     H261701   7.307   6.730   6.029
20487WAT      O61702   0.192   7.791   6.287
20487WAT     H161703   0.260   7.808   6.216
20487WAT     H261704   0.215   7.706   6.335
20488WAT      O61705   1.994   5.529   2.525
20488WAT     H161706   1.996   5.461   2.452
20488WAT     H261707   2.050   5.498   2.602
20489WAT      O61708   0.120   4.256   3.513
20489WAT     H161709   0.106   4.273   3.611
20489WAT     H261710   0.067   4.177   3.485
20490WAT      O61711   3.037   1.697   0.305
20490WAT     H161712   3.097   1.667   0.231
20490WAT     H261713   3.057   1.646   0.388
20491WAT      O61714   6.850   4.658   8.739
20491WAT     H161715   6.882   4.705   8.821
20491WAT     H261716   6.921   4.597   8.705
20492WAT      O61717   2.033   2.718   9.056
20492WAT     H161718   2.052   2.621   9.074
20492WAT     H261719   1.936   2.736   9.074
20493WAT      O61720   1.283   4.750   5.485
20493WAT     H161721   1.298   4.832   5.541
20493WAT     H261722   1.362   4.736   5.425
20494WAT      O61723   5.377   8.519   2.939
20494WAT     H161724   5.283   8.486   2.942
20494WAT     H261725   5.433   8.456   2.885
20495WAT      O61726   0.561   6.516   3.599
20495WAT     H161727   0.482   6.575   3.582
20495WAT     H261728   0.619   6.514   3.518
20496WAT      O61729   9.110   4.383   5.422
20496WAT     H161730   9.080   4.315   5.354
20496WAT     H261731   9.141   4.337   5.505
20497WAT      O61732   2.417   7.240   3.760
20497WAT     H161733   2.447   7.235   3.665
20497WAT     H261734   2.348   7.311   3.769
20498WAT      O61735   0.150   6.998   3.514
20498WAT     H161736   0.153   7.093   3.543
20498WAT     H261737   0.067   6.981   3.461
20499WAT      O61738   2.478   5.092   1.103
20499WAT     H161739   2.419   5.138   1.169
20499WAT     H261740   2.569   5.080   1.143
20500WAT      O61741   4.022   9.173   8.857
20500WAT     H161742   3.928   9.198   8.880
20500WAT     H261743   4.024   9.131   8.767
20501WAT      O61744   7.138   4.896   9.555
20501WAT     H161745   7.051   4.932   9.521
20501WAT     H261746   7.145   4.799   9.532
20502WAT      O61747   9.381   4.281   1.662
20502WAT     H161748   9.416   4.367   1.623
20502WAT     H261749   9.409   4.205   1.604
20503WAT      O61750   2.592   5.340   8.378
20503WAT     H161751   2.509   5.326   8.325
20503WAT     H261752   2.568   5.378   8.468
20504WAT      O61753   0.427   6.124   2.874
20504WAT     H161754   0.406   6.101   2.969
20504WAT     H261755   0.491   6.201   2.873
20505WAT      O61756   6.560   7.339   9.652
20505WAT     H161757   6.651   7.327   9.692
20505WAT     H261758   6.496   7.276   9.695
20506WAT      O61759   8.959   8.460   3.591
20506WAT     H161760   8.891   8.514   3.541
20506WAT     H261761   9.048   8.503   3.583
20507WAT      O61762   8.638   1.512   7.806
20507WAT     H161763   8.711   1.580   7.796
20507WAT     H261764   8.571   1.546   7.872
20508WAT      O61765   1.300   4.835   3.610
20508WAT     H161766   1.202   4.826   3.596
20508WAT     H261767   1.320   4.924   3.652
20509WAT      O61768   0.696   1.805   1.779
20509WAT     H161769   0.706   1.772   1.873
20509WAT     H261770   0.776   1.859   1.754
20510WAT      O61771   3.092   6.706   5.717
20510WAT     H161772   3.036   6.752   5.786
20510WAT     H261773   3.052   6.617   5.696
20511WAT      O61774   1.562   5.153   4.766
20511WAT     H161775   1.576   5.058   4.793
20511WAT     H261776   1.650   5.193   4.738
20512WAT      O61777   8.987   2.964   8.703
20512WAT     H161778   8.907   2.977   8.761
20512WAT     H261779   9.008   3.050   8.656
20513WAT      O61780   8.037   2.087   2.515
20513WAT     H161781   8.094   2.156   2.557
20513WAT     H261782   8.094   2.022   2.464
20514WAT      O61783   0.065   5.912   6.090
20514WAT     H161784  -0.017   5.967   6.073
20514WAT     H261785   0.134   5.967   6.137
20515WAT      O61786   4.754   6.299   8.441
20515WAT     H161787   4.814   6.379   8.446
20515WAT     H261788   4.786   6.238   8.369
20516WAT      O61789   6.032   6.177   4.062
20516WAT     H161790   5.953   6.238   4.070
20516WAT     H261791   6.018   6.097   4.120
20517WAT      O61792   3.431   4.958   0.873
20517WAT     H161793   3.453   5.037   0.815
20517WAT     H261794   3.510   4.897   0.877
20518WAT      O61795   6.142   9.081   2.667
20518WAT     H161796   6.048   9.046   2.672
20518WAT     H261797   6.156   9.125   2.578
20519WAT      O61798   7.791   5.602   4.628
20519WAT     H161799   7.877   5.593   4.679
20519WAT     H261800   7.734   5.672   4.671
20520WAT      O61801   5.434   0.368   4.056
20520WAT     H161802   5.502   0.434   4.023
20520WAT     H261803   5.357   0.365   3.992
20521WAT      O61804   8.917   2.484   4.753
20521WAT     H161805   8.946   2.488   4.848
20521WAT     H261806   8.900   2.389   4.727
20522WAT      O61807   4.819   0.951   2.401
20522WAT     H161808   4.809   0.954   2.301
20522WAT     H261809   4.866   1.033   2.433
20523WAT      O61810   4.554   8.279   2.541
20523WAT     H161811   4.595   8.251   2.455
20523WAT     H261812   4.578   8.214   2.613
20524WAT      O61813   1.088   2.415   5.200
20524WAT     H161814   0.991   2.395   5.182
20524WAT     H261815   1.141   2.398   5.118
20525WAT      O61816   9.332   6.264   2.051
20525WAT     H161817   9.270   6.231   1.980
20525WAT     H261818   9.355   6.360   2.033
20526WAT      O61819   6.111   7.702   1.283
20526WAT     H161820   6.048   7.625   1.297
20526WAT     H261821   6.203   7.666   1.266
20527WAT      O61822   1.629   0.469   7.439
20527WAT     H161823   1.549   0.410   7.422
20527WAT     H261824   1.648   0.471   7.537
20528WAT      O61825   6.158   7.609   7.786
20528WAT     H161826   6.111   7.661   7.857
20528WAT     H261827   6.185   7.671   7.712
20529WAT      O61828   6.807   9.048   8.919
20529WAT     H161829   6.769   9.131   8.879
20529WAT     H261830   6.898   9.067   8.957
20530WAT      O61831   0.545   7.320   2.553
20530WAT     H161832   0.502   7.230   2.544
20530WAT     H261833   0.580   7.349   2.464
20531WAT      O61834   7.402   1.574   8.326
20531WAT     H161835   7.391   1.665   8.286
20531WAT     H261836   7.499   1.550   8.327
20532WAT      O61837   0.333   5.092   1.348
20532WAT     H161838   0.311   5.054   1.258
20532WAT     H261839   0.304   5.028   1.419
20533WAT      O61840   3.147   5.169   7.726
20533WAT     H161841   3.104   5.242   7.779
20533WAT     H261842   3.190   5.208   7.645
20534WAT      O61843   0.260   6.273   5.932
20534WAT     H161844   0.276   6.175   5.921
20534WAT     H261845   0.164   6.288   5.955
20535WAT      O61846   0.927   2.917   1.339
20535WAT     H161847   0.959   3.008   1.366
20535WAT     H261848   1.005   2.861   1.311
20536WAT      O61849   4.478   6.436   7.568
20536WAT     H161850   4.471   6.350   7.519
20536WAT     H261851   4.423   6.432   7.651
20537WAT      O61852   5.651   8.367   7.671
20537WAT     H161853   5.615   8.286   7.718
20537WAT     H261854   5.745   8.348   7.641
20538WAT      O61855   1.603   0.598   4.528
20538WAT     H161856   1.596   0.686   4.480
20538WAT     H261857   1.582   0.524   4.464
20539WAT      O61858   9.157   4.119   5.555
20539WAT     H161859   9.154   4.071   5.467
20539WAT     H261860   9.193   4.058   5.625
20540WAT      O61861   9.641   8.415   0.302
20540WAT     H161862   9.703   8.464   0.364
20540WAT     H261863   9.595   8.342   0.353
20541WAT      O61864   2.178   0.396   3.502
20541WAT     H161865   2.128   0.450   3.569
20541WAT     H261866   2.274   0.425   3.499
20542WAT      O61867   2.881   1.578   5.719
20542WAT     H161868   2.908   1.483   5.733
20542WAT     H261869   2.791   1.580   5.676
20543WAT      O61870   7.344   0.281   2.333
20543WAT     H161871   7.328   0.214   2.261
20543WAT     H261872   7.391   0.361   2.293
20544WAT      O61873   3.611   6.682   6.959
20544WAT     H161874   3.556   6.730   6.890
20544WAT     H261875   3.703   6.723   6.963
20545WAT      O61876   8.018   4.888   1.946
20545WAT     H161877   7.958   4.967   1.935
20545WAT     H261878   7.969   4.804   1.925
20546WAT      O61879   2.307   5.347   6.383
20546WAT     H161880   2.390   5.292   6.397
20546WAT     H261881   2.243   5.329   6.458
20547WAT      O61882   6.787   7.972   8.644
20547WAT     H161883   6.887   7.976   8.645
20547WAT     H261884   6.755   7.928   8.727
20548WAT      O61885   1.370   3.448   6.909
20548WAT     H161886   1.297   3.516   6.916
20548WAT     H261887   1.455   3.487   6.947
20549WAT      O61888   4.958   2.527   1.105
20549WAT     H161889   5.033   2.570   1.056
20549WAT     H261890   4.882   2.592   1.114
20550WAT      O61891   4.750   4.283   2.386
20550WAT     H161892   4.818   4.261   2.456
20550WAT     H261893   4.661   4.296   2.430
20551WAT      O61894   6.300   9.437   8.562
20551WAT     H161895   6.249   9.517   8.595
20551WAT     H261896   6.390   9.434   8.606
20552WAT      O61897   8.173   0.440   6.597
20552WAT     H161898   8.158   0.462   6.694
20552WAT     H261899   8.270   0.424   6.582
20553WAT      O61900   1.584   7.810   9.809
20553WAT     H161901   1.604   7.906   9.828
20553WAT     H261902   1.498   7.804   9.758
20554WAT      O61903   1.830   5.412   2.219
20554WAT     H161904   1.925   5.443   2.226
20554WAT     H261905   1.827   5.313   2.230
20555WAT      O61906   1.420   4.217   6.475
20555WAT     H161907   1.431   4.122   6.444
20555WAT     H261908   1.440   4.222   6.573
20556WAT      O61909   0.269   9.177   7.624
20556WAT     H161910   0.265   9.272   7.594
20556WAT     H261911   0.348   9.132   7.582
20557WAT      O61912   6.956   8.019   0.512
20557WAT     H161913   6.934   7.925   0.487
20557WAT     H261914   6.872   8.072   0.521
20558WAT      O61915   2.959   2.892   1.985
20558WAT     H161916   2.908   2.815   2.024
20558WAT     H261917   3.040   2.909   2.041
20559WAT      O61918   2.778   1.686   0.758
20559WAT     H161919   2.707   1.649   0.818
20559WAT     H261920   2.775   1.640   0.669
20560WAT      O61921   3.606   3.676   3.585
20560WAT     H161922   3.527   3.703   3.640
20560WAT     H261923   3.600   3.718   3.494
20561WAT      O61924   0.731   2.643   9.420
20561WAT     H161925   0.791   2.614   9.346
20561WAT     H261926   0.716   2.742   9.415
20562WAT      O61927   5.897   2.645   3.428
20562WAT     H161928   5.906   2.645   3.528
20562WAT     H261929   5.815   2.697   3.402
20563WAT      O61930   0.590   4.115   0.720
20563WAT     H161931   0.561   4.019   0.717
20563WAT     H261932   0.678   4.121   0.767
20564WAT      O61933   3.187   0.380   1.245
20564WAT     H161934   3.101   0.383   1.296
20564WAT     H261935   3.264   0.378   1.308
20565WAT      O61936   8.869   4.500   4.717
20565WAT     H161937   8.872   4.568   4.644
20565WAT     H261938   8.962   4.475   4.742
20566WAT      O61939   3.316   1.487   3.578
20566WAT     H161940   3.365   1.444   3.502
20566WAT     H261941   3.231   1.526   3.544
20567WAT      O61942   4.294   3.068   6.506
20567WAT     H161943   4.243   3.124   6.571
20567WAT     H261944   4.372   3.025   6.553
20568WAT      O61945   4.839   8.916   7.379
20568WAT     H161946   4.758   8.942   7.431
20568WAT     H261947   4.910   8.883   7.441
20569WAT      O61948   2.215   0.801   9.040
20569WAT     H161949   2.210   0.721   8.981
20569WAT     H261950   2.307   0.842   9.034
20570WAT      O61951   5.840   0.815   8.921
20570WAT     H161952   5.818   0.912   8.925
20570WAT     H261953   5.903   0.792   8.996
20571WAT      O61954   3.826   6.408   5.526
20571WAT     H161955   3.759   6.342   5.493
20571WAT     H261956   3.916   6.387   5.488
20572WAT      O61957   0.062   8.013   5.096
20572WAT     H161958   0.130   8.075   5.137
20572WAT     H261959   0.099   7.975   5.011
20573WAT      O61960   8.137   4.376   1.205
20573WAT     H161961   8.039   4.383   1.226
20573WAT     H261962   8.152   4.299   1.143
20574WAT      O61963   6.564   3.708   4.116
20574WAT     H161964   6.604   3.723   4.026
20574WAT     H261965   6.606   3.769   4.183
20575WAT      O61966   4.024   7.532   5.476
20575WAT     H161967   4.079   7.459   5.436
20575WAT     H261968   3.973   7.579   5.405
20576WAT      O61969   8.707   6.318   9.389
20576WAT     H161970   8.776   6.320   9.461
20576WAT     H261971   8.617   6.302   9.429
20577WAT      O61972   6.985   2.363   6.296
20577WAT     H161973   7.032   2.369   6.385
20577WAT     H261974   6.900   2.416   6.300
20578WAT      O61975   9.847   9.813   6.264
20578WAT     H161976   9.827   9.720   6.297
20578WAT     H261977   9.763   9.866   6.261
20579WAT      O61978   1.514   3.348   7.199
20579WAT     H161979   1.557   3.295   7.272
20579WAT     H261980   1.427   3.307   7.174
20580WAT      O61981   7.481   6.975   3.425
20580WAT     H161982   7.516   7.019   3.508
20580WAT     H261983   7.492   7.037   3.347
20581WAT      O61984   7.895   5.962   9.788
20581WAT     H161985   7.810   5.919   9.816
20581WAT     H261986   7.931   6.017   9.863
20582WAT      O61987   0.404   8.908   0.707
20582WAT     H161988   0.444   8.966   0.637
20582WAT     H261989   0.467   8.832   0.727
20583WAT      O61990   1.323   8.919   2.898
20583WAT     H161991   1.343   8.878   2.987
20583WAT     H261992   1.224   8.915   2.882
20584WAT      O61993   2.042   8.892   4.384
20584WAT     H161994   1.955   8.844   4.380
20584WAT     H261995   2.116   8.829   4.363
20585WAT      O61996   4.018   4.533   0.273
20585WAT     H161997   3.980   4.477   0.348
20585WAT     H261998   3.942   4.570   0.219
20586WAT      O61999   5.291   6.656   9.733
20586WAT     H162000   5.352   6.712   9.789
20586WAT     H262001   5.345   6.592   9.678
20587WAT      O62002   3.159   2.649   2.153
20587WAT     H162003   3.154   2.748   2.141
20587WAT     H262004   3.188   2.628   2.247
20588WAT      O62005   3.350   4.499   8.544
20588WAT     H162006   3.339   4.590   8.586
20588WAT     H262007   3.319   4.503   8.449
20589WAT      O62008   3.528   0.816   9.690
20589WAT     H162009   3.492   0.800   9.782
20589WAT     H262010   3.621   0.853   9.696
20590WAT      O62011   4.903   6.835   8.233
20590WAT     H162012   4.981   6.778   8.207
20590WAT     H262013   4.891   6.831   8.332
20591WAT      O62014   1.531   4.982   6.002
20591WAT     H162015   1.503   5.073   5.971
20591WAT     H262016   1.514   4.973   6.100
20592WAT      O62017   9.881   9.067   8.516
20592WAT     H162018   9.929   9.140   8.564
20592WAT     H262019   9.893   8.981   8.566
20593WAT      O62020   0.469   4.787   7.895
20593WAT     H162021   0.543   4.825   7.950
20593WAT     H262022   0.507   4.753   7.808
20594WAT      O62023   3.245   4.699   7.307
20594WAT     H162024   3.317   4.763   7.331
20594WAT     H262025   3.176   4.697   7.379
20595WAT      O62026   5.788   9.602   2.746
20595WAT     H162027   5.834   9.691   2.744
20595WAT     H262028   5.833   9.542   2.812
20596WAT      O62029   0.633   5.460   8.110
20596WAT     H162030   0.554   5.406   8.080
20596WAT     H262031   0.717   5.414   8.082
20597WAT      O62032   6.778   6.021   1.113
20597WAT     H162033   6.789   6.090   1.184
20597WAT     H262034   6.750   5.935   1.154
20598WAT      O62035   7.306   8.988   6.882
20598WAT     H162036   7.219   8.988   6.931
20598WAT     H262037   7.289   8.987   6.784
20599WAT      O62038   3.586   1.060   1.765
20599WAT     H162039   3.655   1.124   1.799
20599WAT     H262040   3.514   1.049   1.833
20600WAT      O62041   6.931   9.106   5.913
20600WAT     H162042   6.932   9.100   5.813
20600WAT     H262043   6.953   9.199   5.941
20601WAT      O62044   0.134   0.810   8.516
20601WAT     H162045   0.118   0.819   8.614
20601WAT     H262046   0.084   0.882   8.467
20602WAT      O62047   4.748   9.329   8.721
20602WAT     H162048   4.749   9.334   8.821
20602WAT     H262049   4.812   9.257   8.691
20603WAT      O62050   8.583   0.505   5.117
20603WAT     H162051   8.530   0.572   5.064
20603WAT     H262052   8.573   0.415   5.075
20604WAT      O62053   9.421   1.329   5.109
20604WAT     H162054   9.386   1.406   5.163
20604WAT     H262055   9.519   1.341   5.094
20605WAT      O62056   7.065   8.717   6.054
20605WAT     H162057   6.992   8.649   6.063
20605WAT     H262058   7.153   8.674   6.074
20606WAT      O62059   3.198   4.351   5.647
20606WAT     H162060   3.205   4.310   5.738
20606WAT     H262061   3.185   4.279   5.579
20607WAT      O62062   9.279   2.407   1.724
20607WAT     H162063   9.264   2.308   1.731
20607WAT     H262064   9.221   2.444   1.652
20608WAT      O62065   5.309   0.751   3.779
20608WAT     H162066   5.372   0.814   3.733
20608WAT     H262067   5.285   0.788   3.869
20609WAT      O62068   1.869   2.354   6.075
20609WAT     H162069   1.850   2.285   6.145
20609WAT     H262070   1.939   2.417   6.108
20610WAT      O62071   0.442   9.505   5.755
20610WAT     H162072   0.444   9.567   5.677
20610WAT     H262073   0.447   9.558   5.840
20611WAT      O62074   8.869   2.052   4.298
20611WAT     H162075   8.958   2.055   4.343
20611WAT     H262076   8.807   2.116   4.343
20612WAT      O62077   1.657   3.686   3.319
20612WAT     H162078   1.622   3.696   3.226
20612WAT     H262079   1.599   3.738   3.382
20613WAT      O62080   4.882   2.763   6.678
20613WAT     H162081   4.800   2.720   6.641
20613WAT     H262082   4.891   2.739   6.775
20614WAT      O62083   5.054   3.927   7.942
20614WAT     H162084   5.091   3.938   7.850
20614WAT     H262085   5.003   4.010   7.967
20615WAT      O62086   6.529   3.660   3.150
20615WAT     H162087   6.442   3.613   3.139
20615WAT     H262088   6.602   3.610   3.103
20616WAT      O62089   5.581   5.899   2.812
20616WAT     H162090   5.618   5.806   2.810
20616WAT     H262091   5.618   5.948   2.891
20617WAT      O62092   4.961   6.474   8.396
20617WAT     H162093   5.032   6.404   8.386
20617WAT     H262094   4.980   6.529   8.477
20618WAT      O62095   0.366   8.888   2.411
20618WAT     H162096   0.351   8.824   2.335
20618WAT     H262097   0.448   8.943   2.392
20619WAT      O62098   5.374   9.089   0.644
20619WAT     H162099   5.388   9.110   0.741
20619WAT     H262100   5.298   9.024   0.635
20620WAT      O62101   5.658   5.074   2.621
20620WAT     H162102   5.692   5.080   2.528
20620WAT     H262103   5.644   5.166   2.658
20621WAT      O62104   6.815   1.116   1.817
20621WAT     H162105   6.724   1.150   1.841
20621WAT     H262106   6.820   1.018   1.838
20622WAT      O62107   1.360   9.700   9.769
20622WAT     H162108   1.316   9.640   9.836
20622WAT     H262109   1.326   9.677   9.678
20623WAT      O62110   2.987   3.951   5.328
20623WAT     H162111   2.904   3.954   5.385
20623WAT     H262112   2.972   3.888   5.252
20624WAT      O62113   0.920   2.099   8.007
20624WAT     H162114   0.910   2.074   7.911
20624WAT     H262115   0.881   2.189   8.023
20625WAT      O62116   5.264   9.092   9.748
20625WAT     H162117   5.211   9.017   9.788
20625WAT     H262118   5.205   9.149   9.691
20626WAT      O62119   5.354   4.860   6.514
20626WAT     H162120   5.361   4.941   6.457
20626WAT     H262121   5.258   4.832   6.521
20627WAT      O62122   9.448   9.600   8.207
20627WAT     H162123   9.538   9.607   8.250
20627WAT     H262124   9.436   9.675   8.141
20628WAT      O62125   0.523   6.396   1.629
20628WAT     H162126   0.479   6.397   1.539
20628WAT     H262127   0.576   6.312   1.640
20629WAT      O62128   6.438   5.619   1.050
20629WAT     H162129   6.429   5.634   1.148
20629WAT     H262130   6.365   5.668   1.001
20630WAT      O62131   7.440   8.915   1.685
20630WAT     H162132   7.503   8.952   1.753
20630WAT     H262133   7.420   8.819   1.708
20631WAT      O62134   2.916   3.165   0.316
20631WAT     H162135   2.971   3.184   0.235
20631WAT     H262136   2.942   3.227   0.389
20632WAT      O62137   0.713   4.114   5.766
20632WAT     H162138   0.729   4.210   5.787
20632WAT     H262139   0.718   4.100   5.667
20633WAT      O62140   3.774   9.560   5.023
20633WAT     H162141   3.785   9.495   4.948
20633WAT     H262142   3.797   9.516   5.109
20634WAT      O62143   2.048   1.033   6.345
20634WAT     H162144   2.031   1.042   6.443
20634WAT     H262145   2.018   1.116   6.298
20635WAT      O62146   5.993   0.990   1.331
20635WAT     H162147   5.933   0.952   1.261
20635WAT     H262148   5.990   1.090   1.326
20636WAT      O62149   5.917   0.853   9.635
20636WAT     H162150   5.898   0.912   9.556
20636WAT     H262151   5.985   0.897   9.694
20637WAT      O62152   2.276   8.167   7.097
20637WAT     H162153   2.280   8.113   7.013
20637WAT     H262154   2.348   8.136   7.159
20638WAT      O62155   0.755   2.643   4.292
20638WAT     H162156   0.775   2.552   4.257
20638WAT     H262157   0.701   2.637   4.375
20639WAT      O62158   8.107   3.548   0.777
20639WAT     H162159   8.009   3.549   0.794
20639WAT     H262160   8.153   3.492   0.846
20640WAT      O62161   1.410   0.780   8.136
20640WAT     H162162   1.495   0.829   8.156
20640WAT     H262163   1.332   0.838   8.158
20641WAT      O62164   8.977   4.066   7.849
20641WAT     H162165   8.878   4.078   7.855
20641WAT     H262166   9.001   3.973   7.877
20642WAT      O62167   0.964   7.989   8.943
20642WAT     H162168   1.029   7.915   8.925
20642WAT     H262169   0.873   7.950   8.954
20643WAT      O62170   0.770   5.801   3.327
20643WAT     H162171   0.789   5.724   3.267
20643WAT     H262172   0.698   5.776   3.392
20644WAT      O62173   1.374   4.748   2.355
20644WAT     H162174   1.365   4.706   2.264
20644WAT     H262175   1.343   4.842   2.351
20645WAT      O62176   4.722   7.962   3.613
20645WAT     H162177   4.746   7.929   3.523
20645WAT     H262178   4.732   7.889   3.680
20646WAT      O62179   5.616   4.652   9.673
20646WAT     H162180   5.543   4.590   9.646
20646WAT     H262181   5.704   4.605   9.665
20647WAT      O62182   6.570   1.875   0.888
20647WAT     H162183   6.486   1.843   0.845
20647WAT     H262184   6.592   1.967   0.855
20648WAT      O62185   5.236   9.449   9.547
20648WAT     H162186   5.281   9.388   9.482
20648WAT     H262187   5.300   9.473   9.619
20649WAT      O62188   2.086   4.342   4.314
20649WAT     H162189   2.184   4.363   4.319
20649WAT     H262190   2.034   4.427   4.324
20650WAT      O62191   0.937   2.728   8.908
20650WAT     H162192   0.901   2.704   8.818
20650WAT     H262193   1.014   2.791   8.898
20651WAT      O62194   6.731   1.680   0.806
20651WAT     H162195   6.709   1.600   0.861
20651WAT     H262196   6.675   1.758   0.837
20652WAT      O62197   7.100   3.393   2.432
20652WAT     H162198   7.133   3.345   2.352
20652WAT     H262199   7.064   3.327   2.498
20653WAT      O62200   8.414   7.722   9.439
20653WAT     H162201   8.483   7.683   9.500
20653WAT     H262202   8.430   7.688   9.346
20654WAT      O62203   0.943   0.138   5.395
20654WAT     H162204   1.006   0.097   5.461
20654WAT     H262205   0.979   0.226   5.364
20655WAT      O62206   5.701   4.880   6.692
20655WAT     H162207   5.681   4.903   6.787
20655WAT     H262208   5.629   4.821   6.656
20656WAT      O62209   2.194   8.844   7.757
20656WAT     H162210   2.237   8.826   7.668
20656WAT     H262211   2.148   8.762   7.789
20657WAT      O62212   0.955   5.399   6.118
20657WAT     H162213   0.912   5.462   6.183
20657WAT     H262214   0.917   5.414   6.027
20658WAT      O62215   8.049   2.033   0.972
20658WAT     H162216   7.994   2.115   0.988
20658WAT     H262217   8.145   2.055   0.986
20659WAT      O62218   4.253   2.480   1.703
20659WAT     H162219   4.300   2.415   1.763
20659WAT     H262220   4.286   2.468   1.609
20660WAT      O62221   5.600   2.340   0.584
20660WAT     H162222   5.677   2.342   0.648
20660WAT     H262223   5.522   2.387   0.625
20661WAT      O62224   3.496   4.585   5.894
20661WAT     H162225   3.470   4.551   5.804
20661WAT     H262226   3.415   4.592   5.952
20662WAT      O62227   6.877   7.696   7.578
20662WAT     H162228   6.804   7.700   7.646
20662WAT     H262229   6.873   7.778   7.520
20663WAT      O62230   1.393   1.250   1.300
20663WAT     H162231   1.487   1.277   1.281
20663WAT     H262232   1.349   1.319   1.358
20664WAT      O62233   9.761   0.022   5.701
20664WAT     H162234   9.689  -0.043   5.723
20664WAT     H262235   9.809   0.049   5.784
20665WAT      O62236   2.776   1.575   9.605
20665WAT     H162237   2.832   1.615   9.533
20665WAT     H262238   2.809   1.606   9.694
20666WAT      O62239   7.694   2.293   6.348
20666WAT     H162240   7.786   2.332   6.343
20666WAT     H262241   7.670   2.252   6.260
20667WAT      O62242   6.982   5.925   3.263
20667WAT     H162243   6.989   5.882   3.173
20667WAT     H262244   7.064   5.981   3.280
20668WAT      O62245   6.074   3.636   9.710
20668WAT     H162246   5.995   3.694   9.731
20668WAT     H262247   6.090   3.573   9.786
20669WAT      O62248   4.134   0.613   8.865
20669WAT     H162249   4.149   0.709   8.886
20669WAT     H262250   4.067   0.605   8.790
20670WAT      O62251   9.424   4.666   0.792
20670WAT     H162252   9.432   4.759   0.830
20670WAT     H262253   9.505   4.646   0.737
20671WAT      O62254   0.470   4.867   5.443
20671WAT     H162255   0.444   4.946   5.499
20671WAT     H262256   0.544   4.894   5.381
20672WAT      O62257   2.529   3.986   4.602
20672WAT     H162258   2.584   4.064   4.631
20672WAT     H262259   2.434   4.014   4.590
20673WAT      O62260   3.974   9.195   3.666
20673WAT     H162261   4.029   9.150   3.736
20673WAT     H262262   3.934   9.279   3.704
20674WAT      O62263   6.274   8.870   8.932
20674WAT     H162264   6.185   8.893   8.894
20674WAT     H262265   6.346   8.916   8.880
20675WAT      O62266   3.608   1.768   0.528
20675WAT     H162267   3.699   1.727   0.542
20675WAT     H262268   3.541   1.719   0.584
20676WAT      O62269   6.369   8.072   8.918
20676WAT     H162270   6.435   8.145   8.899
20676WAT     H262271   6.311   8.057   8.838
20677WAT      O62272   9.038   1.082   6.033
20677WAT     H162273   8.947   1.124   6.042
20677WAT     H262274   9.029   0.983   6.031
20678WAT      O62275   8.113   7.720   6.864
20678WAT     H162276   8.049   7.792   6.838
20678WAT     H262277   8.064   7.634   6.875
20679WAT      O62278   8.464   3.321   2.682
20679WAT     H162279   8.477   3.325   2.582
20679WAT     H262280   8.435   3.230   2.708
20680WAT      O62281   5.887   8.058   5.486
20680WAT     H162282   5.938   8.010   5.558
20680WAT     H262283   5.891   8.157   5.504
20681WAT      O62284   7.203   6.437   5.955
20681WAT     H162285   7.277   6.374   5.933
20681WAT     H262286   7.149   6.456   5.872
20682WAT      O62287   5.940   6.948   6.579
20682WAT     H162288   5.852   6.981   6.546
20682WAT     H262289   5.926   6.887   6.657
20683WAT      O62290   4.116   4.281   8.094
20683WAT     H162291   4.164   4.350   8.147
20683WAT     H262292   4.104   4.199   8.150
20684WAT      O62293   6.660   3.387   2.071
20684WAT     H162294   6.725   3.425   2.137
20684WAT     H262295   6.569   3.422   2.089
20685WAT      O62296   1.925   0.781   8.136
20685WAT     H162297   1.909   0.755   8.232
20685WAT     H262298   2.020   0.762   8.112
20686WAT      O62299   3.019   9.380   6.845
20686WAT     H162300   3.002   9.296   6.793
20686WAT     H262301   2.984   9.369   6.938
20687WAT      O62302   5.705   4.688   8.860
20687WAT     H162303   5.798   4.654   8.845
20687WAT     H262304   5.644   4.647   8.792
20688WAT      O62305   5.775   2.781   1.164
20688WAT     H162306   5.757   2.827   1.077
20688WAT     H262307   5.714   2.702   1.173
20689WAT      O62308   9.642   4.855   5.005
20689WAT     H162309   9.641   4.924   5.076
20689WAT     H262310   9.708   4.784   5.028
20690WAT      O62311   6.247   5.786   9.088
20690WAT     H162312   6.269   5.798   8.991
20690WAT     H262313   6.148   5.793   9.101
20691WAT      O62314   6.366   2.349   0.905
20691WAT     H162315   6.324   2.268   0.946
20691WAT     H262316   6.301   2.425   0.907
20692WAT      O62317   6.489   1.344   1.238
20692WAT     H162318   6.398   1.306   1.256
20692WAT     H262319   6.480   1.435   1.198
20693WAT      O62320   4.911   3.595   4.515
20693WAT     H162321   4.913   3.641   4.427
20693WAT     H262322   5.003   3.564   4.539
20694WAT      O62323   5.937   9.205   7.281
20694WAT     H162324   6.037   9.207   7.284
20694WAT     H262325   5.907   9.179   7.189
20695WAT      O62326   6.226   2.909   7.127
20695WAT     H162327   6.279   2.903   7.043
20695WAT     H262328   6.180   2.998   7.131
20696WAT      O62329   7.650   5.768   7.055
20696WAT     H162330   7.557   5.731   7.048
20696WAT     H262331   7.651   5.843   7.122
20697WAT      O62332   5.212   1.297   3.093
20697WAT     H162333   5.278   1.279   3.167
20697WAT     H262334   5.251   1.364   3.030
20698WAT      O62335   2.240   9.081   7.879
20698WAT     H162336   2.216   9.000   7.825
20698WAT     H262337   2.220   9.163   7.826
20699WAT      O62338   2.810   5.468   2.241
20699WAT     H162339   2.784   5.413   2.162
20699WAT     H262340   2.754   5.551   2.243
20700WAT      O62341   3.843   8.508   3.762
20700WAT     H162342   3.890   8.533   3.847
20700WAT     H262343   3.785   8.428   3.778
20701WAT      O62344   0.838   9.841   2.785
20701WAT     H162345   0.772   9.851   2.859
20701WAT     H262346   0.929   9.869   2.817
20702WAT      O62347   6.779   7.071   5.841
20702WAT     H162348   6.771   7.118   5.928
20702WAT     H262349   6.864   7.018   5.839
20703WAT      O62350   7.178   2.135   9.649
20703WAT     H162351   7.207   2.230   9.659
20703WAT     H262352   7.224   2.079   9.718
20704WAT      O62353   2.988   2.633   8.420
20704WAT     H162354   3.021   2.611   8.328
20704WAT     H262355   3.029   2.570   8.486
20705WAT      O62356   6.983   5.573   8.612
20705WAT     H162357   7.037   5.506   8.663
20705WAT     H262358   7.005   5.665   8.643
20706WAT      O62359   3.437   2.522   2.078
20706WAT     H162360   3.470   2.457   2.146
20706WAT     H262361   3.348   2.492   2.043
20707WAT      O62362   7.844   9.253   0.217
20707WAT     H162363   7.927   9.205   0.189
20707WAT     H262364   7.822   9.230   0.312
20708WAT      O62365   6.726   3.690   5.787
20708WAT     H162366   6.669   3.766   5.755
20708WAT     H262367   6.669   3.609   5.797
20709WAT      O62368   4.890   7.779   5.743
20709WAT     H162369   4.867   7.813   5.652
20709WAT     H262370   4.806   7.750   5.790
20710WAT      O62371   4.712   0.994   4.391
20710WAT     H162372   4.634   1.032   4.339
20710WAT     H262373   4.771   1.069   4.421
20711WAT      O62374   1.657   9.392   0.673
20711WAT     H162375   1.587   9.362   0.609
20711WAT     H262376   1.614   9.422   0.759
20712WAT      O62377   9.554   2.258   8.430
20712WAT     H162378   9.590   2.313   8.355
20712WAT     H262379   9.523   2.318   8.504
20713WAT      O62380   3.214   5.036   8.146
20713WAT     H162381   3.192   5.117   8.200
20713WAT     H262382   3.159   4.959   8.179
20714WAT      O62383   2.258   8.696   4.329
20714WAT     H162384   2.249   8.661   4.235
20714WAT     H262385   2.350   8.733   4.341
20715WAT      O62386   9.603   0.568   1.357
20715WAT     H162387   9.639   0.541   1.268
20715WAT     H262388   9.565   0.488   1.403
20716WAT      O62389   9.316   2.997   5.007
20716WAT     H162390   9.414   3.009   4.991
20716WAT     H262391   9.298   2.999   5.105
20717WAT      O62392   2.122   3.990   1.609
20717WAT     H162393   2.056   4.047   1.659
20717WAT     H262394   2.110   4.005   1.511
20718WAT      O62395   0.442   2.894   1.010
20718WAT     H162396   0.391   2.836   1.073
20718WAT     H262397   0.479   2.972   1.059
20719WAT      O62398   3.097   7.363   5.754
20719WAT     H162399   3.188   7.360   5.711
20719WAT     H262400   3.037   7.296   5.709
20720WAT      O62401   8.263   9.180   0.727
20720WAT     H162402   8.302   9.116   0.661
20720WAT     H262403   8.209   9.129   0.794
20721WAT      O62404   9.052   8.207   4.240
20721WAT     H162405   9.059   8.302   4.269
20721WAT     H262406   9.128   8.185   4.180
20722WAT      O62407   1.630   6.273   3.489
20722WAT     H162408   1.676   6.231   3.567
20722WAT     H262409   1.689   6.267   3.409
20723WAT      O62410   5.378   9.569   4.139
20723WAT     H162411   5.376   9.613   4.049
20723WAT     H262412   5.460   9.599   4.189
20724WAT      O62413   1.904   7.534   4.861
20724WAT     H162414   1.933   7.439   4.867
20724WAT     H262415   1.983   7.594   4.874
20725WAT      O62416   8.633   1.359   5.622
20725WAT     H162417   8.652   1.279   5.565
20725WAT     H262418   8.574   1.331   5.698
20726WAT      O62419   5.274   5.575   6.933
20726WAT     H162420   5.371   5.557   6.948
20726WAT     H262421   5.239   5.515   6.861
20727WAT      O62422   0.699   0.044   7.792
20727WAT     H162423   0.611   0.092   7.791
20727WAT     H262424   0.692  -0.039   7.737
20728WAT      O62425   4.278   6.053   7.378
20728WAT     H162426   4.258   5.988   7.305
20728WAT     H262427   4.304   6.003   7.461
20729WAT      O62428   8.781   3.520   9.626
20729WAT     H162429   8.731   3.434   9.626
20729WAT     H262430   8.852   3.518   9.697
20730WAT      O62431   1.501   2.623   5.715
20730WAT     H162432   1.533   2.529   5.705
20730WAT     H262433   1.472   2.638   5.810
20731WAT      O62434   4.456   3.201   7.280
20731WAT     H162435   4.461   3.194   7.380
20731WAT     H262436   4.446   3.296   7.253
20732WAT      O62437   9.462   8.461   8.382
20732WAT     H162438   9.454   8.422   8.290
20732WAT     H262439   9.556   8.492   8.397
20733WAT      O62440   0.654   9.792   1.336
20733WAT     H162441   0.690   9.862   1.274
20733WAT     H262442   0.612   9.719   1.282
20734WAT      O62443   5.470   5.954   7.244
20734WAT     H162444   5.502   6.024   7.306
20734WAT     H262445   5.389   5.987   7.195
20735WAT      O62446   7.013   5.589   0.206
20735WAT     H162447   7.004   5.565   0.303
20735WAT     H262448   6.952   5.665   0.185
20736WAT      O62449   8.692   5.993   5.563
20736WAT     H162450   8.596   5.977   5.585
20736WAT     H262451   8.718   5.939   5.483
20737WAT      O62452   3.854   3.112   8.394
20737WAT     H162453   3.787   3.095   8.322
20737WAT     H262454   3.827   3.064   8.477
20738WAT      O62455   1.561   0.836   1.373
20738WAT     H162456   1.652   0.872   1.391
20738WAT     H262457   1.519   0.888   1.299
20739WAT      O62458   6.465   2.304   7.595
20739WAT     H162459   6.431   2.210   7.600
20739WAT     H262460   6.537   2.311   7.527
20740WAT      O62461   5.119   8.901   9.860
20740WAT     H162462   5.055   8.855   9.799
20740WAT     H262463   5.182   8.835   9.900
20741WAT      O62464   7.533   4.364   9.148
20741WAT     H162465   7.448   4.361   9.201
20741WAT     H262466   7.606   4.401   9.204
20742WAT      O62467   4.927   1.829   4.006
20742WAT     H162468   4.928   1.769   3.927
20742WAT     H262469   4.854   1.897   3.995
20743WAT      O62470   3.774   6.207   0.247
20743WAT     H162471   3.782   6.151   0.165
20743WAT     H262472   3.864   6.238   0.276
20744WAT      O62473   6.349   0.173   7.131
20744WAT     H162474   6.338   0.169   7.231
20744WAT     H262475   6.258   0.176   7.088
20745WAT      O62476   4.669   4.755   4.679
20745WAT     H162477   4.691   4.814   4.757
20745WAT     H262478   4.590   4.793   4.631
20746WAT      O62479   3.688   0.519   5.143
20746WAT     H162480   3.760   0.585   5.166
20746WAT     H262481   3.613   0.526   5.208
20747WAT      O62482   2.651   1.208   5.720
20747WAT     H162483   2.644   1.110   5.739
20747WAT     H262484   2.746   1.238   5.732
20748WAT      O62485   7.294   7.403   5.835
20748WAT     H162486   7.293   7.497   5.802
20748WAT     H262487   7.239   7.397   5.919
20749WAT      O62488   5.507   0.143   7.929
20749WAT     H162489   5.445   0.127   7.853
20749WAT     H262490   5.601   0.123   7.901
20750WAT      O62491   6.872   1.605   8.013
20750WAT     H162492   6.928   1.537   7.966
20750WAT     H262493   6.929   1.653   8.081
20751WAT      O62494   5.038   3.352   3.410
20751WAT     H162495   5.003   3.264   3.376
20751WAT     H262496   4.969   3.423   3.395
20752WAT      O62497   4.306   7.321   6.527
20752WAT     H162498   4.324   7.411   6.489
20752WAT     H262499   4.371   7.303   6.602
20753WAT      O62500   1.137   1.912   2.288
20753WAT     H162501   1.189   1.997   2.286
20753WAT     H262502   1.065   1.916   2.219
20754WAT      O62503   0.005   2.470   7.103
20754WAT     H162504   0.015   2.524   7.187
20754WAT     H262505  -0.010   2.532   7.026
20755WAT      O62506   6.583   1.346   7.475
20755WAT     H162507   6.529   1.268   7.509
20755WAT     H262508   6.659   1.363   7.537
20756WAT      O62509   7.456   2.223   7.890
20756WAT     H162510   7.437   2.214   7.988
20756WAT     H262511   7.527   2.292   7.876
20757WAT      O62512   4.864   5.557   0.227
20757WAT     H162513   4.834   5.539   0.134
20757WAT     H262514   4.886   5.471   0.273
20758WAT      O62515   3.266   6.461   9.040
20758WAT     H162516   3.300   6.396   9.108
20758WAT     H262517   3.182   6.504   9.073
20759WAT      O62518   6.714   8.177   0.253
20759WAT     H162519   6.702   8.078   0.244
20759WAT     H262520   6.779   8.209   0.184
20760WAT      O62521   0.893   1.422   9.687
20760WAT     H162522   0.910   1.434   9.785
20760WAT     H262523   0.801   1.384   9.673
20761WAT      O62524   5.957   4.508   3.313
20761WAT     H162525   5.886   4.441   3.334
20761WAT     H262526   5.932   4.597   3.352
20762WAT      O62527   3.327   4.666   6.638
20762WAT     H162528   3.364   4.623   6.556
20762WAT     H262529   3.362   4.759   6.646
20763WAT      O62530   1.301   2.754   8.754
20763WAT     H162531   1.298   2.775   8.656
20763WAT     H262532   1.285   2.656   8.767
20764WAT      O62533   9.047   7.335   8.010
20764WAT     H162534   9.010   7.247   7.983
20764WAT     H262535   9.006   7.364   8.096
20765WAT      O62536   3.319   9.476   1.211
20765WAT     H162537   3.394   9.456   1.273
20765WAT     H262538   3.243   9.518   1.261
20766WAT      O62539   3.843   0.336   4.874
20766WAT     H162540   3.749   0.308   4.891
20766WAT     H262541   3.906   0.270   4.917
20767WAT      O62542   0.923   4.232   4.026
20767WAT     H162543   0.997   4.300   4.020
20767WAT     H262544   0.954   4.153   4.080
20768WAT      O62545   2.469   8.142   6.489
20768WAT     H162546   2.434   8.234   6.508
20768WAT     H262547   2.399   8.075   6.512
20769WAT      O62548   7.179   3.842   7.699
20769WAT     H162549   7.162   3.923   7.755
20769WAT     H262550   7.233   3.777   7.752
20770WAT      O62551   2.344   6.720   3.159
20770WAT     H162552   2.354   6.820   3.163
20770WAT     H262553   2.253   6.698   3.124
20771WAT      O62554   3.227   3.879   9.474
20771WAT     H162555   3.319   3.859   9.441
20771WAT     H262556   3.225   3.873   9.573
20772WAT      O62557   6.341   1.724   9.329
20772WAT     H162558   6.399   1.789   9.280
20772WAT     H262559   6.314   1.650   9.267
20773WAT      O62560   5.770   7.688   8.119
20773WAT     H162561   5.826   7.663   8.198
20773WAT     H262562   5.721   7.773   8.139
20774WAT      O62563   6.103   8.658   1.355
20774WAT     H162564   6.134   8.571   1.317
20774WAT     H262565   6.141   8.733   1.301
20775WAT      O62566   6.779   4.108   9.303
20775WAT     H162567   6.804   4.015   9.329
20775WAT     H262568   6.860   4.157   9.273
20776WAT      O62569   6.250   0.232   5.264
20776WAT     H162570   6.231   0.305   5.198
20776WAT     H262571   6.259   0.271   5.355
20777WAT      O62572   0.633   6.359   2.888
20777WAT     H162573   0.656   6.322   2.978
20777WAT     H262574   0.717   6.372   2.835
20778WAT      O62575   2.631   3.157   1.638
20778WAT     H162576   2.656   3.061   1.651
20778WAT     H262577   2.671   3.211   1.711
20779WAT      O62578   5.116   0.821   6.744
20779WAT     H162579   5.085   0.731   6.713
20779WAT     H262580   5.163   0.868   6.669
20780WAT      O62581   1.058   0.218   4.100
20780WAT     H162582   1.076   0.131   4.146
20780WAT     H262583   1.046   0.290   4.168
20781WAT      O62584   2.840   6.080   3.037
20781WAT     H162585   2.820   6.175   3.064
20781WAT     H262586   2.833   6.021   3.117
20782WAT      O62587   6.269   4.654   3.505
20782WAT     H162588   6.310   4.584   3.448
20782WAT     H262589   6.182   4.620   3.543
20783WAT      O62590   6.945   5.362   2.386
20783WAT     H162591   6.949   5.274   2.433
20783WAT     H262592   6.959   5.436   2.452
20784WAT      O62593   8.225   1.472   7.146
20784WAT     H162594   8.226   1.385   7.097
20784WAT     H262595   8.165   1.465   7.225
20785WAT      O62596   3.517   4.725   0.558
20785WAT     H162597   3.547   4.636   0.524
20785WAT     H262598   3.565   4.797   0.509
20786WAT      O62599   4.777   1.789   6.871
20786WAT     H162600   4.722   1.869   6.895
20786WAT     H262601   4.717   1.710   6.856
20787WAT      O62602   4.645   4.654   5.497
20787WAT     H162603   4.597   4.566   5.495
20787WAT     H262604   4.668   4.677   5.592
20788WAT      O62605   1.727   0.103   3.082
20788WAT     H162606   1.687   0.121   2.992
20788WAT     H262607   1.729   0.005   3.098
20789WAT      O62608   6.888   2.776   8.656
20789WAT     H162609   6.939   2.691   8.671
20789WAT     H262610   6.900   2.806   8.561
20790WAT      O62611   9.303   6.854   0.120
20790WAT     H162612   9.325   6.776   0.178
20790WAT     H262613   9.250   6.823   0.041
20791WAT      O62614   5.052   3.398   9.229
20791WAT     H162615   4.990   3.366   9.158
20791WAT     H262616   5.027   3.356   9.316
20792WAT      O62617   6.769   6.338   0.269
20792WAT     H162618   6.694   6.347   0.203
20792WAT     H262619   6.773   6.420   0.326
20793WAT      O62620   3.548   1.364   9.214
20793WAT     H162621   3.598   1.320   9.288
20793WAT     H262622   3.605   1.367   9.132
20794WAT      O62623   5.724   4.640   6.307
20794WAT     H162624   5.710   4.737   6.327
20794WAT     H262625   5.797   4.604   6.364
20795WAT      O62626   4.339   0.634   1.263
20795WAT     H162627   4.376   0.722   1.292
20795WAT     H262628   4.242   0.645   1.241
20796WAT      O62629   6.651   8.782   3.622
20796WAT     H162630   6.575   8.845   3.637
20796WAT     H262631   6.722   8.827   3.568
20797WAT      O62632   7.372   5.667   3.839
20797WAT     H162633   7.394   5.745   3.779
20797WAT     H262634   7.292   5.619   3.802
20798WAT      O62635   3.935   5.519   8.962
20798WAT     H162636   3.847   5.563   8.943
20798WAT     H262637   4.009   5.582   8.938
20799WAT      O62638   9.370   4.950   7.732
20799WAT     H162639   9.378   4.860   7.689
20799WAT     H262640   9.420   4.950   7.819
20800WAT      O62641   3.996   1.375   2.223
20800WAT     H162642   3.979   1.280   2.198
20800WAT     H262643   4.063   1.415   2.161
20801WAT      O62644   8.929   5.370   7.778
20801WAT     H162645   8.880   5.445   7.823
20801WAT     H262646   8.947   5.298   7.844
20802WAT      O62647   6.086   3.485   9.263
20802WAT     H162648   6.185   3.499   9.260
20802WAT     H262649   6.055   3.486   9.358
20803WAT      O62650   9.825   4.109   5.712
20803WAT     H162651   9.757   4.035   5.712
20803WAT     H262652   9.890   4.095   5.786
20804WAT      O62653   5.941   0.040   5.957
20804WAT     H162654   5.925   0.111   6.025
20804WAT     H262655   6.021   0.064   5.901
20805WAT      O62656   9.532   5.484   4.659
20805WAT     H162657   9.463   5.527   4.718
20805WAT     H262658   9.594   5.430   4.716
20806WAT      O62659   2.921   1.393   2.039
20806WAT     H162660   2.973   1.391   1.954
20806WAT     H262661   2.983   1.384   2.117
20807WAT      O62662   1.627   3.614   6.521
20807WAT     H162663   1.577   3.551   6.581
20807WAT     H262664   1.708   3.568   6.486
20808WAT      O62665   4.256   9.247   4.014
20808WAT     H162666   4.221   9.341   4.012
20808WAT     H262667   4.234   9.205   4.102
20809WAT      O62668   9.295   6.199   6.657
20809WAT     H162669   9.240   6.143   6.595
20809WAT     H262670   9.341   6.271   6.605
20810WAT      O62671   8.024   1.580   4.681
20810WAT     H162672   8.030   1.484   4.654
20810WAT     H262673   7.989   1.634   4.605
20811WAT      O62674   6.658   8.378   3.286
20811WAT     H162675   6.675   8.414   3.377
20811WAT     H262676   6.708   8.292   3.273
20812WAT      O62677   6.200   4.483   9.341
20812WAT     H162678   6.150   4.533   9.412
20812WAT     H262679   6.297   4.508   9.345
20813WAT      O62680   1.139   2.620   0.605
20813WAT     H162681   1.172   2.690   0.669
20813WAT     H262682   1.039   2.615   0.610
20814WAT      O62683   3.707   0.891   1.586
20814WAT     H162684   3.636   0.826   1.557
20814WAT     H262685   3.665   0.964   1.639
20815WAT      O62686   8.417   1.930   7.913
20815WAT     H162687   8.461   1.842   7.897
20815WAT     H262688   8.323   1.927   7.879
20816WAT      O62689   5.027   4.843   0.364
20816WAT     H162690   4.943   4.867   0.314
20816WAT     H262691   5.106   4.878   0.316
20817WAT      O62692   8.741   3.463   3.696
20817WAT     H162693   8.751   3.507   3.607
20817WAT     H262694   8.685   3.380   3.687
20818WAT      O62695   7.671   5.514   0.124
20818WAT     H162696   7.635   5.529   0.032
20818WAT     H262697   7.599   5.476   0.182
20819WAT      O62698   0.848   6.382   2.724
20819WAT     H162699   0.872   6.351   2.632
20819WAT     H262700   0.869   6.479   2.733
20820WAT      O62701   7.532   1.760   1.415
20820WAT     H162702   7.601   1.782   1.484
20820WAT     H262703   7.565   1.787   1.324
20821WAT      O62704   6.818   1.048   3.404
20821WAT     H162705   6.801   0.951   3.387
20821WAT     H262706   6.734   1.093   3.434
20822WAT      O62707   2.400   8.107   2.611
20822WAT     H162708   2.410   8.109   2.512
20822WAT     H262709   2.442   8.189   2.651
20823WAT      O62710   0.429   9.240   6.178
20823WAT     H162711   0.374   9.271   6.100
20823WAT     H262712   0.406   9.145   6.198
20824WAT      O62713   9.075   5.526   0.829
20824WAT     H162714   9.090   5.465   0.752
20824WAT     H262715   9.127   5.493   0.908
20825WAT      O62716   7.818   6.313   3.774
20825WAT     H162717   7.741   6.377   3.787
20825WAT     H262718   7.829   6.257   3.857
20826WAT      O62719   3.270   6.282   4.510
20826WAT     H162720   3.276   6.240   4.419
20826WAT     H262721   3.175   6.305   4.529
20827WAT      O62722   7.619   0.387   3.929
20827WAT     H162723   7.697   0.416   3.984
20827WAT     H262724   7.641   0.300   3.884
20828WAT      O62725   3.415   1.044   1.960
20828WAT     H162726   3.328   1.068   1.917
20828WAT     H262727   3.426   0.945   1.959
20829WAT      O62728   9.822   6.620   4.827
20829WAT     H162729   9.744   6.628   4.764
20829WAT     H262730   9.789   6.627   4.921
20830WAT      O62731   3.920   3.603   6.810
20830WAT     H162732   3.916   3.659   6.893
20830WAT     H262733   3.881   3.655   6.734
20831WAT      O62734   0.169   8.165   0.201
20831WAT     H162735   0.264   8.168   0.234
20831WAT     H262736   0.142   8.071   0.184
20832WAT      O62737   7.808   9.166   3.535
20832WAT     H162738   7.790   9.127   3.445
20832WAT     H262739   7.792   9.097   3.605
20833WAT      O62740   1.183   7.833   8.748
20833WAT     H162741   1.232   7.919   8.760
20833WAT     H262742   1.168   7.817   8.650
20834WAT      O62743   2.233   7.297   1.127
20834WAT     H162744   2.195   7.240   1.200
20834WAT     H262745   2.186   7.385   1.126
20835WAT      O62746   3.950   6.836   0.475
20835WAT     H162747   3.965   6.753   0.422
20835WAT     H262748   3.860   6.874   0.453
20836WAT      O62749   4.257   4.281   4.199
20836WAT     H162750   4.262   4.240   4.290
20836WAT     H262751   4.332   4.248   4.142
20837WAT      O62752   1.038   6.633   9.501
20837WAT     H162753   1.094   6.679   9.433
20837WAT     H262754   0.948   6.676   9.505
20838WAT      O62755   8.648   5.984   9.844
20838WAT     H162756   8.698   5.970   9.930
20838WAT     H262757   8.620   5.896   9.807
20839WAT      O62758   2.241   4.406   2.195
20839WAT     H162759   2.307   4.386   2.267
20839WAT     H262760   2.256   4.499   2.161
20840WAT      O62761   9.708   8.395   5.097
20840WAT     H162762   9.672   8.479   5.055
20840WAT     H262763   9.799   8.376   5.060
20841WAT      O62764   7.275   3.945   6.963
20841WAT     H162765   7.248   3.977   6.872
20841WAT     H262766   7.261   3.846   6.969
20842WAT      O62767   9.051   9.741   9.417
20842WAT     H162768   9.081   9.720   9.510
20842WAT     H262769   9.131   9.764   9.361
20843WAT      O62770   9.068   6.293   0.202
20843WAT     H162771   9.167   6.288   0.194
20843WAT     H262772   9.034   6.209   0.244
20844WAT      O62773   8.302   9.161   5.035
20844WAT     H162774   8.312   9.258   5.013
20844WAT     H262775   8.262   9.151   5.127
20845WAT      O62776   6.270   0.906   7.185
20845WAT     H162777   6.205   0.925   7.259
20845WAT     H262778   6.310   0.816   7.199
20846WAT      O62779   3.820   9.772   1.671
20846WAT     H162780   3.919   9.772   1.678
20846WAT     H262781   3.780   9.774   1.762
20847WAT      O62782   1.007   6.174   2.837
20847WAT     H162783   0.954   6.241   2.787
20847WAT     H262784   0.948   6.099   2.866
20848WAT      O62785   2.737   2.938   9.134
20848WAT     H162786   2.654   2.888   9.155
20848WAT     H262787   2.816   2.877   9.139
20849WAT      O62788   2.728   5.120   6.314
20849WAT     H162789   2.707   5.140   6.218
20849WAT     H262790   2.741   5.021   6.325
20850WAT      O62791   4.638   3.157   4.838
20850WAT     H162792   4.567   3.119   4.897
20850WAT     H262793   4.604   3.160   4.744
20851WAT      O62794   1.933   4.663   5.872
20851WAT     H162795   1.941   4.579   5.926
20851WAT     H262796   1.873   4.728   5.920
20852WAT      O62797   1.993   0.570   7.233
20852WAT     H162798   1.993   0.664   7.200
20852WAT     H262799   2.068   0.557   7.298
20853WAT      O62800   6.228   3.043   6.177
20853WAT     H162801   6.309   3.076   6.129
20853WAT     H262802   6.154   3.026   6.111
20854WAT      O62803   5.880   5.837   8.568
20854WAT     H162804   5.931   5.754   8.546
20854WAT     H262805   5.883   5.853   8.667
20855WAT      O62806   7.709   7.545   7.199
20855WAT     H162807   7.620   7.498   7.204
20855WAT     H262808   7.753   7.542   7.288
20856WAT      O62809   3.532   8.031   3.608
20856WAT     H162810   3.617   8.073   3.578
20856WAT     H262811   3.500   7.967   3.538
20857WAT      O62812   3.157   1.103   1.878
20857WAT     H162813   3.134   1.201   1.883
20857WAT     H262814   3.110   1.062   1.800
20858WAT      O62815   7.949   5.224   5.337
20858WAT     H162816   7.854   5.205   5.312
20858WAT     H262817   7.979   5.158   5.406
20859WAT      O62818   0.420   5.575   6.678
20859WAT     H162819   0.371   5.662   6.684
20859WAT     H262820   0.367   5.511   6.622
20860WAT      O62821   5.813   9.431   7.366
20860WAT     H162822   5.851   9.520   7.341
20860WAT     H262823   5.866   9.358   7.322
20861WAT      O62824   1.180   0.117   9.280
20861WAT     H162825   1.172   0.108   9.181
20861WAT     H262826   1.261   0.069   9.312
20862WAT      O62827   8.177   6.847   6.058
20862WAT     H162828   8.081   6.851   6.030
20862WAT     H262829   8.230   6.911   6.003
20863WAT      O62830   6.523   5.678   7.854
20863WAT     H162831   6.514   5.680   7.953
20863WAT     H262832   6.606   5.628   7.829
20864WAT      O62833   5.945   9.664   7.319
20864WAT     H162834   5.927   9.746   7.265
20864WAT     H262835   6.041   9.637   7.309
20865WAT      O62836   0.014   4.804   2.426
20865WAT     H162837   0.107   4.768   2.419
20865WAT     H262838  -0.046   4.753   2.364
20866WAT      O62839   4.771   2.810   3.216
20866WAT     H162840   4.673   2.814   3.194
20866WAT     H262841   4.785   2.838   3.311
20867WAT      O62842   5.750   3.334   0.661
20867WAT     H162843   5.716   3.428   0.669
20867WAT     H262844   5.848   3.332   0.683
20868WAT      O62845   0.286   9.195   2.210
20868WAT     H162846   0.241   9.212   2.123
20868WAT     H262847   0.220   9.158   2.275
20869WAT      O62848   1.437   7.030   0.470
20869WAT     H162849   1.430   6.996   0.377
20869WAT     H262850   1.359   6.997   0.524
20870WAT      O62851   4.392   0.855   0.876
20870WAT     H162852   4.395   0.922   0.802
20870WAT     H262853   4.484   0.823   0.895
20871WAT      O62854   3.099   7.419   4.481
20871WAT     H162855   3.145   7.363   4.412
20871WAT     H262856   3.051   7.359   4.546
20872WAT      O62857   3.271   9.032   1.391
20872WAT     H162858   3.328   9.098   1.342
20872WAT     H262859   3.265   9.059   1.487
20873WAT      O62860   0.981   3.822   2.475
20873WAT     H162861   0.929   3.792   2.394
20873WAT     H262862   0.918   3.853   2.546
20874WAT      O62863   6.398   6.359   1.423
20874WAT     H162864   6.419   6.456   1.419
20874WAT     H262865   6.460   6.308   1.363
20875WAT      O62866   8.824   1.107   1.021
20875WAT     H162867   8.870   1.087   1.108
20875WAT     H262868   8.727   1.084   1.029
20876WAT      O62869   0.295   3.744   0.200
20876WAT     H162870   0.361   3.803   0.248
20876WAT     H262871   0.285   3.775   0.106
20877WAT      O62872   2.627   1.326   1.183
20877WAT     H162873   2.711   1.368   1.149
20877WAT     H262874   2.557   1.328   1.111
20878WAT      O62875   2.352   6.586   6.179
20878WAT     H162876   2.331   6.521   6.106
20878WAT     H262877   2.275   6.590   6.243
20879WAT      O62878   8.776   3.653   0.374
20879WAT     H162879   8.869   3.688   0.375
20879WAT     H262880   8.769   3.577   0.439
20880WAT      O62881   9.032   4.866   6.266
20880WAT     H162882   9.012   4.950   6.316
20880WAT     H262883   8.976   4.792   6.302
20881WAT      O62884   4.279   3.146   2.359
20881WAT     H162885   4.247   3.053   2.340
20881WAT     H262886   4.377   3.144   2.378
20882WAT      O62887   6.934   7.917   3.581
20882WAT     H162888   7.029   7.933   3.608
20882WAT     H262889   6.873   7.968   3.642
20883WAT      O62890   6.113   4.464   3.889
20883WAT     H162891   6.211   4.455   3.909
20883WAT     H262892   6.061   4.404   3.950
20884WAT      O62893   2.728   3.556   3.323
20884WAT     H162894   2.698   3.626   3.388
20884WAT     H262895   2.816   3.581   3.285
20885WAT      O62896   8.984   8.201   8.306
20885WAT     H162897   8.917   8.230   8.375
20885WAT     H262898   9.061   8.157   8.352
20886WAT      O62899   7.081   0.107   8.966
20886WAT     H162900   7.082   0.202   8.935
20886WAT     H262901   7.015   0.055   8.912
20887WAT      O62902   2.417   8.093   7.329
20887WAT     H162903   2.467   8.179   7.339
20887WAT     H262904   2.324   8.104   7.364
20888WAT      O62905   3.080   3.799   0.755
20888WAT     H162906   3.095   3.874   0.819
20888WAT     H262907   2.991   3.811   0.709
20889WAT      O62908   0.528   5.910   5.908
20889WAT     H162909   0.606   5.853   5.934
20889WAT     H262910   0.558   6.004   5.895
20890WAT      O62911   7.212   3.679   7.925
20890WAT     H162912   7.212   3.749   7.996
20890WAT     H262913   7.302   3.636   7.919
20891WAT      O62914   3.678   3.201   7.946
20891WAT     H162915   3.741   3.278   7.932
20891WAT     H262916   3.701   3.128   7.882
20892WAT      O62917   8.608   9.289   6.794
20892WAT     H162918   8.597   9.309   6.891
20892WAT     H262919   8.705   9.279   6.772
20893WAT      O62920   0.542   4.023   6.596
20893WAT     H162921   0.490   4.079   6.532
20893WAT     H262922   0.538   3.927   6.568
20894WAT      O62923   5.947   0.565   2.750
20894WAT     H162924   5.857   0.566   2.705
20894WAT     H262925   5.935   0.554   2.848
20895WAT      O62926   9.285   1.137   5.951
20895WAT     H162927   9.349   1.132   6.028
20895WAT     H262928   9.200   1.090   5.974
20896WAT      O62929   3.394   6.546   3.466
20896WAT     H162930   3.400   6.460   3.415
20896WAT     H262931   3.395   6.622   3.401
20897WAT      O62932   9.533   4.115   2.855
20897WAT     H162933   9.478   4.097   2.773
20897WAT     H262934   9.547   4.213   2.865
20898WAT      O62935   3.616   1.764   9.139
20898WAT     H162936   3.662   1.848   9.168
20898WAT     H262937   3.684   1.697   9.108
20899WAT      O62938   9.247   6.714   6.525
20899WAT     H162939   9.165   6.736   6.472
20899WAT     H262940   9.328   6.719   6.466
20900WAT      O62941   9.785   1.506   4.450
20900WAT     H162942   9.830   1.529   4.364
20900WAT     H262943   9.855   1.487   4.519
20901WAT      O62944   3.831   3.732   7.032
20901WAT     H162945   3.900   3.729   7.104
20901WAT     H262946   3.740   3.722   7.072
20902WAT      O62947   9.723   0.839   8.428
20902WAT     H162948   9.701   0.843   8.526
20902WAT     H262949   9.639   0.845   8.375
20903WAT      O62950   3.548   1.563   6.215
20903WAT     H162951   3.474   1.497   6.231
20903WAT     H262952   3.523   1.651   6.256
20904WAT      O62953   0.412   9.411   1.584
20904WAT     H162954   0.510   9.428   1.572
20904WAT     H262955   0.398   9.352   1.663
20905WAT      O62956   4.698   3.823   1.669
20905WAT     H162957   4.644   3.857   1.746
20905WAT     H262958   4.695   3.889   1.594
20906WAT      O62959   6.988   8.032   3.893
20906WAT     H162960   7.056   7.960   3.906
20906WAT     H262961   6.978   8.084   3.978
20907WAT      O62962   5.527   1.378   1.525
20907WAT     H162963   5.458   1.407   1.458
20907WAT     H262964   5.555   1.457   1.580
20908WAT      O62965   0.837   1.748   6.621
20908WAT     H162966   0.805   1.734   6.715
20908WAT     H262967   0.900   1.826   6.619
20909WAT      O62968   3.499   7.216   4.225
20909WAT     H162969   3.562   7.214   4.148
20909WAT     H262970   3.537   7.275   4.297
20910WAT      O62971   6.692   0.430   5.783
20910WAT     H162972   6.611   0.488   5.792
20910WAT     H262973   6.773   0.488   5.776
20911WAT      O62974   6.090   5.834   8.320
20911WAT     H162975   6.013   5.850   8.259
20911WAT     H262976   6.127   5.921   8.353
20912WAT      O62977   1.021   3.662   4.251
20912WAT     H162978   0.926   3.689   4.234
20912WAT     H262979   1.036   3.569   4.217
20913WAT      O62980   1.273   1.263   7.447
20913WAT     H162981   1.179   1.297   7.440
20913WAT     H262982   1.325   1.320   7.510
20914WAT      O62983   4.235   7.748   1.040
20914WAT     H162984   4.211   7.679   0.971
20914WAT     H262985   4.266   7.703   1.123
20915WAT      O62986   2.498   4.854   9.751
20915WAT     H162987   2.513   4.806   9.837
20915WAT     H262988   2.427   4.924   9.763
20916WAT      O62989   7.395   7.874   4.245
20916WAT     H162990   7.412   7.875   4.343
20916WAT     H262991   7.466   7.927   4.198
20917WAT      O62992   6.769   5.867   7.197
20917WAT     H162993   6.790   5.962   7.220
20917WAT     H262994   6.822   5.840   7.116
20918WAT      O62995   5.307   3.516   8.422
20918WAT     H162996   5.283   3.486   8.514
20918WAT     H262997   5.320   3.615   8.421
20919WAT      O62998   3.266   4.683   8.794
20919WAT     H162999   3.349   4.736   8.805
20919WAT     H263000   3.186   4.739   8.817
20920WAT      O63001   3.858   4.207   0.696
20920WAT     H163002   3.862   4.289   0.639
20920WAT     H263003   3.827   4.129   0.641
20921WAT      O63004   0.377   8.587   9.519
20921WAT     H163005   0.396   8.500   9.473
20921WAT     H263006   0.423   8.660   9.470
20922WAT      O63007   6.164   8.001   5.227
20922WAT     H163008   6.111   8.043   5.153
20922WAT     H263009   6.128   7.910   5.245
20923WAT      O63010   4.138   1.893   5.565
20923WAT     H163011   4.112   1.983   5.531
20923WAT     H263012   4.216   1.902   5.628
20924WAT      O63013   6.674   9.415   0.578
20924WAT     H163014   6.701   9.473   0.501
20924WAT     H263015   6.590   9.366   0.556
20925WAT      O63016   3.475   2.952   7.750
20925WAT     H163017   3.543   3.005   7.699
20925WAT     H263018   3.399   3.012   7.775
20926WAT      O63019   4.012   4.254   8.506
20926WAT     H163020   4.099   4.204   8.506
20926WAT     H263021   4.011   4.318   8.583
20927WAT      O63022   2.331   0.507   0.952
20927WAT     H163023   2.276   0.480   1.031
20927WAT     H263024   2.282   0.486   0.868
20928WAT      O63025   7.720   9.481   6.534
20928WAT     H163026   7.733   9.411   6.605
20928WAT     H263027   7.626   9.476   6.500
20929WAT      O63028   1.620   5.886   2.334
20929WAT     H163029   1.691   5.816   2.343
20929WAT     H263030   1.633   5.935   2.248
20930WAT      O63031   8.509   1.127   4.176
20930WAT     H163032   8.529   1.092   4.267
20930WAT     H263033   8.519   1.226   4.175
20931WAT      O63034   6.717   2.740   0.927
20931WAT     H163035   6.656   2.677   0.974
20931WAT     H263036   6.760   2.694   0.850
20932WAT      O63037   4.057   7.670   6.375
20932WAT     H163038   4.046   7.590   6.434
20932WAT     H263039   4.019   7.750   6.421
20933WAT      O63040   5.698   0.969   2.087
20933WAT     H163041   5.650   0.933   2.167
20933WAT     H263042   5.632   1.012   2.025
20934WAT      O63043   8.870   2.115   3.369
20934WAT     H163044   8.880   2.079   3.461
20934WAT     H263045   8.776   2.147   3.355
20935WAT      O63046   9.547   3.955   9.566
20935WAT     H163047   9.535   4.054   9.560
20935WAT     H263048   9.578   3.930   9.658
20936WAT      O63049   5.458   4.728   3.276
20936WAT     H163050   5.526   4.750   3.206
20936WAT     H263051   5.501   4.672   3.347
20937WAT      O63052   4.424   0.488   7.064
20937WAT     H163053   4.388   0.465   6.974
20937WAT     H263054   4.406   0.585   7.083
20938WAT      O63055   1.109   2.595   4.367
20938WAT     H163056   1.055   2.668   4.325
20938WAT     H263057   1.184   2.569   4.306
20939WAT      O63058   7.452   7.425   7.198
20939WAT     H163059   7.427   7.332   7.226
20939WAT     H263060   7.464   7.427   7.098
20940WAT      O63061   5.374   0.282   3.668
20940WAT     H163062   5.297   0.232   3.630
20940WAT     H263063   5.381   0.371   3.622
20941WAT      O63064   6.128   5.751   3.375
20941WAT     H163065   6.087   5.765   3.284
20941WAT     H263066   6.055   5.739   3.442
20942WAT      O63067   7.910   1.322   7.021
20942WAT     H163068   7.840   1.370   6.969
20942WAT     H263069   7.888   1.329   7.119
20943WAT      O63070   8.199   5.319   8.608
20943WAT     H163071   8.291   5.332   8.645
20943WAT     H263072   8.158   5.409   8.590
20944WAT      O63073   1.363   6.907   5.148
20944WAT     H163074   1.427   6.945   5.214
20944WAT     H263075   1.295   6.977   5.124
20945WAT      O63076   9.347   5.082   4.067
20945WAT     H163077   9.411   5.012   4.033
20945WAT     H263078   9.331   5.068   4.164
20946WAT      O63079   1.685   5.166   6.766
20946WAT     H163080   1.713   5.135   6.675
20946WAT     H263081   1.743   5.242   6.795
20947WAT      O63082   4.845   2.166   0.939
20947WAT     H163083   4.932   2.197   0.977
20947WAT     H263084   4.807   2.094   0.997
20948WAT      O63085   8.098   3.009   0.034
20948WAT     H163086   8.029   2.961   0.088
20948WAT     H263087   8.186   3.008   0.082
20949WAT      O63088   0.749   5.427   2.660
20949WAT     H163089   0.811   5.501   2.687
20949WAT     H263090   0.765   5.348   2.718
20950WAT      O63091   0.496   9.836   3.579
20950WAT     H163092   0.486   9.754   3.636
20950WAT     H263093   0.560   9.818   3.505
20951WAT      O63094   5.816   3.726   1.693
20951WAT     H163095   5.845   3.679   1.777
20951WAT     H263096   5.807   3.659   1.619
20952WAT      O63097   5.133   2.254   0.949
20952WAT     H163098   5.209   2.216   0.897
20952WAT     H263099   5.075   2.308   0.888
20953WAT      O63100   2.012   5.287   0.919
20953WAT     H163101   2.039   5.198   0.956
20953WAT     H263102   2.078   5.315   0.849
20954WAT      O63103   4.008   1.450   0.239
20954WAT     H163104   3.977   1.406   0.155
20954WAT     H263105   4.031   1.381   0.307
20955WAT      O63106   4.199   2.395   4.481
20955WAT     H163107   4.116   2.344   4.503
20955WAT     H263108   4.261   2.393   4.559
20956WAT      O63109   5.711   8.737   4.293
20956WAT     H163110   5.777   8.718   4.366
20956WAT     H263111   5.632   8.677   4.302
20957WAT      O63112   3.914   5.413   1.626
20957WAT     H163113   3.887   5.461   1.709
20957WAT     H263114   4.009   5.435   1.603
20958WAT      O63115   8.767   3.083   1.655
20958WAT     H163116   8.719   3.116   1.736
20958WAT     H263117   8.806   3.161   1.606
20959WAT      O63118   7.566   4.638   7.669
20959WAT     H163119   7.593   4.547   7.701
20959WAT     H263120   7.619   4.662   7.588
20960WAT      O63121   7.469   6.430   2.144
20960WAT     H163122   7.548   6.426   2.083
20960WAT     H263123   7.480   6.363   2.217
20961WAT      O63124   5.881   8.343   4.436
20961WAT     H163125   5.811   8.335   4.365
20961WAT     H263126   5.873   8.267   4.500
20962WAT      O63127   5.168   2.002   8.999
20962WAT     H163128   5.252   1.955   9.024
20962WAT     H263129   5.091   1.939   9.005
20963WAT      O63130   7.357   4.876   9.028
20963WAT     H163131   7.414   4.916   8.956
20963WAT     H263132   7.409   4.872   9.113
20964WAT      O63133   1.364   6.955   8.645
20964WAT     H163134   1.435   6.899   8.687
20964WAT     H263135   1.338   7.029   8.706
20965WAT      O63136   4.064   8.404   2.134
20965WAT     H163137   4.072   8.398   2.233
20965WAT     H263138   3.994   8.341   2.102
20966WAT      O63139   0.294   1.806   6.375
20966WAT     H163140   0.262   1.876   6.311
20966WAT     H263141   0.359   1.746   6.329
20967WAT      O63142   6.255   3.398   9.616
20967WAT     H163143   6.307   3.483   9.615
20967WAT     H263144   6.180   3.406   9.682
20968WAT      O63145   7.003   3.646   5.770
20968WAT     H163146   7.062   3.702   5.827
20968WAT     H263147   6.914   3.691   5.759
20969WAT      O63148   4.621   4.984   9.089
20969WAT     H163149   4.550   4.950   9.150
20969WAT     H263150   4.605   5.081   9.070
20970WAT      O63151   8.180   0.923   6.025
20970WAT     H163152   8.167   0.825   6.011
20970WAT     H263153   8.277   0.944   6.033
20971WAT      O63154   9.600   3.986   3.780
20971WAT     H163155   9.646   3.899   3.800
20971WAT     H263156   9.636   4.057   3.839
20972WAT      O63157   3.750   1.053   9.529
20972WAT     H163158   3.693   1.132   9.509
20972WAT     H263159   3.799   1.067   9.615
20973WAT      O63160   7.817   5.889   1.540
20973WAT     H163161   7.768   5.962   1.492
20973WAT     H263162   7.757   5.810   1.551
20974WAT      O63163   6.817   4.249   2.752
20974WAT     H163164   6.741   4.230   2.690
20974WAT     H263165   6.822   4.177   2.821
20975WAT      O63166   1.913   1.215   5.226
20975WAT     H163167   1.856   1.133   5.226
20975WAT     H263168   1.966   1.218   5.141
20976WAT      O63169   4.810   3.682   1.243
20976WAT     H163170   4.725   3.732   1.262
20976WAT     H263171   4.860   3.668   1.328
20977WAT      O63172   8.774   9.029   5.677
20977WAT     H163173   8.847   9.054   5.613
20977WAT     H263174   8.712   9.106   5.689
20978WAT      O63175   0.647   8.808   9.212
20978WAT     H163176   0.644   8.716   9.173
20978WAT     H263177   0.742   8.833   9.231
20979WAT      O63178   6.025   0.019   4.162
20979WAT     H163179   6.098  -0.049   4.153
20979WAT     H263180   5.939  -0.019   4.128
20980WAT      O63181   1.056   2.837   3.526
20980WAT     H163182   0.983   2.902   3.545
20980WAT     H263183   1.126   2.843   3.597
20981WAT      O63184   8.791   6.152   6.783
20981WAT     H163185   8.890   6.168   6.785
20981WAT     H263186   8.744   6.240   6.780
20982WAT      O63187   1.500   0.103   3.608
20982WAT     H163188   1.583   0.107   3.664
20982WAT     H263189   1.521   0.057   3.522
20983WAT      O63190   8.477   8.554   5.436
20983WAT     H163191   8.504   8.613   5.512
20983WAT     H263192   8.557   8.534   5.379
20984WAT      O63193   4.939   0.759   9.684
20984WAT     H163194   5.025   0.710   9.700
20984WAT     H263195   4.924   0.769   9.585
20985WAT      O63196   0.894   0.998   0.813
20985WAT     H163197   0.987   1.012   0.846
20985WAT     H263198   0.832   1.058   0.864
20986WAT      O63199   9.616   5.274   6.649
20986WAT     H163200   9.562   5.357   6.661
20986WAT     H263201   9.555   5.199   6.621
20987WAT      O63202   7.161   9.061   5.674
20987WAT     H163203   7.229   9.119   5.718
20987WAT     H263204   7.206   9.005   5.605
20988WAT      O63205   0.843   5.259   2.926
20988WAT     H163206   0.928   5.298   2.962
20988WAT     H263207   0.812   5.186   2.987
20989WAT      O63208   6.116   1.750   4.169
20989WAT     H163209   6.033   1.793   4.205
20989WAT     H263210   6.163   1.702   4.243
20990WAT      O63211   0.030   8.395   0.626
20990WAT     H163212  -0.037   8.469   0.628
20990WAT     H263213   0.024   8.342   0.711
20991WAT      O63214   2.881   6.972   7.496
20991WAT     H163215   2.847   6.926   7.578
20991WAT     H263216   2.945   7.044   7.523
20992WAT      O63217   1.029   8.201   8.394
20992WAT     H163218   1.000   8.111   8.428
20992WAT     H263219   0.994   8.214   8.301
20993WAT      O63220   4.955   8.834   2.270
20993WAT     H163221   5.049   8.801   2.285
20993WAT     H263222   4.930   8.898   2.342
20994WAT      O63223   9.389   3.751   8.722
20994WAT     H163224   9.485   3.782   8.724
20994WAT     H263225   9.361   3.727   8.815
20995WAT      O63226   8.118   1.909   9.386
20995WAT     H163227   8.060   1.937   9.310
20995WAT     H263228   8.197   1.971   9.393
20996WAT      O63229   8.486   1.628   1.760
20996WAT     H163230   8.521   1.616   1.853
20996WAT     H263231   8.494   1.724   1.734
20997WAT      O63232   4.194   1.493   9.839
20997WAT     H163233   4.135   1.534   9.768
20997WAT     H263234   4.138   1.468   9.918
20998WAT      O63235   7.607   8.506   0.227
20998WAT     H163236   7.673   8.449   0.177
20998WAT     H263237   7.640   8.601   0.229
20999WAT      O63238   2.788   1.150   0.346
20999WAT     H163239   2.725   1.228   0.345
20999WAT     H263240   2.840   1.148   0.260
21000WAT      O63241   6.218   3.210   3.104
21000WAT     H163242   6.119   3.213   3.093
21000WAT     H263243   6.242   3.237   3.198
21001WAT      O63244   8.823   6.136   5.003
21001WAT     H163245   8.860   6.199   5.072
21001WAT     H263246   8.856   6.162   4.913
21002WAT      O63247   8.643   6.367   1.885
21002WAT     H163248   8.565   6.333   1.832
21002WAT     H263249   8.724   6.370   1.827
21003WAT      O63250   9.425   2.802   3.902
21003WAT     H163251   9.515   2.811   3.946
21003WAT     H263252   9.360   2.863   3.948
21004WAT      O63253   4.146   0.070   8.164
21004WAT     H163254   4.109   0.146   8.112
21004WAT     H263255   4.176  -0.002   8.102
21005WAT      O63256   0.772   2.181   7.095
21005WAT     H163257   0.820   2.237   7.028
21005WAT     H263258   0.819   2.186   7.183
21006WAT      O63259   9.584   9.199   5.031
21006WAT     H163260   9.486   9.185   5.047
21006WAT     H263261   9.608   9.168   4.939
21007WAT      O63262   6.036   8.020   3.510
21007WAT     H163263   6.035   7.996   3.607
21007WAT     H263264   6.128   8.050   3.484
21008WAT      O63265   5.279   6.351   6.510
21008WAT     H163266   5.226   6.323   6.430
21008WAT     H263267   5.218   6.362   6.588
21009WAT      O63268   4.491   6.264   8.520
21009WAT     H163269   4.452   6.355   8.510
21009WAT     H263270   4.580   6.260   8.473
21010WAT      O63271   8.203   3.446   5.262
21010WAT     H163272   8.221   3.355   5.224
21010WAT     H263273   8.250   3.515   5.207
21011WAT      O63274   9.677   0.151   6.701
21011WAT     H163275   9.673   0.231   6.760
21011WAT     H263276   9.620   0.078   6.740
21012WAT      O63277   4.026   5.336   8.337
21012WAT     H163278   3.992   5.246   8.364
21012WAT     H263279   3.984   5.362   8.250
21013WAT      O63280   3.224   4.515   9.386
21013WAT     H163281   3.212   4.441   9.451
21013WAT     H263282   3.184   4.489   9.298
21014WAT      O63283   5.112   9.202   4.244
21014WAT     H163284   5.191   9.144   4.262
21014WAT     H263285   5.030   9.161   4.286
21015WAT      O63286   5.995   4.226   5.570
21015WAT     H163287   5.925   4.221   5.641
21015WAT     H263288   5.978   4.306   5.512
21016WAT      O63289   9.433   1.059   0.605
21016WAT     H163290   9.527   1.093   0.600
21016WAT     H263291   9.384   1.081   0.521
21017WAT      O63292   2.770   0.015   7.032
21017WAT     H163293   2.732   0.026   6.940
21017WAT     H263294   2.862   0.053   7.035
21018WAT      O63295   7.013   1.423   9.857
21018WAT     H163296   7.108   1.446   9.881
21018WAT     H263297   7.005   1.325   9.843
21019WAT      O63298   9.065   6.022   5.933
21019WAT     H163299   9.074   5.933   5.978
21019WAT     H263300   8.970   6.052   5.936
21020WAT      O63301   3.420   9.388   4.298
21020WAT     H163302   3.376   9.471   4.332
21020WAT     H263303   3.498   9.413   4.240
21021WAT      O63304   2.196   9.107   4.487
21021WAT     H163305   2.252   9.117   4.405
21021WAT     H263306   2.139   9.025   4.479
21022WAT      O63307   5.416   9.347   1.527
21022WAT     H163308   5.325   9.340   1.568
21022WAT     H263309   5.409   9.334   1.428
21023WAT      O63310   0.134   0.799   2.279
21023WAT     H163311   0.076   0.780   2.358
21023WAT     H263312   0.174   0.890   2.287
21024WAT      O63313   6.947   9.019   1.578
21024WAT     H163314   7.037   9.059   1.599
21024WAT     H263315   6.951   8.972   1.491
21025WAT      O63316   4.255   6.475   3.412
21025WAT     H163317   4.289   6.431   3.329
21025WAT     H263318   4.299   6.564   3.423
21026WAT      O63319   5.254   3.032   5.512
21026WAT     H163320   5.285   2.951   5.562
21026WAT     H263321   5.318   3.107   5.526
21027WAT      O63322   4.607   1.390   5.397
21027WAT     H163323   4.616   1.380   5.496
21027WAT     H263324   4.600   1.299   5.355
21028WAT      O63325   3.924   8.170   6.627
21028WAT     H163326   3.879   8.257   6.648
21028WAT     H263327   4.021   8.187   6.605
21029WAT      O63328   9.227   3.017   6.517
21029WAT     H163329   9.300   3.085   6.529
21029WAT     H263330   9.156   3.032   6.586
21030WAT      O63331   9.149   3.472   4.166
21030WAT     H163332   9.094   3.391   4.185
21030WAT     H263333   9.201   3.498   4.248
21031WAT      O63334   4.287   4.638   7.034
21031WAT     H163335   4.219   4.711   7.037
21031WAT     H263336   4.374   4.675   7.001
21032WAT      O63337   3.995   2.241   6.669
21032WAT     H163338   4.030   2.236   6.576
21032WAT     H263339   3.911   2.296   6.670
21033WAT      O63340   2.689   5.509   5.146
21033WAT     H163341   2.694   5.588   5.207
21033WAT     H263342   2.596   5.499   5.111
21034WAT      O63343   6.977   8.802   2.216
21034WAT     H163344   6.992   8.736   2.143
21034WAT     H263345   6.979   8.755   2.305
21035WAT      O63346   6.016   9.169   6.558
21035WAT     H163347   6.019   9.072   6.584
21035WAT     H263348   6.107   9.209   6.568
21036WAT      O63349   7.981   6.173   3.527
21036WAT     H163350   7.933   6.085   3.531
21036WAT     H263351   7.968   6.222   3.613
21037WAT      O63352   6.401   9.342   2.592
21037WAT     H163353   6.340   9.281   2.541
21037WAT     H263354   6.494   9.335   2.556
21038WAT      O63355   2.473   6.630   5.126
21038WAT     H163356   2.446   6.539   5.158
21038WAT     H263357   2.572   6.638   5.127
21039WAT      O63358   5.426   7.769   2.823
21039WAT     H163359   5.429   7.757   2.723
21039WAT     H263360   5.393   7.685   2.865
21040WAT      O63361   5.805   4.485   2.825
21040WAT     H163362   5.865   4.525   2.755
21040WAT     H263363   5.857   4.473   2.910
21041WAT      O63364   3.256   2.252   9.483
21041WAT     H163365   3.258   2.346   9.449
21041WAT     H263366   3.335   2.201   9.448
21042WAT      O63367   8.171   5.729   2.955
21042WAT     H163368   8.130   5.760   3.041
21042WAT     H263369   8.103   5.681   2.900
21043WAT      O63370   6.834   9.351   5.408
21043WAT     H163371   6.882   9.313   5.487
21043WAT     H263372   6.870   9.308   5.324
21044WAT      O63373   9.156   9.810   5.674
21044WAT     H163374   9.140   9.881   5.743
21044WAT     H263375   9.139   9.847   5.583
21045WAT      O63376   0.057   1.645   3.216
21045WAT     H163377  -0.004   1.619   3.291
21045WAT     H263378   0.055   1.574   3.146
21046WAT      O63379   4.748   4.343   0.134
21046WAT     H163380   4.803   4.366   0.214
21046WAT     H263381   4.739   4.244   0.125
21047WAT      O63382   7.954   8.221   3.703
21047WAT     H163383   8.018   8.298   3.706
21047WAT     H263384   7.882   8.235   3.771
21048WAT      O63385   2.355   8.445   3.883
21048WAT     H163386   2.334   8.351   3.857
21048WAT     H263387   2.306   8.470   3.966
21049WAT      O63388   5.391   1.894   9.108
21049WAT     H163389   5.439   1.948   9.039
21049WAT     H263390   5.453   1.823   9.143
21050WAT      O63391   3.960   6.005   2.223
21050WAT     H163392   3.886   6.068   2.198
21050WAT     H263393   3.996   5.962   2.140
21051WAT      O63394   1.448   0.262   3.079
21051WAT     H163395   1.505   0.262   2.996
21051WAT     H263396   1.412   0.354   3.095
21052WAT      O63397   9.750   9.108   7.203
21052WAT     H163398   9.832   9.090   7.256
21052WAT     H263399   9.671   9.067   7.249
21053WAT      O63400   5.399   5.057   9.703
21053WAT     H163401   5.431   5.122   9.771
21053WAT     H263402   5.383   4.968   9.746
21054WAT      O63403   8.330   1.086   1.773
21054WAT     H163404   8.299   1.181   1.775
21054WAT     H263405   8.251   1.025   1.768
21055WAT      O63406   5.680   4.761   0.861
21055WAT     H163407   5.772   4.727   0.876
21055WAT     H263408   5.616   4.684   0.857
21056WAT      O63409   1.589   8.077   6.170
21056WAT     H163410   1.686   8.053   6.176
21056WAT     H263411   1.574   8.167   6.211
21057WAT      O63412   6.371   5.145   5.682
21057WAT     H163413   6.351   5.098   5.768
21057WAT     H263414   6.470   5.151   5.670
21058WAT      O63415   2.218   7.609   2.612
21058WAT     H163416   2.235   7.522   2.566
21058WAT     H263417   2.292   7.673   2.589
21059WAT      O63418   0.070   0.272   5.301
21059WAT     H163419   0.071   0.222   5.387
21059WAT     H263420   0.018   0.357   5.312
21060WAT      O63421   1.101   7.439   9.740
21060WAT     H163422   1.028   7.490   9.695
21060WAT     H263423   1.106   7.467   9.836
21061WAT      O63424   1.978   9.568   4.416
21061WAT     H163425   2.070   9.576   4.454
21061WAT     H263426   1.912   9.596   4.486
21062WAT      O63427   0.852   6.319   8.816
21062WAT     H163428   0.883   6.369   8.734
21062WAT     H263429   0.790   6.246   8.788
21063WAT      O63430   3.320   5.755   1.830
21063WAT     H163431   3.406   5.704   1.839
21063WAT     H263432   3.341   5.852   1.817
21064WAT      O63433   6.068   3.200   7.907
21064WAT     H163434   6.109   3.248   7.985
21064WAT     H263435   5.975   3.233   7.893
21065WAT      O63436   4.345   5.913   9.644
21065WAT     H163437   4.323   5.817   9.662
21065WAT     H263438   4.362   5.925   9.547
21066WAT      O63439   2.397   5.001   8.378
21066WAT     H163440   2.352   4.925   8.425
21066WAT     H263441   2.450   5.054   8.444
21067WAT      O63442   2.075   9.696   9.355
21067WAT     H163443   2.014   9.767   9.320
21067WAT     H263444   2.041   9.606   9.325
21068WAT      O63445   4.450   6.943   0.420
21068WAT     H163446   4.397   6.950   0.504
21068WAT     H263447   4.546   6.928   0.442
21069WAT      O63448   1.584   1.430   4.068
21069WAT     H163449   1.501   1.417   4.013
21069WAT     H263450   1.628   1.515   4.041
21070WAT      O63451   1.000   9.707   0.612
21070WAT     H163452   0.904   9.715   0.587
21070WAT     H263453   1.050   9.788   0.579
21071WAT      O63454   6.753   1.216   6.816
21071WAT     H163455   6.659   1.185   6.834
21071WAT     H263456   6.799   1.235   6.902
21072WAT      O63457   7.766   1.858   6.028
21072WAT     H163458   7.800   1.952   6.032
21072WAT     H263459   7.742   1.828   6.120
21073WAT      O63460   1.230   4.063   9.624
21073WAT     H163461   1.325   4.047   9.597
21073WAT     H263462   1.202   4.154   9.595
21074WAT      O63463   5.674   0.933   7.432
21074WAT     H163464   5.696   0.836   7.419
21074WAT     H263465   5.729   0.970   7.508
21075WAT      O63466   9.329   0.357   2.104
21075WAT     H163467   9.421   0.395   2.115
21075WAT     H263468   9.309   0.295   2.180
21076WAT      O63469   5.336   0.329   9.697
21076WAT     H163470   5.319   0.267   9.621
21076WAT     H263471   5.252   0.341   9.750
21077WAT      O63472   6.133   8.832   3.182
21077WAT     H163473   6.124   8.923   3.140
21077WAT     H263474   6.229   8.809   3.192
21078WAT      O63475   7.177   0.926   5.710
21078WAT     H163476   7.181   0.827   5.724
21078WAT     H263477   7.153   0.944   5.614
21079WAT      O63478   7.754   6.089   5.453
21079WAT     H163479   7.710   6.163   5.402
21079WAT     H263480   7.796   6.125   5.536
21080WAT      O63481   9.008   4.061   3.465
21080WAT     H163482   8.914   4.066   3.499
21080WAT     H263483   9.020   3.977   3.412
21081WAT      O63484   4.222   4.178   7.831
21081WAT     H163485   4.208   4.229   7.916
21081WAT     H263486   4.145   4.194   7.770
21082WAT      O63487   3.405   3.731   2.984
21082WAT     H163488   3.318   3.702   2.945
21082WAT     H263489   3.451   3.794   2.921
21083WAT      O63490   2.606   4.075   1.512
21083WAT     H163491   2.561   4.065   1.601
21083WAT     H263492   2.672   4.000   1.500
21084WAT      O63493   4.911   3.193   4.883
21084WAT     H163494   4.911   3.263   4.954
21084WAT     H263495   4.817   3.167   4.863
21085WAT      O63496   9.342   4.349   2.746
21085WAT     H163497   9.433   4.381   2.775
21085WAT     H263498   9.272   4.402   2.795
21086WAT      O63499   9.344   4.450   7.812
21086WAT     H163500   9.268   4.512   7.791
21086WAT     H263501   9.428   4.503   7.823
21087WAT      O63502   3.142   7.295   0.577
21087WAT     H163503   3.143   7.328   0.482
21087WAT     H263504   3.164   7.370   0.639
21088WAT      O63505   8.518   6.757   3.338
21088WAT     H163506   8.487   6.851   3.353
21088WAT     H263507   8.560   6.722   3.422
21089WAT      O63508   7.306   2.180   6.274
21089WAT     H163509   7.383   2.132   6.232
21089WAT     H263510   7.299   2.155   6.370
21090WAT      O63511   4.792   8.878   0.367
21090WAT     H163512   4.715   8.920   0.319
21090WAT     H263513   4.848   8.950   0.409
21091WAT      O63514   3.501   3.864   1.896
21091WAT     H163515   3.546   3.930   1.955
21091WAT     H263516   3.564   3.789   1.875
21092WAT      O63517   1.853   5.654   7.253
21092WAT     H163518   1.853   5.577   7.317
21092WAT     H263519   1.921   5.721   7.283
21093WAT      O63520   5.826   6.508   3.402
21093WAT     H163521   5.893   6.546   3.337
21093WAT     H263522   5.843   6.545   3.493
21094WAT      O63523   6.689   7.973   5.178
21094WAT     H163524   6.606   8.024   5.158
21094WAT     H263525   6.666   7.886   5.222
21095WAT      O63526   8.868   1.931   1.350
21095WAT     H163527   8.894   1.960   1.442
21095WAT     H263528   8.833   1.837   1.353
21096WAT      O63529   8.899   7.228   2.375
21096WAT     H163530   8.932   7.146   2.422
21096WAT     H263531   8.805   7.248   2.403
21097WAT      O63532   5.266   6.215   8.656
21097WAT     H163533   5.256   6.280   8.731
21097WAT     H263534   5.241   6.258   8.569
21098WAT      O63535   3.613   2.517   5.288
21098WAT     H163536   3.596   2.480   5.197
21098WAT     H263537   3.705   2.556   5.292
21099WAT      O63538   1.850   0.345   4.642
21099WAT     H163539   1.894   0.418   4.590
21099WAT     H263540   1.857   0.259   4.591
21100WAT      O63541   9.396   0.520   0.546
21100WAT     H163542   9.313   0.483   0.504
21100WAT     H263543   9.473   0.459   0.527
21101WAT      O63544   6.110   2.934   7.979
21101WAT     H163545   6.099   3.033   7.967
21101WAT     H263546   6.025   2.888   7.953
21102WAT      O63547   4.166   2.899   2.283
21102WAT     H163548   4.068   2.913   2.294
21102WAT     H263549   4.192   2.812   2.324
21103WAT      O63550   9.841   6.724   1.961
21103WAT     H163551   9.841   6.770   2.049
21103WAT     H263552   9.784   6.642   1.965
21104WAT      O63553   1.549   9.762   8.698
21104WAT     H163554   1.467   9.814   8.676
21104WAT     H263555   1.584   9.718   8.615
21105WAT      O63556   9.740   9.755   1.306
21105WAT     H163557   9.662   9.713   1.258
21105WAT     H263558   9.811   9.779   1.239
21106WAT      O63559   1.692   9.785   1.887
21106WAT     H163560   1.770   9.733   1.922
21106WAT     H263561   1.724   9.864   1.835
21107WAT      O63562   9.180   1.973   4.883
21107WAT     H163563   9.260   1.944   4.829
21107WAT     H263564   9.177   2.073   4.886
21108WAT      O63565   4.081   9.712   0.293
21108WAT     H163566   4.137   9.701   0.210
21108WAT     H263567   3.996   9.759   0.270
21109WAT      O63568   1.738   2.338   8.320
21109WAT     H163569   1.708   2.343   8.415
21109WAT     H263570   1.748   2.431   8.283
21110WAT      O63571   4.037   3.794   8.416
21110WAT     H163572   3.982   3.801   8.500
21110WAT     H263573   4.012   3.710   8.368
21111WAT      O63574   8.823   8.551   3.830
21111WAT     H163575   8.865   8.509   3.749
21111WAT     H263576   8.738   8.502   3.852
21112WAT      O63577   7.024   0.306   4.227
21112WAT     H163578   7.029   0.335   4.132
21112WAT     H263579   7.019   0.387   4.286
21113WAT      O63580   7.183   6.441   0.635
21113WAT     H163581   7.216   6.534   0.618
21113WAT     H263582   7.257   6.376   0.618
21114WAT      O63583   9.404   2.592   0.504
21114WAT     H163584   9.313   2.617   0.471
21114WAT     H263585   9.454   2.674   0.533
21115WAT      O63586   5.104   7.444   5.256
21115WAT     H163587   5.076   7.511   5.324
21115WAT     H263588   5.043   7.365   5.259
21116WAT      O63589   4.010   0.402   7.228
21116WAT     H163590   3.962   0.328   7.275
21116WAT     H263591   4.105   0.406   7.259
21117WAT      O63592   4.215   3.844   3.914
21117WAT     H163593   4.124   3.858   3.875
21117WAT     H263594   4.231   3.911   3.987
21118WAT      O63595   1.804   7.148   1.529
21118WAT     H163596   1.852   7.149   1.617
21118WAT     H263597   1.706   7.148   1.545
21119WAT      O63598   0.082   4.115   9.579
21119WAT     H163599   0.002   4.154   9.533
21119WAT     H263600   0.098   4.163   9.665
21120WAT      O63601   0.188   4.738   4.666
21120WAT     H163602   0.145   4.648   4.668
21120WAT     H263603   0.286   4.728   4.647
21121WAT      O63604   5.622   7.196   2.143
21121WAT     H163605   5.650   7.191   2.239
21121WAT     H263606   5.689   7.250   2.092
21122WAT      O63607   9.472   1.916   6.829
21122WAT     H163608   9.503   1.827   6.860
21122WAT     H263609   9.551   1.979   6.825
21123WAT      O63610   3.814   9.558   5.609
21123WAT     H163611   3.876   9.626   5.569
21123WAT     H263612   3.861   9.470   5.616
21124WAT      O63613   1.058   2.637   5.861
21124WAT     H163614   0.960   2.644   5.840
21124WAT     H263615   1.098   2.729   5.862
21125WAT      O63616   6.106   6.474   9.296
21125WAT     H163617   6.115   6.384   9.338
21125WAT     H263618   6.051   6.466   9.213
21126WAT      O63619   2.020   2.942   8.490
21126WAT     H163620   1.962   2.975   8.564
21126WAT     H263621   2.111   2.984   8.497
21127WAT      O63622   5.381   6.036   4.779
21127WAT     H163623   5.469   6.014   4.820
21127WAT     H263624   5.327   5.952   4.770
21128WAT      O63625   7.473   0.451   1.408
21128WAT     H163626   7.450   0.354   1.403
21128WAT     H263627   7.499   0.484   1.317
21129WAT      O63628   4.377   6.450   0.415
21129WAT     H163629   4.335   6.476   0.502
21129WAT     H263630   4.475   6.470   0.418
21130WAT      O63631   4.629   8.435   1.128
21130WAT     H163632   4.726   8.419   1.107
21130WAT     H263633   4.618   8.445   1.227
21131WAT      O63634   4.393   9.025   9.622
21131WAT     H163635   4.438   9.021   9.711
21131WAT     H263636   4.348   8.938   9.604
21132WAT      O63637   3.031   7.125   1.971
21132WAT     H163638   3.037   7.194   2.043
21132WAT     H263639   3.028   7.034   2.012
21133WAT      O63640   8.719   4.154   5.240
21133WAT     H163641   8.720   4.254   5.245
21133WAT     H263642   8.743   4.115   5.329
21134WAT      O63643   3.624   8.619   0.555
21134WAT     H163644   3.524   8.616   0.561
21134WAT     H263645   3.663   8.564   0.629
21135WAT      O63646   4.083   7.057   0.547
21135WAT     H163647   4.160   7.051   0.610
21135WAT     H263648   4.040   6.967   0.538
21136WAT      O63649   8.358   3.180   8.253
21136WAT     H163650   8.359   3.162   8.351
21136WAT     H263651   8.369   3.094   8.203
21137WAT      O63652   7.603   7.992   4.468
21137WAT     H163653   7.569   7.948   4.552
21137WAT     H263654   7.562   8.083   4.459
21138WAT      O63655   7.250   4.217   4.471
21138WAT     H163656   7.292   4.305   4.494
21138WAT     H263657   7.212   4.176   4.553
21139WAT      O63658   9.107   4.499   1.571
21139WAT     H163659   9.094   4.452   1.658
21139WAT     H263660   9.028   4.558   1.553
21140WAT      O63661   0.536   7.735   5.610
21140WAT     H163662   0.585   7.648   5.612
21140WAT     H263663   0.583   7.798   5.548
21141WAT      O63664   2.740   4.465   9.848
21141WAT     H163665   2.705   4.506   9.764
21141WAT     H263666   2.783   4.535   9.904
21142WAT      O63667   6.509   5.969   2.079
21142WAT     H163668   6.567   5.944   2.158
21142WAT     H263669   6.443   5.896   2.063
21143WAT      O63670   1.157   7.040   5.531
21143WAT     H163671   1.137   7.047   5.433
21143WAT     H263672   1.230   6.973   5.544
21144WAT      O63673   5.882   2.697   4.757
21144WAT     H163674   5.853   2.602   4.748
21144WAT     H263675   5.973   2.701   4.797
21145WAT      O63676   1.782   9.407   5.497
21145WAT     H163677   1.773   9.499   5.535
21145WAT     H263678   1.694   9.361   5.500
21146WAT      O63679   2.024   5.868   6.293
21146WAT     H163680   1.957   5.904   6.358
21146WAT     H263681   2.015   5.914   6.205
21147WAT      O63682   8.568   0.158   7.279
21147WAT     H163683   8.527   0.250   7.278
21147WAT     H263684   8.657   0.162   7.324
21148WAT      O63685   7.822   7.199   8.270
21148WAT     H163686   7.832   7.297   8.251
21148WAT     H263687   7.729   7.170   8.245
21149WAT      O63688   4.844   1.432   0.548
21149WAT     H163689   4.890   1.349   0.518
21149WAT     H263690   4.899   1.512   0.522
21150WAT      O63691   8.976   1.994   1.597
21150WAT     H163692   9.039   2.070   1.613
21150WAT     H263693   9.006   1.915   1.649
21151WAT      O63694   8.996   7.816   7.843
21151WAT     H163695   9.051   7.899   7.834
21151WAT     H263696   8.997   7.786   7.938
21152WAT      O63697   8.923   0.504   8.495
21152WAT     H163698   8.841   0.447   8.486
21152WAT     H263699   9.005   0.446   8.485
21153WAT      O63700   5.365   9.444   8.116
21153WAT     H163701   5.417   9.492   8.045
21153WAT     H263702   5.268   9.464   8.106
21154WAT      O63703   9.534   9.591   3.685
21154WAT     H163704   9.583   9.643   3.616
21154WAT     H263705   9.481   9.654   3.743
21155WAT      O63706   4.566   2.713   0.476
21155WAT     H163707   4.557   2.777   0.400
21155WAT     H263708   4.583   2.764   0.560
21156WAT      O63709   1.115   7.203   5.766
21156WAT     H163710   1.119   7.158   5.677
21156WAT     H263711   1.073   7.294   5.756
21157WAT      O63712   7.589   4.896   0.464
21157WAT     H163713   7.639   4.896   0.377
21157WAT     H263714   7.530   4.977   0.468
21158WAT      O63715   1.803   8.818   4.896
21158WAT     H163716   1.832   8.727   4.867
21158WAT     H263717   1.782   8.818   4.993
21159WAT      O63718   8.895   5.301   4.043
21159WAT     H163719   8.978   5.267   4.087
21159WAT     H263720   8.861   5.231   3.979
21160WAT      O63721   9.280   8.316   6.322
21160WAT     H163722   9.340   8.365   6.259
21160WAT     H263723   9.334   8.283   6.399
21161WAT      O63724   2.797   4.370   2.239
21161WAT     H163725   2.780   4.407   2.330
21161WAT     H263726   2.757   4.278   2.233
21162WAT      O63727   2.273   4.708   6.865
21162WAT     H163728   2.177   4.683   6.858
21162WAT     H263729   2.310   4.678   6.953
21163WAT      O63730   4.946   9.156   2.926
21163WAT     H163731   4.859   9.147   2.975
21163WAT     H263732   4.944   9.097   2.846
21164WAT      O63733   0.890   4.017   0.009
21164WAT     H163734   0.982   3.977   0.006
21164WAT     H263735   0.851   4.005   0.100
21165WAT      O63736   3.754   2.417   6.633
21165WAT     H163737   3.655   2.423   6.645
21165WAT     H263738   3.794   2.508   6.631
21166WAT      O63739   3.622   5.223   9.119
21166WAT     H163740   3.600   5.248   9.214
21166WAT     H263741   3.555   5.265   9.058
21167WAT      O63742   7.283   6.528   2.557
21167WAT     H163743   7.288   6.622   2.524
21167WAT     H263744   7.296   6.465   2.481
21168WAT      O63745   2.261   8.881   3.706
21168WAT     H163746   2.212   8.879   3.792
21168WAT     H263747   2.206   8.837   3.634
21169WAT      O63748   8.716   0.405   0.419
21169WAT     H163749   8.755   0.497   0.415
21169WAT     H263750   8.769   0.343   0.360
21170WAT      O63751   0.687   2.915   1.417
21170WAT     H163752   0.679   2.974   1.498
21170WAT     H263753   0.778   2.926   1.377
21171WAT      O63754   9.368   8.219   8.229
21171WAT     H163755   9.284   8.273   8.224
21171WAT     H263756   9.361   8.142   8.166
21172WAT      O63757   8.639   7.519   2.472
21172WAT     H163758   8.669   7.424   2.468
21172WAT     H263759   8.628   7.547   2.567
21173WAT      O63760   3.111   8.126   4.132
21173WAT     H163761   3.095   8.209   4.186
21173WAT     H263762   3.195   8.082   4.162
21174WAT      O63763   4.971   0.444   9.349
21174WAT     H163764   5.058   0.493   9.341
21174WAT     H263765   4.899   0.496   9.303
21175WAT      O63766   1.255   5.619   6.003
21175WAT     H163767   1.250   5.545   5.936
21175WAT     H263768   1.240   5.581   6.095
21176WAT      O63769   5.298   0.890   6.943
21176WAT     H163770   5.280   0.834   7.024
21176WAT     H263771   5.243   0.857   6.867
21177WAT      O63772   2.159   4.132   9.076
21177WAT     H163773   2.234   4.103   9.135
21177WAT     H263774   2.142   4.230   9.090
21178WAT      O63775   4.875   5.005   5.799
21178WAT     H163776   4.886   5.077   5.868
21178WAT     H263777   4.959   4.997   5.746
21179WAT      O63778   1.110   9.714   7.699
21179WAT     H163779   1.011   9.727   7.686
21179WAT     H263780   1.126   9.633   7.755
21180WAT      O63781   2.665   9.001   1.207
21180WAT     H163782   2.637   9.009   1.303
21180WAT     H263783   2.684   9.092   1.170
21181WAT      O63784   6.703   2.989   6.051
21181WAT     H163785   6.747   2.963   6.137
21181WAT     H263786   6.606   3.006   6.066
21182WAT      O63787   4.608   8.374   6.496
21182WAT     H163788   4.669   8.448   6.526
21182WAT     H263789   4.633   8.289   6.541
21183WAT      O63790   8.517   6.303   5.316
21183WAT     H163791   8.592   6.311   5.381
21183WAT     H263792   8.538   6.233   5.248
21184WAT      O63793   5.634   2.187   4.204
21184WAT     H163794   5.627   2.229   4.113
21184WAT     H263795   5.719   2.215   4.247
21185WAT      O63796   0.087   3.729   0.582
21185WAT     H163797   0.151   3.701   0.654
21185WAT     H263798   0.018   3.790   0.621
21186WAT      O63799   7.536   6.556   3.303
21186WAT     H163800   7.597   6.635   3.295
21186WAT     H263801   7.581   6.476   3.264
21187WAT      O63802   3.497   4.373   5.386
21187WAT     H163803   3.448   4.451   5.349
21187WAT     H263804   3.583   4.404   5.427
21188WAT      O63805   5.484   3.275   1.620
21188WAT     H163806   5.443   3.346   1.563
21188WAT     H263807   5.412   3.230   1.673
21189WAT      O63808   8.333   1.988   4.809
21189WAT     H163809   8.325   1.913   4.874
21189WAT     H263810   8.254   1.988   4.748
21190WAT      O63811   8.880   3.049   2.931
21190WAT     H163812   8.887   2.995   3.015
21190WAT     H263813   8.910   3.143   2.950
21191WAT      O63814   0.029   0.080   5.111
21191WAT     H163815   0.113   0.081   5.057
21191WAT     H263816   0.032   0.153   5.179
21192WAT      O63817   5.338   7.237   5.966
21192WAT     H163818   5.263   7.300   5.944
21192WAT     H263819   5.328   7.153   5.912
21193WAT      O63820   0.762   6.239   7.259
21193WAT     H163821   0.708   6.164   7.297
21193WAT     H263822   0.826   6.272   7.328
21194WAT      O63823   8.937   2.073   5.962
21194WAT     H163824   8.856   2.015   5.974
21194WAT     H263825   8.939   2.143   6.033
21195WAT      O63826   7.478   9.391   5.573
21195WAT     H163827   7.499   9.435   5.486
21195WAT     H263828   7.515   9.445   5.648
21196WAT      O63829   7.729   2.506   1.818
21196WAT     H163830   7.827   2.500   1.799
21196WAT     H263831   7.687   2.569   1.753
21197WAT      O63832   3.929   4.008   6.080
21197WAT     H163833   3.889   4.096   6.107
21197WAT     H263834   3.987   4.022   6.000
21198WAT      O63835   3.397   5.585   2.598
21198WAT     H163836   3.316   5.634   2.566
21198WAT     H263837   3.470   5.592   2.530
21199WAT      O63838   5.532   3.169   8.626
21199WAT     H163839   5.525   3.146   8.723
21199WAT     H263840   5.441   3.188   8.590
21200WAT      O63841   6.049   3.040   4.531
21200WAT     H163842   5.958   3.076   4.510
21200WAT     H263843   6.051   2.942   4.510
21201WAT      O63844   7.230   9.509   9.380
21201WAT     H163845   7.258   9.418   9.411
21201WAT     H263846   7.154   9.541   9.436
21202WAT      O63847   8.362   4.194   8.054
21202WAT     H163848   8.284   4.180   8.115
21202WAT     H263849   8.334   4.172   7.960
21203WAT      O63850   0.274   2.785   1.627
21203WAT     H163851   0.318   2.826   1.706
21203WAT     H263852   0.342   2.764   1.557
21204WAT      O63853   2.934   7.839   0.529
21204WAT     H163854   2.967   7.789   0.609
21204WAT     H263855   2.894   7.774   0.464
21205WAT      O63856   2.580   0.453   1.062
21205WAT     H163857   2.625   0.530   1.105
21205WAT     H263858   2.491   0.482   1.025
21206WAT      O63859   1.939   9.722   3.298
21206WAT     H163860   1.947   9.817   3.329
21206WAT     H263861   2.030   9.683   3.284
21207WAT      O63862   3.249   6.235   6.649
21207WAT     H163863   3.181   6.193   6.709
21207WAT     H263864   3.332   6.253   6.701
21208WAT      O63865   4.774   0.985   2.119
21208WAT     H163866   4.810   1.074   2.090
21208WAT     H263867   4.688   0.967   2.072
21209WAT      O63868   9.179   9.081   6.028
21209WAT     H163869   9.198   9.063   5.932
21209WAT     H263870   9.086   9.116   6.038
21210WAT      O63871   1.414   6.556   5.673
21210WAT     H163872   1.443   6.461   5.675
21210WAT     H263873   1.461   6.604   5.598
21211WAT      O63874   4.269   7.560   2.579
21211WAT     H163875   4.191   7.597   2.629
21211WAT     H263876   4.305   7.630   2.516
21212WAT      O63877   7.379   3.878   5.752
21212WAT     H163878   7.293   3.859   5.800
21212WAT     H263879   7.363   3.873   5.653
21213WAT      O63880   0.654   9.469   1.517
21213WAT     H163881   0.737   9.436   1.471
21213WAT     H263882   0.676   9.552   1.569
21214WAT      O63883   5.272   1.575   6.062
21214WAT     H163884   5.324   1.546   6.142
21214WAT     H263885   5.251   1.496   6.004
21215WAT      O63886   7.972   8.424   2.537
21215WAT     H163887   7.942   8.503   2.591
21215WAT     H263888   7.908   8.349   2.550
21216WAT      O63889   3.213   1.815   7.451
21216WAT     H163890   3.173   1.905   7.470
21216WAT     H263891   3.285   1.797   7.518
21217WAT      O63892   8.966   9.589   0.461
21217WAT     H163893   8.979   9.663   0.395
21217WAT     H263894   9.013   9.613   0.546
21218WAT      O63895   7.017   3.766   2.752
21218WAT     H163896   7.005   3.774   2.851
21218WAT     H263897   7.114   3.778   2.730
21219WAT      O63898   6.523   4.543   5.400
21219WAT     H163899   6.534   4.464   5.340
21219WAT     H263900   6.551   4.520   5.492
21220WAT      O63901   6.875   0.066   6.359
21220WAT     H163902   6.859   0.145   6.300
21220WAT     H263903   6.891  -0.015   6.302
21221WAT      O63904   1.833   2.008   0.293
21221WAT     H163905   1.764   2.080   0.300
21221WAT     H263906   1.789   1.919   0.308
21222WAT      O63907   0.197   0.220   2.708
21222WAT     H163908   0.243   0.277   2.777
21222WAT     H263909   0.220   0.253   2.617
21223WAT      O63910   2.022   5.728   2.945
21223WAT     H163911   2.018   5.784   3.028
21223WAT     H263912   2.050   5.784   2.868
21224WAT      O63913   3.750   4.035   1.797
21224WAT     H163914   3.832   4.085   1.767
21224WAT     H263915   3.669   4.090   1.778
21225WAT      O63916   0.378   2.944   3.089
21225WAT     H163917   0.400   3.014   3.157
21225WAT     H263918   0.319   2.983   3.019
21226WAT      O63919   5.137   5.492   2.015
21226WAT     H163920   5.109   5.581   1.978
21226WAT     H263921   5.085   5.473   2.098
21227WAT      O63922   1.996   2.621   0.889
21227WAT     H163923   2.044   2.639   0.804
21227WAT     H263924   1.906   2.582   0.869
21228WAT      O63925   7.639   3.085   5.168
21228WAT     H163926   7.719   3.035   5.201
21228WAT     H263927   7.569   3.020   5.138
21229WAT      O63928   5.419   9.778   9.537
21229WAT     H163929   5.412   9.827   9.624
21229WAT     H263930   5.418   9.843   9.462
21230WAT      O63931   6.730   7.133   0.053
21230WAT     H163932   6.818   7.106   0.092
21230WAT     H263933   6.745   7.200  -0.019
21231WAT      O63934   0.031   9.847   2.910
21231WAT     H163935   0.026   9.749   2.926
21231WAT     H263936  -0.050   9.877   2.859
21232WAT      O63937   2.636   7.886   9.141
21232WAT     H163938   2.644   7.789   9.160
21232WAT     H263939   2.570   7.927   9.204
21233WAT      O63940   8.914   3.611   4.690
21233WAT     H163941   8.958   3.665   4.617
21233WAT     H263942   8.921   3.661   4.776
21234WAT      O63943   5.139   8.324   4.632
21234WAT     H163944   5.071   8.250   4.640
21234WAT     H263945   5.217   8.303   4.690
21235WAT      O63946   4.050   0.313   1.346
21235WAT     H163947   4.103   0.334   1.263
21235WAT     H263948   4.112   0.278   1.417
21236WAT      O63949   2.935   9.332   0.039
21236WAT     H163950   2.985   9.273   0.103
21236WAT     H263951   2.999   9.396  -0.004
21237WAT      O63952   2.045   9.097   9.626
21237WAT     H163953   1.982   9.090   9.704
21237WAT     H263954   2.066   9.005   9.592
21238WAT      O63955   3.716   4.306   5.692
21238WAT     H163956   3.727   4.386   5.633
21238WAT     H263957   3.619   4.284   5.702
21239WAT      O63958   2.851   0.708   1.609
21239WAT     H163959   2.904   0.634   1.566
21239WAT     H263960   2.857   0.790   1.552
21240WAT      O63961   1.829   4.104   6.660
21240WAT     H163962   1.850   4.014   6.700
21240WAT     H263963   1.886   4.174   6.703
21241WAT      O63964   8.317   5.760   5.055
21241WAT     H163965   8.354   5.723   4.970
21241WAT     H263966   8.217   5.752   5.054
21242WAT      O63967   6.900   2.633   6.369
21242WAT     H163968   6.828   2.578   6.325
21242WAT     H263969   6.883   2.635   6.467
21243WAT      O63970   8.704   4.111   1.138
21243WAT     H163971   8.761   4.162   1.202
21243WAT     H263972   8.697   4.016   1.169
21244WAT      O63973   4.253   6.440   4.457
21244WAT     H163974   4.319   6.515   4.463
21244WAT     H263975   4.285   6.372   4.391
21245WAT      O63976   5.753   8.623   7.536
21245WAT     H163977   5.672   8.676   7.560
21245WAT     H263978   5.765   8.547   7.601
21246WAT      O63979   6.912   9.099   7.899
21246WAT     H163980   7.005   9.064   7.912
21246WAT     H263981   6.876   9.067   7.811
21247WAT      O63982   1.007   3.938   9.273
21247WAT     H163983   0.950   3.860   9.250
21247WAT     H263984   1.036   3.931   9.368
21248WAT      O63985   0.267   1.436   9.238
21248WAT     H163986   0.315   1.524   9.230
21248WAT     H263987   0.189   1.446   9.300
21249WAT      O63988   3.218   1.901   5.687
21249WAT     H163989   3.313   1.900   5.719
21249WAT     H263990   3.175   1.814   5.711
21250WAT      O63991   4.933   5.702   1.375
21250WAT     H163992   5.000   5.770   1.407
21250WAT     H263993   4.946   5.617   1.426
21251WAT      O63994   2.407   2.438   3.235
21251WAT     H163995   2.458   2.521   3.209
21251WAT     H263996   2.471   2.362   3.246
21252WAT      O63997   7.153   7.466   8.142
21252WAT     H163998   7.203   7.432   8.063
21252WAT     H263999   7.176   7.561   8.159
21253WAT      O64000   7.683   2.503   4.190
21253WAT     H164001   7.636   2.419   4.216
21253WAT     H264002   7.641   2.581   4.236
21254WAT      O64003   2.702   5.455   1.058
21254WAT     H164004   2.796   5.421   1.058
21254WAT     H264005   2.662   5.444   0.967
21255WAT      O64006   6.116   5.984   5.244
21255WAT     H164007   6.112   5.941   5.154
21255WAT     H264008   6.192   6.050   5.245
21256WAT      O64009   8.386   9.623   1.328
21256WAT     H164010   8.446   9.644   1.251
21256WAT     H264011   8.377   9.705   1.385
21257WAT      O64012   9.244   8.116   0.132
21257WAT     H164013   9.300   8.066   0.198
21257WAT     H264014   9.239   8.212   0.157
21258WAT      O64015   3.228   8.498   3.408
21258WAT     H164016   3.318   8.459   3.391
21258WAT     H264017   3.171   8.490   3.326
21259WAT      O64018   3.714   4.544   6.498
21259WAT     H164019   3.698   4.635   6.537
21259WAT     H264020   3.701   4.475   6.569
21260WAT      O64021   2.182   7.185   8.688
21260WAT     H164022   2.124   7.236   8.625
21260WAT     H264023   2.228   7.111   8.638
21261WAT      O64024   8.654   6.017   0.583
21261WAT     H164025   8.564   6.059   0.571
21261WAT     H264026   8.724   6.088   0.588
21262WAT      O64027   3.547   2.241   5.843
21262WAT     H164028   3.538   2.329   5.797
21262WAT     H264029   3.571   2.255   5.939
21263WAT      O64030   0.636   6.071   9.142
21263WAT     H164031   0.609   5.977   9.159
21263WAT     H264032   0.651   6.084   9.044
21264WAT      O64033   4.457   7.684   9.728
21264WAT     H164034   4.418   7.619   9.793
21264WAT     H264035   4.390   7.702   9.656
21265WAT      O64036   7.971   9.503   6.833
21265WAT     H164037   8.033   9.435   6.794
21265WAT     H264038   7.897   9.457   6.882
21266WAT      O64039   9.770   7.271   4.602
21266WAT     H164040   9.696   7.327   4.641
21266WAT     H264041   9.794   7.199   4.668
21267WAT      O64042   0.034   4.638   8.925
21267WAT     H164043  -0.014   4.551   8.936
21267WAT     H264044  -0.029   4.708   8.892
21268WAT      O64045   2.579   0.141   3.323
21268WAT     H164046   2.649   0.138   3.393
21268WAT     H264047   2.609   0.199   3.247
21269WAT      O64048   7.279   8.970   0.413
21269WAT     H164049   7.185   8.981   0.379
21269WAT     H264050   7.298   9.041   0.480
21270WAT      O64051   7.629   5.807   9.533
21270WAT     H164052   7.676   5.770   9.453
21270WAT     H264053   7.533   5.779   9.532
21271WAT      O64054   1.084   6.094   8.766
21271WAT     H164055   1.002   6.066   8.718
21271WAT     H264056   1.152   6.021   8.761
21272WAT      O64057   0.887   5.652   5.697
21272WAT     H164058   0.823   5.713   5.650
21272WAT     H264059   0.966   5.704   5.728
21273WAT      O64060   7.533   3.513   8.924
21273WAT     H164061   7.580   3.560   8.998
21273WAT     H264062   7.583   3.430   8.900
21274WAT      O64063   4.472   2.464   0.204
21274WAT     H164064   4.414   2.544   0.217
21274WAT     H264065   4.454   2.423   0.114
21275WAT      O64066   2.958   6.472   4.844
21275WAT     H164067   2.904   6.555   4.834
21275WAT     H264068   2.899   6.396   4.872
21276WAT      O64069   1.112   0.392   5.333
21276WAT     H164070   1.056   0.453   5.389
21276WAT     H264071   1.202   0.433   5.319
21277WAT      O64072   1.488   8.096   8.372
21277WAT     H164073   1.473   8.009   8.326
21277WAT     H264074   1.400   8.141   8.390
21278WAT      O64075   1.258   8.670   0.716
21278WAT     H164076   1.216   8.760   0.701
21278WAT     H264077   1.200   8.599   0.677
21279WAT      O64078   2.581   4.369   5.442
21279WAT     H164079   2.565   4.465   5.466
21279WAT     H264080   2.675   4.343   5.466
21280WAT      O64081   2.596   8.508   7.113
21280WAT     H164082   2.667   8.441   7.094
21280WAT     H264083   2.530   8.509   7.037
21281WAT      O64084   5.619   6.933   3.056
21281WAT     H164085   5.600   6.988   3.137
21281WAT     H264086   5.666   6.989   2.988
21282WAT      O64087   7.249   2.499   5.674
21282WAT     H164088   7.232   2.403   5.651
21282WAT     H264089   7.284   2.505   5.767
21283WAT      O64090   3.018   6.070   1.959
21283WAT     H164091   2.937   6.080   2.016
21283WAT     H264092   3.033   6.154   1.906
21284WAT      O64093   2.672   6.632   2.466
21284WAT     H164094   2.726   6.714   2.485
21284WAT     H264095   2.661   6.580   2.551
21285WAT      O64096   5.554   0.505   9.275
21285WAT     H164097   5.529   0.493   9.370
21285WAT     H264098   5.634   0.448   9.253
21286WAT      O64099   5.152   8.802   1.446
21286WAT     H164100   5.153   8.796   1.346
21286WAT     H264101   5.060   8.826   1.477
21287WAT      O64102   9.007   1.217   7.336
21287WAT     H164103   8.962   1.283   7.276
21287WAT     H264104   8.939   1.175   7.397
21288WAT      O64105   3.491   0.173   9.000
21288WAT     H164106   3.398   0.190   8.967
21288WAT     H264107   3.489   0.100   9.068
21289WAT      O64108   3.586   8.648   7.966
21289WAT     H164109   3.645   8.665   7.887
21289WAT     H264110   3.583   8.730   8.023
21290WAT      O64111   2.909   8.185   6.350
21290WAT     H164112   2.863   8.134   6.422
21290WAT     H264113   2.941   8.121   6.279
21291WAT      O64114   9.833   1.538   0.088
21291WAT     H164115   9.755   1.514   0.030
21291WAT     H264116   9.802   1.593   0.165
21292WAT      O64117   8.181   1.929   7.769
21292WAT     H164118   8.102   1.954   7.825
21292WAT     H264119   8.149   1.889   7.683
21293WAT      O64120   2.149   6.706   5.458
21293WAT     H164121   2.236   6.657   5.464
21293WAT     H264122   2.137   6.763   5.540
21294WAT      O64123   3.591   1.284   9.725
21294WAT     H164124   3.589   1.209   9.791
21294WAT     H264125   3.619   1.368   9.772
21295WAT      O64126   3.260   7.240   5.063
21295WAT     H164127   3.192   7.233   4.991
21295WAT     H264128   3.330   7.170   5.050
21296WAT      O64129   0.752   2.997   4.761
21296WAT     H164130   0.678   2.997   4.827
21296WAT     H264131   0.748   2.914   4.706
21297WAT      O64132   4.662   3.811   3.998
21297WAT     H164133   4.665   3.762   4.085
21297WAT     H264134   4.721   3.892   4.004
21298WAT      O64135   5.634   8.315   4.803
21298WAT     H164136   5.625   8.394   4.743
21298WAT     H264137   5.544   8.274   4.817
21299WAT      O64138   1.642   5.740   4.549
21299WAT     H164139   1.637   5.799   4.629
21299WAT     H264140   1.642   5.644   4.578
21300WAT      O64141   8.991   2.605   9.228
21300WAT     H164142   8.968   2.563   9.141
21300WAT     H264143   9.090   2.603   9.242
21301WAT      O64144   1.119   3.546   8.293
21301WAT     H164145   1.022   3.538   8.317
21301WAT     H264146   1.130   3.538   8.194
21302WAT      O64147   0.343   2.770   5.134
21302WAT     H164148   0.350   2.841   5.204
21302WAT     H264149   0.392   2.688   5.165
21303WAT      O64150   8.968   0.220   6.601
21303WAT     H164151   9.057   0.242   6.640
21303WAT     H264152   8.906   0.188   6.673
21304WAT      O64153   9.017   8.834   7.333
21304WAT     H164154   8.961   8.763   7.291
21304WAT     H264155   9.058   8.799   7.417
21305WAT      O64156   0.920   2.507   1.720
21305WAT     H164157   0.849   2.454   1.673
21305WAT     H264158   0.944   2.586   1.664
21306WAT      O64159   6.939   6.810   8.877
21306WAT     H164160   6.902   6.860   8.956
21306WAT     H264161   7.037   6.828   8.870
21307WAT      O64162   7.302   2.818   6.455
21307WAT     H164163   7.391   2.795   6.494
21307WAT     H264164   7.299   2.915   6.432
21308WAT      O64165   7.384   3.200   1.476
21308WAT     H164166   7.442   3.278   1.500
21308WAT     H264167   7.348   3.213   1.384
21309WAT      O64168   4.345   3.294   6.336
21309WAT     H164169   4.332   3.211   6.390
21309WAT     H264170   4.423   3.345   6.371
21310WAT      O64171   0.329   4.027   0.981
21310WAT     H164172   0.282   3.945   0.948
21310WAT     H264173   0.392   4.059   0.911
21311WAT      O64174   9.451   3.187   0.025
21311WAT     H164175   9.401   3.127  -0.038
21311WAT     H264176   9.391   3.213   0.100
21312WAT      O64177   4.460   3.975   2.467
21312WAT     H164178   4.424   4.044   2.530
21312WAT     H264179   4.455   3.885   2.509
21313WAT      O64180   7.568   3.136   4.338
21313WAT     H164181   7.601   3.052   4.295
21313WAT     H264182   7.472   3.126   4.364
21314WAT      O64183   1.013   3.092   1.761
21314WAT     H164184   1.073   3.171   1.763
21314WAT     H264185   1.068   3.009   1.746
21315WAT      O64186   3.487   4.207   8.325
21315WAT     H164187   3.508   4.294   8.280
21315WAT     H264188   3.400   4.213   8.373
21316WAT      O64189   0.704   9.800   4.201
21316WAT     H164190   0.713   9.898   4.179
21316WAT     H264191   0.746   9.746   4.128
21317WAT      O64192   3.980   3.911   3.815
21317WAT     H164193   3.922   3.857   3.754
21317WAT     H264194   3.988   4.005   3.780
21318WAT      O64195   1.682   1.770   0.303
21318WAT     H164196   1.600   1.743   0.253
21318WAT     H264197   1.758   1.709   0.278
21319WAT      O64198   3.140   8.391   0.877
21319WAT     H164199   3.067   8.415   0.940
21319WAT     H264200   3.211   8.339   0.927
21320WAT      O64201   2.071   6.008   6.593
21320WAT     H164202   2.097   5.924   6.640
21320WAT     H264203   2.153   6.052   6.555
21321WAT      O64204   4.083   5.792   5.134
21321WAT     H164205   4.095   5.856   5.209
21321WAT     H264206   4.016   5.722   5.160
21322WAT      O64207   1.052   5.400   0.562
21322WAT     H164208   1.082   5.493   0.581
21322WAT     H264209   0.957   5.389   0.592
21323WAT      O64210   0.824   2.740   6.851
21323WAT     H164211   0.744   2.734   6.792
21323WAT     H264212   0.796   2.742   6.946
21324WAT      O64213   1.039   4.977   7.157
21324WAT     H164214   0.981   4.898   7.139
21324WAT     H264215   0.982   5.056   7.181
21325WAT      O64216   4.913   0.058   5.400
21325WAT     H164217   4.922  -0.030   5.448
21325WAT     H264218   5.001   0.105   5.400
21326WAT      O64219   6.497   5.909   0.918
21326WAT     H164220   6.400   5.890   0.932
21326WAT     H264221   6.550   5.866   0.991
21327WAT      O64222   3.738   7.147   0.731
21327WAT     H164223   3.732   7.109   0.638
21327WAT     H264224   3.793   7.231   0.729
21328WAT      O64225   3.439   9.262   3.817
21328WAT     H164226   3.507   9.212   3.871
21328WAT     H264227   3.430   9.219   3.727
21329WAT      O64228   2.443   2.654   9.266
21329WAT     H164229   2.461   2.725   9.198
21329WAT     H264230   2.445   2.564   9.222
21330WAT      O64231   1.007   0.058   0.906
21330WAT     H164232   0.988  -0.034   0.870
21330WAT     H264233   1.012   0.123   0.830
21331WAT      O64234   7.261   1.126   0.106
21331WAT     H164235   7.359   1.114   0.090
21331WAT     H264236   7.247   1.200   0.172
21332WAT      O64237   0.030   2.466   0.777
21332WAT     H164238  -0.056   2.472   0.828
21332WAT     H264239   0.011   2.456   0.679
21333WAT      O64240   2.340   9.514   9.342
21333WAT     H164241   2.272   9.442   9.328
21333WAT     H264242   2.318   9.565   9.425
21334WAT      O64243   7.358   7.228   4.422
21334WAT     H164244   7.323   7.148   4.374
21334WAT     H264245   7.283   7.275   4.469
21335WAT      O64246   7.342   2.590   0.063
21335WAT     H164247   7.359   2.542   0.149
21335WAT     H264248   7.317   2.685   0.082
21336WAT      O64249   7.916   3.363   1.671
21336WAT     H164250   7.957   3.405   1.752
21336WAT     H264251   7.987   3.320   1.615
21337WAT      O64252   0.675   8.598   9.464
21337WAT     H164253   0.670   8.678   9.523
21337WAT     H264254   0.715   8.521   9.515
21338WAT      O64255   1.403   5.608   0.704
21338WAT     H164256   1.439   5.527   0.748
21338WAT     H264257   1.444   5.617   0.613
21339WAT      O64258   6.477   0.338   1.139
21339WAT     H164259   6.383   0.373   1.144
21339WAT     H264260   6.503   0.299   1.227
21340WAT      O64261   2.430   9.661   4.002
21340WAT     H164262   2.342   9.696   3.969
21340WAT     H264263   2.432   9.562   3.995
21341WAT      O64264   8.837   8.452   4.837
21341WAT     H164265   8.776   8.440   4.759
21341WAT     H264266   8.930   8.428   4.811
21342WAT      O64267   7.448   9.652   4.375
21342WAT     H164268   7.533   9.650   4.324
21342WAT     H264269   7.442   9.571   4.434
21343WAT      O64270   0.132   0.101   0.283
21343WAT     H164271   0.161   0.171   0.217
21343WAT     H264272   0.212   0.050   0.314
21344WAT      O64273   2.323   2.332   4.154
21344WAT     H164274   2.303   2.248   4.204
21344WAT     H264275   2.403   2.317   4.095
21345WAT      O64276   0.316   6.696   8.325
21345WAT     H164277   0.371   6.737   8.252
21345WAT     H264278   0.375   6.639   8.382
21346WAT      O64279   6.764   5.166   4.362
21346WAT     H164280   6.741   5.229   4.436
21346WAT     H264281   6.685   5.153   4.303
21347WAT      O64282   4.215   9.325   9.123
21347WAT     H164283   4.146   9.286   9.183
21347WAT     H264284   4.303   9.328   9.170
21348WAT      O64285   2.586   6.853   1.166
21348WAT     H164286   2.515   6.785   1.187
21348WAT     H264287   2.583   6.926   1.235
21349WAT      O64288   4.866   6.816   8.491
21349WAT     H164289   4.901   6.759   8.565
21349WAT     H264290   4.801   6.883   8.528
21350WAT      O64291   1.345   9.309   6.795
21350WAT     H164292   1.303   9.330   6.707
21350WAT     H264293   1.382   9.393   6.835
21351WAT      O64294   1.130   9.304   6.011
21351WAT     H164295   1.039   9.299   5.970
21351WAT     H264296   1.153   9.216   6.052
21352WAT      O64297   0.394   3.146   7.487
21352WAT     H164298   0.407   3.048   7.507
21352WAT     H264299   0.313   3.157   7.430
21353WAT      O64300   0.152   5.674   8.152
21353WAT     H164301   0.074   5.734   8.131
21353WAT     H264302   0.205   5.659   8.069
21354WAT      O64303   0.993   9.655   3.596
21354WAT     H164304   1.053   9.642   3.675
21354WAT     H264305   1.005   9.748   3.561
21355WAT      O64306   6.840   8.905   8.079
21355WAT     H164307   6.872   8.940   8.167
21355WAT     H264308   6.847   8.977   8.010
21356WAT      O64309   4.715   8.609   5.351
21356WAT     H164310   4.655   8.530   5.364
21356WAT     H264311   4.754   8.606   5.259
21357WAT      O64312   3.160   4.513   7.636
21357WAT     H164313   3.133   4.508   7.732
21357WAT     H264314   3.260   4.514   7.629
21358WAT      O64315   1.427   2.817   0.603
21358WAT     H164316   1.474   2.767   0.530
21358WAT     H264317   1.380   2.752   0.663
21359WAT      O64318   5.213   8.635   0.024
21359WAT     H164319   5.305   8.638  -0.015
21359WAT     H264320   5.159   8.565  -0.023
21360WAT      O64321   0.872   0.482   3.420
21360WAT     H164322   0.778   0.514   3.426
21360WAT     H264323   0.897   0.434   3.504
21361WAT      O64324   0.890   9.124   1.774
21361WAT     H164325   0.865   9.221   1.767
21361WAT     H264326   0.880   9.081   1.685
21362WAT      O64327   7.664   2.936   4.556
21362WAT     H164328   7.615   3.021   4.572
21362WAT     H264329   7.756   2.942   4.596
21363WAT      O64330   9.412   0.775   2.970
21363WAT     H164331   9.461   0.779   3.057
21363WAT     H264332   9.326   0.727   2.982
21364WAT      O64333   2.291   4.271   5.517
21364WAT     H164334   2.378   4.314   5.492
21364WAT     H264335   2.308   4.182   5.559
21365WAT      O64336   3.401   1.792   0.161
21365WAT     H164337   3.497   1.767   0.155
21365WAT     H264338   3.387   1.853   0.239
21366WAT      O64339   0.910   6.022   9.200
21366WAT     H164340   0.814   6.039   9.179
21366WAT     H264341   0.933   6.063   9.289
21367WAT      O64342   8.911   5.260   6.182
21367WAT     H164343   8.812   5.257   6.194
21367WAT     H264344   8.934   5.229   6.090
21368WAT      O64345   6.908   2.325   4.131
21368WAT     H164346   6.958   2.287   4.053
21368WAT     H264347   6.922   2.424   4.134
21369WAT      O64348   3.447   0.698   4.962
21369WAT     H164349   3.528   0.672   4.910
21369WAT     H264350   3.435   0.635   5.039
21370WAT      O64351   7.695   8.710   5.696
21370WAT     H164352   7.650   8.799   5.696
21370WAT     H264353   7.630   8.640   5.724
21371WAT      O64354   8.414   6.301   9.006
21371WAT     H164355   8.406   6.391   8.963
21371WAT     H264356   8.508   6.270   9.001
21372WAT      O64357   2.055   9.289   6.702
21372WAT     H164358   2.021   9.350   6.774
21372WAT     H264359   2.010   9.201   6.708
21373WAT      O64360   7.793   7.532   6.392
21373WAT     H164361   7.701   7.556   6.362
21373WAT     H264362   7.849   7.507   6.312
21374WAT      O64363   4.784   9.106   1.083
21374WAT     H164364   4.811   9.110   0.987
21374WAT     H264365   4.854   9.058   1.136
21375WAT      O64366   4.099   9.636   7.865
21375WAT     H164367   4.002   9.661   7.859
21375WAT     H264368   4.112   9.543   7.832
21376WAT      O64369   2.057   3.717   8.921
21376WAT     H164370   2.041   3.627   8.880
21376WAT     H264371   2.147   3.719   8.964
21377WAT      O64372   6.527   1.944   9.863
21377WAT     H164373   6.523   1.997   9.948
21377WAT     H264374   6.445   1.888   9.855
21378WAT      O64375   7.168   8.152   5.358
21378WAT     H164376   7.144   8.239   5.402
21378WAT     H264377   7.246   8.112   5.405
21379WAT      O64378   2.826   2.062   3.257
21379WAT     H164379   2.791   2.099   3.171
21379WAT     H264380   2.791   2.115   3.334
21380WAT      O64381   3.904   4.910   5.461
21380WAT     H164382   3.998   4.903   5.493
21380WAT     H264383   3.873   5.005   5.465
21381WAT      O64384   5.497   0.652   6.477
21381WAT     H164385   5.570   0.715   6.502
21381WAT     H264386   5.506   0.567   6.530
21382WAT      O64387   8.926   6.030   1.988
21382WAT     H164388   8.841   6.035   2.041
21382WAT     H264389   8.929   5.945   1.936
21383WAT      O64390   1.818   5.685   2.382
21383WAT     H164391   1.891   5.632   2.425
21383WAT     H264392   1.803   5.650   2.289
21384WAT      O64393   0.245   4.530   4.322
21384WAT     H164394   0.321   4.481   4.278
21384WAT     H264395   0.257   4.628   4.311
21385WAT      O64396   0.150   8.041   3.163
21385WAT     H164397   0.052   8.032   3.145
21385WAT     H264398   0.201   8.020   3.080
21386WAT      O64399   9.637   3.493   4.260
21386WAT     H164400   9.601   3.585   4.244
21386WAT     H264401   9.598   3.456   4.344
21387WAT      O64402   2.960   9.279   6.330
21387WAT     H164403   3.041   9.262   6.386
21387WAT     H264404   2.984   9.339   6.253
21388WAT      O64405   0.345   5.945   9.880
21388WAT     H164406   0.316   5.867   9.824
21388WAT     H264407   0.361   5.914   9.974
21389WAT      O64408   4.167   3.832   5.703
21389WAT     H164409   4.178   3.846   5.604
21389WAT     H264410   4.207   3.744   5.729
21390WAT      O64411   4.534   2.849   1.296
21390WAT     H164412   4.522   2.779   1.366
21390WAT     H264413   4.627   2.884   1.299
21391WAT      O64414   4.749   5.512   5.532
21391WAT     H164415   4.666   5.488   5.582
21391WAT     H264416   4.727   5.580   5.462
21392WAT      O64417   7.848   7.444   9.102
21392WAT     H164418   7.849   7.530   9.152
21392WAT     H264419   7.801   7.374   9.156
21393WAT      O64420   3.386   3.047   8.027
21393WAT     H164421   3.349   3.082   7.941
21393WAT     H264422   3.474   3.003   8.009
21394WAT      O64423   6.539   8.841   6.613
21394WAT     H164424   6.614   8.860   6.677
21394WAT     H264425   6.452   8.839   6.664
21395WAT      O64426   8.205   7.743   0.593
21395WAT     H164427   8.235   7.648   0.588
21395WAT     H264428   8.150   7.766   0.513
21396WAT      O64429   5.484   7.501   0.962
21396WAT     H164430   5.524   7.542   1.044
21396WAT     H264431   5.391   7.533   0.951
21397WAT      O64432   7.303   3.047   4.344
21397WAT     H164433   7.266   3.039   4.436
21397WAT     H264434   7.323   2.956   4.308
21398WAT      O64435   5.226   8.003   3.176
21398WAT     H164436   5.198   7.989   3.081
21398WAT     H264437   5.206   7.921   3.230
21399WAT      O64438   6.385   3.500   4.173
21399WAT     H164439   6.447   3.424   4.192
21399WAT     H264440   6.435   3.573   4.126
21400WAT      O64441   7.050   0.744   6.932
21400WAT     H164442   7.138   0.779   6.964
21400WAT     H264443   7.019   0.671   6.994
21401WAT      O64444   6.721   6.966   1.570
21401WAT     H164445   6.631   6.923   1.564
21401WAT     H264446   6.784   6.906   1.617
21402WAT      O64447   8.135   9.331   6.668
21402WAT     H164448   8.163   9.236   6.653
21402WAT     H264449   8.091   9.366   6.585
21403WAT      O64450   7.523   4.695   9.272
21403WAT     H164451   7.586   4.617   9.277
21403WAT     H264452   7.572   4.779   9.291
21404WAT      O64453   6.603   9.202   8.098
21404WAT     H164454   6.550   9.124   8.130
21404WAT     H264455   6.693   9.201   8.143
21405WAT      O64456   2.525   7.489   5.310
21405WAT     H164457   2.622   7.489   5.331
21405WAT     H264458   2.478   7.557   5.367
21406WAT      O64459   4.656   0.611   8.866
21406WAT     H164460   4.717   0.533   8.881
21406WAT     H264461   4.711   0.693   8.848
21407WAT      O64462   8.778   2.820   6.789
21407WAT     H164463   8.844   2.746   6.776
21407WAT     H264464   8.687   2.782   6.803
21408WAT      O64465   4.339   7.529   5.120
21408WAT     H164466   4.274   7.455   5.139
21408WAT     H264467   4.432   7.497   5.136
21409WAT      O64468   2.522   7.701   5.571
21409WAT     H164469   2.443   7.641   5.569
21409WAT     H264470   2.515   7.769   5.498
21410WAT      O64471   6.669   0.666   3.823
21410WAT     H164472   6.684   0.568   3.837
21410WAT     H264473   6.637   0.683   3.730
21411WAT      O64474   1.893   8.352   5.721
21411WAT     H164475   1.964   8.405   5.673
21411WAT     H264476   1.803   8.383   5.691
21412WAT      O64477   3.805   9.584   8.689
21412WAT     H164478   3.836   9.624   8.602
21412WAT     H264479   3.828   9.647   8.764
21413WAT      O64480   1.508   4.691   5.326
21413WAT     H164481   1.551   4.671   5.414
21413WAT     H264482   1.577   4.686   5.253
21414WAT      O64483   4.091   4.436   1.802
21414WAT     H164484   4.063   4.493   1.725
21414WAT     H264485   4.059   4.478   1.887
21415WAT      O64486   0.562   0.330   2.592
21415WAT     H164487   0.629   0.378   2.534
21415WAT     H264488   0.482   0.388   2.606
21416WAT      O64489   7.580   8.720   3.073
21416WAT     H164490   7.553   8.683   3.162
21416WAT     H264491   7.648   8.660   3.032
21417WAT      O64492   2.842   7.610   8.633
21417WAT     H164493   2.780   7.666   8.687
21417WAT     H264494   2.789   7.560   8.563
21418WAT      O64495   7.921   8.481   5.097
21418WAT     H164496   7.956   8.408   5.156
21418WAT     H264497   7.998   8.526   5.050
21419WAT      O64498   4.458   5.116   1.296
21419WAT     H164499   4.367   5.082   1.271
21419WAT     H264500   4.514   5.041   1.330
21420WAT      O64501   9.652   2.163   6.071
21420WAT     H164502   9.581   2.229   6.046
21420WAT     H264503   9.741   2.197   6.039
21421WAT      O64504  -0.002   6.225   8.387
21421WAT     H164505  -0.007   6.236   8.288
21421WAT     H264506   0.093   6.237   8.417
21422WAT      O64507   6.813   7.612   4.487
21422WAT     H164508   6.822   7.604   4.586
21422WAT     H264509   6.716   7.621   4.463
21423WAT      O64510   9.542   5.784   6.008
21423WAT     H164511   9.555   5.688   5.985
21423WAT     H264512   9.487   5.828   5.936
21424WAT      O64513   9.600   8.608   1.737
21424WAT     H164514   9.641   8.623   1.827
21424WAT     H264515   9.671   8.587   1.670
21425WAT      O64516   8.649   0.738   3.260
21425WAT     H164517   8.692   0.701   3.342
21425WAT     H264518   8.620   0.832   3.277
21426WAT      O64519   2.174   4.348   1.492
21426WAT     H164520   2.248   4.295   1.452
21426WAT     H264521   2.185   4.352   1.591
21427WAT      O64522   5.053   8.019   2.512
21427WAT     H164523   5.065   8.037   2.610
21427WAT     H264524   4.986   8.083   2.475
21428WAT      O64525   4.113   4.016   5.890
21428WAT     H164526   4.188   4.006   5.955
21428WAT     H264527   4.121   3.947   5.818
21429WAT      O64528   2.374   8.747   9.844
21429WAT     H164529   2.418   8.670   9.888
21429WAT     H264530   2.419   8.832   9.873
21430WAT      O64531   4.183   5.210   0.035
21430WAT     H164532   4.171   5.230   0.133
21430WAT     H264533   4.235   5.284  -0.008
21431WAT      O64534   9.514   4.520   4.629
21431WAT     H164535   9.475   4.611   4.646
21431WAT     H264536   9.496   4.494   4.534
21432WAT      O64537   2.108   8.923   0.639
21432WAT     H164538   2.107   8.878   0.549
21432WAT     H264539   2.095   9.021   0.627
21433WAT      O64540   7.746   6.361   6.618
21433WAT     H164541   7.677   6.396   6.682
21433WAT     H264542   7.716   6.378   6.524
21434WAT      O64543   5.007   2.991   4.008
21434WAT     H164544   4.987   2.928   4.083
21434WAT     H264545   4.982   3.084   4.035
21435WAT      O64546   4.865   7.305   0.839
21435WAT     H164547   4.896   7.384   0.786
21435WAT     H264548   4.814   7.337   0.919
21436WAT      O64549   1.811   5.042   2.941
21436WAT     H164550   1.772   4.957   2.906
21436WAT     H264551   1.784   5.054   3.036
21437WAT      O64552   8.085   9.102   5.592
21437WAT     H164553   8.005   9.114   5.534
21437WAT     H264554   8.151   9.043   5.545
21438WAT      O64555   7.833   4.949   9.076
21438WAT     H164556   7.850   4.879   9.146
21438WAT     H264557   7.920   4.984   9.042
21439WAT      O64558   3.006   4.821   9.405
21439WAT     H164559   3.064   4.786   9.479
21439WAT     H264560   2.916   4.778   9.410
21440WAT      O64561   8.015   5.013   1.150
21440WAT     H164562   8.084   4.944   1.128
21440WAT     H264563   8.060   5.093   1.189
21441WAT      O64564   6.059   4.146   9.495
21441WAT     H164565   6.034   4.189   9.408
21441WAT     H264566   6.099   4.056   9.478
21442WAT      O64567   1.378   8.389   0.929
21442WAT     H164568   1.353   8.471   0.879
21442WAT     H264569   1.331   8.388   1.017
21443WAT      O64570   7.753   9.005   0.996
21443WAT     H164571   7.670   8.951   0.990
21443WAT     H264572   7.780   9.015   1.092
21444WAT      O64573   2.208   0.278   3.058
21444WAT     H164574   2.179   0.346   3.126
21444WAT     H264575   2.211   0.188   3.101
21445WAT      O64576   9.336   5.649   6.386
21445WAT     H164577   9.280   5.711   6.440
21445WAT     H264578   9.393   5.702   6.323
21446WAT      O64579   9.024   3.838   3.295
21446WAT     H164580   9.015   3.747   3.335
21446WAT     H264581   9.062   3.830   3.202
21447WAT      O64582   0.747   5.010   9.148
21447WAT     H164583   0.713   4.955   9.071
21447WAT     H264584   0.673   5.023   9.214
21448WAT      O64585   2.798   5.139   5.767
21448WAT     H164586   2.851   5.147   5.683
21448WAT     H264587   2.737   5.060   5.760
21449WAT      O64588   6.998   5.136   7.573
21449WAT     H164589   7.006   5.037   7.588
21449WAT     H264590   6.931   5.174   7.636
21450WAT      O64591   3.837   6.824   6.913
21450WAT     H164592   3.842   6.865   6.821
21450WAT     H264593   3.903   6.750   6.919
21451WAT      O64594   7.382   7.298   8.817
21451WAT     H164595   7.302   7.238   8.820
21451WAT     H264596   7.366   7.372   8.751
21452WAT      O64597   0.304   6.884   4.304
21452WAT     H164598   0.217   6.834   4.294
21452WAT     H264599   0.349   6.890   4.215
21453WAT      O64600   2.047   7.884   9.118
21453WAT     H164601   2.122   7.840   9.068
21453WAT     H264602   2.013   7.822   9.188
21454WAT      O64603   6.698   2.011   5.260
21454WAT     H164604   6.627   2.073   5.226
21454WAT     H264605   6.712   1.937   5.194
21455WAT      O64606   4.375   2.481   2.615
21455WAT     H164607   4.392   2.579   2.610
21455WAT     H264608   4.287   2.464   2.660
21456WAT      O64609   8.459   4.065   5.655
21456WAT     H164610   8.503   4.086   5.742
21456WAT     H264611   8.514   3.997   5.606
21457WAT      O64612   6.017   7.078   8.067
21457WAT     H164613   5.994   7.124   8.153
21457WAT     H264614   5.964   7.119   7.993
21458WAT      O64615   8.936   3.812   4.865
21458WAT     H164616   8.901   3.889   4.812
21458WAT     H264617   9.033   3.825   4.884
21459WAT      O64618   5.581   7.441   6.718
21459WAT     H164619   5.512   7.498   6.674
21459WAT     H264620   5.665   7.494   6.730
21460WAT      O64621   3.377   6.253   9.244
21460WAT     H164622   3.381   6.237   9.343
21460WAT     H264623   3.469   6.274   9.210
21461WAT      O64624   0.602   2.806   3.830
21461WAT     H164625   0.653   2.779   3.912
21461WAT     H264626   0.647   2.884   3.787
21462WAT      O64627   2.896   9.617   0.893
21462WAT     H164628   2.948   9.532   0.885
21462WAT     H264629   2.937   9.687   0.835
21463WAT      O64630   1.827   6.157   5.641
21463WAT     H164631   1.781   6.245   5.651
21463WAT     H264632   1.778   6.087   5.693
21464WAT      O64633   7.423   4.623   2.588
21464WAT     H164634   7.415   4.615   2.489
21464WAT     H264635   7.442   4.533   2.627
21465WAT      O64636   2.709   7.275   3.566
21465WAT     H164637   2.798   7.248   3.602
21465WAT     H264638   2.688   7.220   3.485
21466WAT      O64639   2.948   7.786   8.129
21466WAT     H164640   3.001   7.809   8.210
21466WAT     H264641   2.994   7.714   8.078
21467WAT      O64642   0.207   2.209   1.799
21467WAT     H164643   0.293   2.225   1.751
21467WAT     H264644   0.189   2.110   1.803
21468WAT      O64645   0.189   2.767   7.737
21468WAT     H164646   0.181   2.812   7.648
21468WAT     H264647   0.277   2.792   7.779
21469WAT      O64648   7.227   1.464   4.069
21469WAT     H164649   7.282   1.398   4.120
21469WAT     H264650   7.284   1.541   4.042
21470WAT      O64651   9.685   0.674   7.585
21470WAT     H164652   9.646   0.651   7.496
21470WAT     H264653   9.674   0.596   7.647
21471WAT      O64654   2.653   7.543   6.068
21471WAT     H164655   2.585   7.511   6.001
21471WAT     H264656   2.700   7.623   6.031
21472WAT      O64657   2.807   6.147   7.783
21472WAT     H164658   2.716   6.140   7.823
21472WAT     H264659   2.852   6.058   7.784
21473WAT      O64660   2.886   0.224   2.567
21473WAT     H164661   2.820   0.177   2.508
21473WAT     H264662   2.838   0.267   2.644
21474WAT      O64663   4.833   1.373   9.793
21474WAT     H164664   4.841   1.360   9.892
21474WAT     H264665   4.742   1.345   9.762
21475WAT      O64666   7.377   5.894   3.665
21475WAT     H164667   7.350   5.940   3.751
21475WAT     H264668   7.450   5.947   3.621
21476WAT      O64669   9.161   9.403   7.626
21476WAT     H164670   9.072   9.360   7.613
21476WAT     H264671   9.221   9.341   7.676
21477WAT      O64672   8.113   8.085   3.340
21477WAT     H164673   8.113   7.995   3.383
21477WAT     H264674   8.032   8.136   3.370
21478WAT      O64675   8.822   0.400   6.944
21478WAT     H164676   8.905   0.445   6.911
21478WAT     H264677   8.831   0.301   6.933
21479WAT      O64678   2.861   5.789   6.644
21479WAT     H164679   2.823   5.706   6.685
21479WAT     H264680   2.788   5.856   6.630
21480WAT      O64681   1.918   7.975   7.861
21480WAT     H164682   1.961   7.887   7.844
21480WAT     H264683   1.825   7.961   7.894
21481WAT      O64684   6.166   6.381   9.743
21481WAT     H164685   6.256   6.424   9.732
21481WAT     H264686   6.134   6.394   9.837
21482WAT      O64687   7.850   4.338   0.814
21482WAT     H164688   7.778   4.365   0.749
21482WAT     H264689   7.838   4.242   0.838
21483WAT      O64690   1.088   0.663   0.250
21483WAT     H164691   1.022   0.612   0.194
21483WAT     H264692   1.041   0.740   0.294
21484WAT      O64693   1.157   4.354   0.001
21484WAT     H164694   1.243   4.316  -0.034
21484WAT     H264695   1.176   4.436   0.055
21485WAT      O64696   2.211   2.935   9.854
21485WAT     H164697   2.169   2.919   9.943
21485WAT     H264698   2.290   2.997   9.865
21486WAT      O64699   8.306   0.273   2.886
21486WAT     H164700   8.348   0.360   2.911
21486WAT     H264701   8.356   0.198   2.929
21487WAT      O64702   7.221   2.769   9.664
21487WAT     H164703   7.318   2.781   9.643
21487WAT     H264704   7.177   2.719   9.589
21488WAT      O64705   8.082   8.208   6.161
21488WAT     H164706   8.012   8.180   6.095
21488WAT     H264707   8.040   8.267   6.231
21489WAT      O64708   0.068   1.662   2.742
21489WAT     H164709   0.066   1.643   2.644
21489WAT     H264710  -0.006   1.612   2.788
21490WAT      O64711   5.456   5.324   3.899
21490WAT     H164712   5.521   5.282   3.962
21490WAT     H264713   5.505   5.372   3.827
21491WAT      O64714   3.584   5.943   1.956
21491WAT     H164715   3.630   6.030   1.974
21491WAT     H264716   3.525   5.952   1.876
21492WAT      O64717   5.413   8.979   8.798
21492WAT     H164718   5.339   8.981   8.730
21492WAT     H264719   5.374   8.994   8.889
21493WAT      O64720   9.529   3.611   7.214
21493WAT     H164721   9.600   3.591   7.147
21493WAT     H264722   9.450   3.552   7.198
21494WAT      O64723   7.982   1.022   9.848
21494WAT     H164724   8.045   1.001   9.922
21494WAT     H264725   7.888   1.008   9.880
21495WAT      O64726   8.923   5.456   3.542
21495WAT     H164727   8.865   5.514   3.485
21495WAT     H264728   8.879   5.440   3.630
21496WAT      O64729   0.776   5.426   8.884
21496WAT     H164730   0.681   5.459   8.882
21496WAT     H264731   0.825   5.460   8.804
21497WAT      O64732   7.149   9.630   7.707
21497WAT     H164733   7.123   9.725   7.690
21497WAT     H264734   7.247   9.619   7.689
21498WAT      O64735   0.536   1.900   9.618
21498WAT     H164736   0.561   1.805   9.633
21498WAT     H264737   0.555   1.926   9.524
21499WAT      O64738   7.806   1.622   2.382
21499WAT     H164739   7.724   1.649   2.433
21499WAT     H264740   7.862   1.703   2.363
21500WAT      O64741   7.443   9.682   7.969
21500WAT     H164742   7.499   9.714   7.893
21500WAT     H264743   7.501   9.660   8.047
21501WAT      O64744   1.757   6.709   1.293
21501WAT     H164745   1.831   6.653   1.329
21501WAT     H264746   1.781   6.806   1.302
21502WAT      O64747   7.729   6.375   4.973
21502WAT     H164748   7.717   6.473   4.954
21502WAT     H264749   7.639   6.331   4.977
21503WAT      O64750   7.893   0.666   0.050
21503WAT     H164751   7.883   0.714   0.137
21503WAT     H264752   7.827   0.592   0.045
21504WAT      O64753   0.992   6.717   8.668
21504WAT     H164754   0.961   6.786   8.733
21504WAT     H264755   0.978   6.751   8.575
21505WAT      O64756   6.703   9.535   4.754
21505WAT     H164757   6.798   9.559   4.732
21505WAT     H264758   6.683   9.561   4.848
21506WAT      O64759   7.292   6.094   8.683
21506WAT     H164760   7.342   6.181   8.676
21506WAT     H264761   7.346   6.028   8.734
21507WAT      O64762   7.885   2.715   5.989
21507WAT     H164763   7.787   2.726   6.006
21507WAT     H264764   7.913   2.622   6.014
21508WAT      O64765   9.434   4.208   4.613
21508WAT     H164766   9.429   4.119   4.567
21508WAT     H264767   9.429   4.281   4.545
21509WAT      O64768   4.892   5.162   4.047
21509WAT     H164769   4.806   5.145   4.096
21509WAT     H264770   4.916   5.081   3.993
21510WAT      O64771   6.554   4.510   8.093
21510WAT     H164772   6.574   4.466   8.005
21510WAT     H264773   6.457   4.495   8.115
21511WAT      O64774   6.540   9.471   4.331
21511WAT     H164775   6.474   9.427   4.269
21511WAT     H264776   6.609   9.404   4.359
21512WAT      O64777   7.787   2.080   5.317
21512WAT     H164778   7.772   2.086   5.416
21512WAT     H264779   7.742   2.158   5.272
21513WAT      O64780   8.618   8.199   8.068
21513WAT     H164781   8.617   8.102   8.045
21513WAT     H264782   8.679   8.248   8.006
21514WAT      O64783   7.502   4.960   1.444
21514WAT     H164784   7.594   4.955   1.405
21514WAT     H264785   7.496   4.901   1.524
21515WAT      O64786   0.590   3.156   8.479
21515WAT     H164787   0.578   3.243   8.526
21515WAT     H264788   0.687   3.131   8.480
21516WAT      O64789   1.178   3.238   0.784
21516WAT     H164790   1.099   3.231   0.845
21516WAT     H264791   1.182   3.158   0.724
21517WAT      O64792   4.515   3.200   2.724
21517WAT     H164793   4.549   3.176   2.815
21517WAT     H264794   4.415   3.187   2.722
21518WAT      O64795   9.501   8.951   7.290
21518WAT     H164796   9.514   8.864   7.241
21518WAT     H264797   9.466   8.932   7.382
21519WAT      O64798   5.660   5.375   9.538
21519WAT     H164799   5.649   5.275   9.542
21519WAT     H264800   5.753   5.396   9.508
21520WAT      O64801   3.807   9.055   5.094
21520WAT     H164802   3.750   9.084   5.018
21520WAT     H264803   3.755   8.991   5.152
21521WAT      O64804   6.483   0.727   6.326
21521WAT     H164805   6.490   0.725   6.226
21521WAT     H264806   6.450   0.638   6.358
21522WAT      O64807   2.615   9.439   8.595
21522WAT     H164808   2.694   9.500   8.592
21522WAT     H264809   2.611   9.385   8.511
21523WAT      O64810   7.302   7.623   3.304
21523WAT     H164811   7.372   7.694   3.296
21523WAT     H264812   7.346   7.533   3.299
21524WAT      O64813   2.894   9.102   5.071
21524WAT     H164814   2.836   9.151   5.136
21524WAT     H264815   2.901   9.006   5.098
21525WAT      O64816   2.379   0.980   7.967
21525WAT     H164817   2.377   1.064   7.913
21525WAT     H264818   2.356   1.001   8.062
21526WAT      O64819   8.949   1.252   3.928
21526WAT     H164820   8.860   1.212   3.946
21526WAT     H264821   9.008   1.241   4.008
21527WAT      O64822   3.311   3.554   9.648
21527WAT     H164823   3.323   3.492   9.725
21527WAT     H264824   3.231   3.525   9.595
21528WAT      O64825   7.834   8.384   9.877
21528WAT     H164826   7.754   8.325   9.879
21528WAT     H264827   7.894   8.361   9.954
21529WAT      O64828   7.458   1.186   6.546
21529WAT     H164829   7.456   1.281   6.515
21529WAT     H264830   7.393   1.174   6.622
21530WAT      O64831   4.852   4.984   4.609
21530WAT     H164832   4.950   5.005   4.613
21530WAT     H264833   4.804   5.041   4.676
21531WAT      O64834   5.951   0.113   9.792
21531WAT     H164835   5.880   0.183   9.795
21531WAT     H264836   6.037   0.155   9.760
21532WAT      O64837   3.985   3.992   1.166
21532WAT     H164838   4.077   4.026   1.183
21532WAT     H264839   3.945   4.041   1.088
21533WAT      O64840   0.834   4.362   0.472
21533WAT     H164841   0.865   4.269   0.451
21533WAT     H264842   0.766   4.359   0.545
21534WAT      O64843   1.274   2.953   5.149
21534WAT     H164844   1.210   2.920   5.079
21534WAT     H264845   1.254   2.908   5.236
21535WAT      O64846   7.167   0.882   0.034
21535WAT     H164847   7.092   0.838   0.084
21535WAT     H264848   7.207   0.955   0.089
21536WAT      O64849   7.208   6.120   2.390
21536WAT     H164850   7.222   6.039   2.447
21536WAT     H264851   7.129   6.171   2.424
21537WAT      O64852   3.242   7.619   6.998
21537WAT     H164853   3.342   7.615   6.994
21537WAT     H264854   3.207   7.546   7.057
21538WAT      O64855   9.720   3.710   3.077
21538WAT     H164856   9.700   3.806   3.058
21538WAT     H264857   9.740   3.662   2.991
21539WAT      O64858   9.211   2.205   4.208
21539WAT     H164859   9.186   2.222   4.113
21539WAT     H264860   9.310   2.199   4.216
21540WAT      O64861   2.959   5.508   9.026
21540WAT     H164862   2.948   5.577   8.954
21540WAT     H264863   3.029   5.442   8.998
21541WAT      O64864   5.263   1.481   6.966
21541WAT     H164865   5.229   1.425   7.042
21541WAT     H264866   5.213   1.458   6.883
21542WAT      O64867   8.134   3.100   0.999
21542WAT     H164868   8.076   3.090   1.080
21542WAT     H264869   8.203   3.027   0.998
21543WAT      O64870   8.140   0.512   8.706
21543WAT     H164871   8.078   0.554   8.640
21543WAT     H264872   8.123   0.413   8.710
21544WAT      O64873   1.879   0.140   7.356
21544WAT     H164874   1.967   0.164   7.395
21544WAT     H264875   1.806   0.186   7.407
21545WAT      O64876   0.253   3.064   4.325
21545WAT     H164877   0.276   3.130   4.396
21545WAT     H264878   0.324   3.066   4.254
21546WAT      O64879   0.287   1.418   6.905
21546WAT     H164880   0.271   1.365   6.988
21546WAT     H264881   0.375   1.465   6.912
21547WAT      O64882   3.790   8.637   5.702
21547WAT     H164883   3.737   8.572   5.756
21547WAT     H264884   3.883   8.602   5.690
21548WAT      O64885   4.974   3.267   5.338
21548WAT     H164886   4.993   3.266   5.437
21548WAT     H264887   4.980   3.361   5.304
21549WAT      O64888   6.853   2.991   0.895
21549WAT     H164889   6.801   3.076   0.883
21549WAT     H264890   6.791   2.914   0.901
21550WAT      O64891   2.911   7.495   0.338
21550WAT     H164892   2.837   7.473   0.402
21550WAT     H264893   2.897   7.587   0.301
21551WAT      O64894   0.451   5.186   8.840
21551WAT     H164895   0.475   5.279   8.869
21551WAT     H264896   0.533   5.129   8.842
21552WAT      O64897   8.650   7.138   8.991
21552WAT     H164898   8.576   7.199   8.963
21552WAT     H264899   8.676   7.157   9.085
21553WAT      O64900   5.812   3.010   3.530
21553WAT     H164901   5.823   2.975   3.623
21553WAT     H264902   5.902   3.024   3.489
21554WAT      O64903   7.788   1.336   5.743
21554WAT     H164904   7.883   1.310   5.726
21554WAT     H264905   7.777   1.358   5.840
21555WAT      O64906   9.318   0.997   9.663
21555WAT     H164907   9.369   1.067   9.714
21555WAT     H264908   9.277   1.038   9.582
21556WAT      O64909   1.629   5.138   8.540
21556WAT     H164910   1.556   5.095   8.487
21556WAT     H264911   1.654   5.225   8.497
21557WAT      O64912   3.239   9.835   1.265
21557WAT     H164913   3.202   9.873   1.350
21557WAT     H264914   3.313   9.894   1.231
21558WAT      O64915   4.339   8.486   0.091
21558WAT     H164916   4.393   8.402   0.090
21558WAT     H264917   4.324   8.514   0.186
21559WAT      O64918   0.364   0.760   2.793
21559WAT     H164919   0.311   0.695   2.739
21559WAT     H264920   0.345   0.746   2.890
21560WAT      O64921   5.877   9.706   3.952
21560WAT     H164922   5.876   9.615   3.912
21560WAT     H264923   5.865   9.774   3.880
21561WAT      O64924   5.633   2.990   3.984
21561WAT     H164925   5.625   3.090   3.986
21561WAT     H264926   5.623   2.953   4.076
21562WAT      O64927   0.107   5.577   6.839
21562WAT     H164928   0.125   5.482   6.811
21562WAT     H264929   0.179   5.636   6.804
21563WAT      O64930   7.261   6.444   7.462
21563WAT     H164931   7.293   6.368   7.406
21563WAT     H264932   7.190   6.412   7.524
21564WAT      O64933   9.304   6.801   5.728
21564WAT     H164934   9.255   6.875   5.774
21564WAT     H264935   9.389   6.837   5.689
21565WAT      O64936   5.751   3.831   5.569
21565WAT     H164937   5.734   3.823   5.471
21565WAT     H264938   5.682   3.890   5.611
21566WAT      O64939   0.503   2.263   3.324
21566WAT     H164940   0.542   2.173   3.342
21566WAT     H264941   0.410   2.253   3.288
21567WAT      O64942   7.281   2.509   0.452
21567WAT     H164943   7.297   2.475   0.544
21567WAT     H264944   7.188   2.483   0.423
21568WAT      O64945   1.352   7.019   2.357
21568WAT     H164946   1.354   7.117   2.376
21568WAT     H264947   1.266   6.981   2.390
21569WAT      O64948   2.724   2.364   6.695
21569WAT     H164949   2.636   2.409   6.705
21569WAT     H264950   2.712   2.265   6.696
21570WAT      O64951   6.046   8.094   4.314
21570WAT     H164952   6.145   8.086   4.324
21570WAT     H264953   6.005   8.118   4.402
21571WAT      O64954   6.461   5.480   3.799
21571WAT     H164955   6.516   5.474   3.882
21571WAT     H264956   6.494   5.413   3.732
21572WAT      O64957   0.281   5.599   7.917
21572WAT     H164958   0.261   5.502   7.932
21572WAT     H264959   0.210   5.639   7.859
21573WAT      O64960   9.093   4.477   2.876
21573WAT     H164961   9.076   4.409   2.948
21573WAT     H264962   9.034   4.459   2.798
21574WAT      O64963   6.335   3.093   8.743
21574WAT     H164964   6.428   3.118   8.717
21574WAT     H264965   6.337   3.039   8.827
21575WAT      O64966   2.793   9.035   0.237
21575WAT     H164967   2.724   9.101   0.209
21575WAT     H264968   2.884   9.065   0.206
21576WAT      O64969   7.363   6.948   6.347
21576WAT     H164970   7.383   6.940   6.249
21576WAT     H264971   7.285   6.890   6.370
21577WAT      O64972   7.269   1.552   2.965
21577WAT     H164973   7.177   1.590   2.950
21577WAT     H264974   7.296   1.567   3.060
21578WAT      O64975   9.078   9.527   1.123
21578WAT     H164976   9.001   9.500   1.064
21578WAT     H264977   9.144   9.452   1.128
21579WAT      O64978   7.954   0.684   1.640
21579WAT     H164979   7.958   0.596   1.687
21579WAT     H264980   7.861   0.720   1.645
21580WAT      O64981   5.021   0.743   2.733
21580WAT     H164982   4.946   0.795   2.773
21580WAT     H264983   4.999   0.720   2.638
21581WAT      O64984   0.703   0.560   2.157
21581WAT     H164985   0.796   0.539   2.128
21581WAT     H264986   0.702   0.577   2.256
21582WAT      O64987   3.211   3.724   2.805
21582WAT     H164988   3.235   3.700   2.711
21582WAT     H264989   3.159   3.809   2.806
21583WAT      O64990   2.663   7.531   3.487
21583WAT     H164991   2.667   7.601   3.558
21583WAT     H264992   2.671   7.441   3.530
21584WAT      O64993   5.208  -0.001   8.325
21584WAT     H164994   5.229   0.094   8.299
21584WAT     H264995   5.286  -0.040   8.373
21585WAT      O64996   1.873   1.589   0.232
21585WAT     H164997   1.833   1.514   0.180
21585WAT     H264998   1.966   1.606   0.199
21586WAT      O64999   4.899   3.622   0.778
21586WAT     H165000   4.824   3.678   0.814
21586WAT     H265001   4.872   3.581   0.691
21587WAT      O65002   6.383   7.077   0.748
21587WAT     H165003   6.464   7.101   0.695
21587WAT     H265004   6.331   7.160   0.768
21588WAT      O65005   8.917   6.187   4.747
21588WAT     H165006   8.990   6.241   4.789
21588WAT     H265007   8.850   6.248   4.705
21589WAT      O65008   2.960   4.156   0.226
21589WAT     H165009   2.944   4.137   0.323
21589WAT     H265010   2.885   4.119   0.172
21590WAT      O65011   8.141   3.092   0.374
21590WAT     H165012   8.207   3.149   0.327
21590WAT     H265013   8.188   3.028   0.435
21591WAT      O65014   2.245   2.070   0.387
21591WAT     H165015   2.254   2.092   0.290
21591WAT     H265016   2.314   2.119   0.439
21592WAT      O65017   2.557   8.970   4.778
21592WAT     H165018   2.656   8.968   4.762
21592WAT     H265019   2.528   9.064   4.794
21593WAT      O65020   5.218   8.158   2.729
21593WAT     H165021   5.304   8.116   2.757
21593WAT     H265022   5.236   8.248   2.689
21594WAT      O65023   0.854   1.637   9.530
21594WAT     H165024   0.875   1.565   9.596
21594WAT     H265025   0.935   1.657   9.476
21595WAT      O65026   0.394   8.323   3.859
21595WAT     H165027   0.492   8.308   3.872
21595WAT     H265028   0.358   8.257   3.794
21596WAT      O65029   7.458   6.035   0.176
21596WAT     H165030   7.382   6.098   0.160
21596WAT     H265031   7.437   5.976   0.254
21597WAT      O65032   7.931   3.136   2.022
21597WAT     H165033   8.008   3.167   2.077
21597WAT     H265034   7.862   3.208   2.016
21598WAT      O65035   1.906   6.025   6.871
21598WAT     H165036   1.918   6.120   6.840
21598WAT     H265037   1.955   6.012   6.957
21599WAT      O65038   2.559   0.176   0.554
21599WAT     H165039   2.561   0.271   0.522
21599WAT     H265040   2.614   0.167   0.636
21600WAT      O65041   2.350   8.968   2.698
21600WAT     H165042   2.431   8.914   2.671
21600WAT     H265043   2.268   8.914   2.682
21601WAT      O65044   2.392   3.405   8.632
21601WAT     H165045   2.353   3.347   8.560
21601WAT     H265046   2.442   3.348   8.697
21602WAT      O65047   5.415   4.358   3.629
21602WAT     H165048   5.512   4.362   3.607
21602WAT     H265049   5.402   4.344   3.727
21603WAT      O65050   4.223   5.905   1.604
21603WAT     H165051   4.278   5.858   1.673
21603WAT     H265052   4.246   6.002   1.605
21604WAT      O65053   6.619   5.998   9.428
21604WAT     H165054   6.693   6.032   9.370
21604WAT     H265055   6.641   5.906   9.460
21605WAT      O65056   5.032   4.313   3.263
21605WAT     H165057   4.944   4.352   3.289
21605WAT     H265058   5.096   4.321   3.340
21606WAT      O65059   3.322   5.154   3.476
21606WAT     H165060   3.339   5.251   3.457
21606WAT     H265061   3.330   5.102   3.392
21607WAT      O65062   5.433   1.032   8.801
21607WAT     H165063   5.406   0.959   8.864
21607WAT     H265064   5.382   1.115   8.823
21608WAT      O65065   0.682   8.674   1.497
21608WAT     H165066   0.707   8.660   1.401
21608WAT     H265067   0.762   8.699   1.550
21609WAT      O65068   9.647   8.892   3.612
21609WAT     H165069   9.720   8.927   3.671
21609WAT     H265070   9.647   8.792   3.615
21610WAT      O65071   1.636   0.304   3.963
21610WAT     H165072   1.670   0.248   4.039
21610WAT     H265073   1.695   0.290   3.883
21611WAT      O65074   5.651   1.840   5.394
21611WAT     H165075   5.582   1.910   5.414
21611WAT     H265076   5.665   1.783   5.475
21612WAT      O65077   5.662   5.356   0.394
21612WAT     H165078   5.658   5.287   0.323
21612WAT     H265079   5.747   5.345   0.446
21613WAT      O65080   5.572   8.420   9.764
21613WAT     H165081   5.612   8.478   9.834
21613WAT     H265082   5.483   8.387   9.795
21614WAT      O65083   7.536   4.103   1.945
21614WAT     H165084   7.553   4.007   1.968
21614WAT     H265085   7.502   4.151   2.025
21615WAT      O65086   5.011   6.662   7.456
21615WAT     H165087   4.932   6.685   7.399
21615WAT     H265088   4.996   6.699   7.548
21616WAT      O65089   0.054   0.120   5.514
21616WAT     H165090  -0.008   0.099   5.590
21616WAT     H265091   0.149   0.103   5.542
21617WAT      O65092   9.365   7.975   6.841
21617WAT     H165093   9.463   7.989   6.834
21617WAT     H265094   9.322   7.992   6.753
21618WAT      O65095   7.647   3.043   5.548
21618WAT     H165096   7.554   3.014   5.527
21618WAT     H265097   7.647   3.140   5.572
21619WAT      O65098   3.428   4.747   9.244
21619WAT     H165099   3.416   4.705   9.334
21619WAT     H265100   3.525   4.745   9.219
21620WAT      O65101   8.706   1.299   2.013
21620WAT     H165102   8.648   1.251   1.947
21620WAT     H265103   8.801   1.296   1.983
21621WAT      O65104   9.780   3.247   0.453
21621WAT     H165105   9.724   3.257   0.535
21621WAT     H265106   9.761   3.159   0.410
21622WAT      O65107   6.915   3.526   0.920
21622WAT     H165108   6.933   3.524   1.018
21622WAT     H265109   6.943   3.614   0.882
21623WAT      O65110   9.181   7.530   3.549
21623WAT     H165111   9.139   7.513   3.638
21623WAT     H265112   9.109   7.534   3.479
21624WAT      O65113   8.472   4.684   0.262
21624WAT     H165114   8.434   4.596   0.290
21624WAT     H265115   8.493   4.682   0.164
21625WAT      O65116   2.555   5.995   9.476
21625WAT     H165117   2.593   5.909   9.442
21625WAT     H265118   2.473   5.976   9.529
21626WAT      O65119   0.359   2.146   4.792
21626WAT     H165120   0.381   2.061   4.744
21626WAT     H265121   0.347   2.127   4.890
21627WAT      O65122   2.379   2.863   4.662
21627WAT     H165123   2.445   2.923   4.617
21627WAT     H265124   2.314   2.918   4.715
21628WAT      O65125   8.461   4.730   3.891
21628WAT     H165126   8.463   4.826   3.917
21628WAT     H265127   8.381   4.713   3.833
21629WAT      O65128   7.663   5.583   5.119
21629WAT     H165129   7.599   5.581   5.196
21629WAT     H265130   7.755   5.562   5.152
21630WAT      O65131   0.650   8.628   6.740
21630WAT     H165132   0.737   8.614   6.788
21630WAT     H265133   0.578   8.576   6.787
21631WAT      O65134   3.189   1.569   0.532
21631WAT     H165135   3.268   1.589   0.474
21631WAT     H265136   3.201   1.479   0.574
21632WAT      O65137   2.529   1.199   8.757
21632WAT     H165138   2.524   1.116   8.812
21632WAT     H265139   2.543   1.278   8.817
21633WAT      O65140   1.659   3.807   4.023
21633WAT     H165141   1.642   3.794   3.925
21633WAT     H265142   1.747   3.853   4.035
21634WAT      O65143   0.852   6.445   9.065
21634WAT     H165144   0.931   6.433   9.126
21634WAT     H265145   0.864   6.390   8.983
21635WAT      O65146   9.171   7.529   2.628
21635WAT     H165147   9.150   7.437   2.595
21635WAT     H265148   9.208   7.583   2.553
21636WAT      O65149   1.384   2.280   3.121
21636WAT     H165150   1.442   2.358   3.097
21636WAT     H265151   1.401   2.205   3.057
21637WAT      O65152   0.154   6.385   3.162
21637WAT     H165153   0.242   6.421   3.194
21637WAT     H265154   0.136   6.417   3.070
21638WAT      O65155   9.468   1.061   7.640
21638WAT     H165156   9.369   1.058   7.624
21638WAT     H265157   9.485   1.092   7.734
21639WAT      O65158   6.697   6.203   5.100
21639WAT     H165159   6.743   6.273   5.044
21639WAT     H265160   6.627   6.157   5.045
21640WAT      O65161   2.076   8.054   6.797
21640WAT     H165162   2.173   8.074   6.813
21640WAT     H265163   2.049   7.974   6.852
21641WAT      O65164   8.802   6.256   8.135
21641WAT     H165165   8.768   6.241   8.228
21641WAT     H265166   8.809   6.354   8.118
21642WAT      O65167   3.795   4.486   5.924
21642WAT     H165168   3.854   4.566   5.935
21642WAT     H265169   3.731   4.502   5.849
21643WAT      O65170   0.961   0.192   7.303
21643WAT     H165171   0.915   0.200   7.391
21643WAT     H265172   0.962   0.096   7.274
21644WAT      O65173   6.795   2.536   7.114
21644WAT     H165174   6.753   2.518   7.203
21644WAT     H265175   6.780   2.458   7.053
21645WAT      O65176   0.120   8.738   3.645
21645WAT     H165177   0.077   8.828   3.640
21645WAT     H265178   0.208   8.741   3.598
21646WAT      O65179   4.511   4.593   7.839
21646WAT     H165180   4.429   4.603   7.782
21646WAT     H265181   4.591   4.625   7.789
21647WAT      O65182   0.140   5.872   1.082
21647WAT     H165183   0.181   5.785   1.110
21647WAT     H265184   0.195   5.947   1.117
21648WAT      O65185   3.715   6.354   9.419
21648WAT     H165186   3.805   6.397   9.424
21648WAT     H265187   3.685   6.350   9.324
21649WAT      O65188   7.556   0.709   7.956
21649WAT     H165189   7.655   0.723   7.960
21649WAT     H265190   7.510   0.786   8.002
21650WAT      O65191   3.608   4.036   7.612
21650WAT     H165192   3.578   3.957   7.666
21650WAT     H265193   3.590   4.018   7.515
21651WAT      O65194   4.357   6.303   1.095
21651WAT     H165195   4.415   6.237   1.142
21651WAT     H265196   4.397   6.394   1.102
21652WAT      O65197   2.209   5.463   3.190
21652WAT     H165198   2.208   5.561   3.175
21652WAT     H265199   2.303   5.430   3.195
21653WAT      O65200   7.801   7.986   4.889
21653WAT     H165201   7.783   8.074   4.933
21653WAT     H265202   7.833   7.921   4.957
21654WAT      O65203   1.020   1.154   1.835
21654WAT     H165204   0.986   1.245   1.812
21654WAT     H265205   1.118   1.150   1.821
21655WAT      O65206   8.224   1.142   6.545
21655WAT     H165207   8.239   1.053   6.588
21655WAT     H265208   8.182   1.130   6.455
21656WAT      O65209   5.721   6.310   0.471
21656WAT     H165210   5.648   6.376   0.456
21656WAT     H265211   5.805   6.342   0.428
21657WAT      O65212   6.677   9.272   2.534
21657WAT     H165213   6.678   9.173   2.554
21657WAT     H265214   6.735   9.319   2.601
21658WAT      O65215   5.494   5.466   3.241
21658WAT     H165216   5.449   5.555   3.247
21658WAT     H265217   5.551   5.462   3.160
21659WAT      O65218   9.364   6.152   7.217
21659WAT     H165219   9.443   6.139   7.158
21659WAT     H265220   9.350   6.249   7.234
21660WAT      O65221   9.472   5.414   8.837
21660WAT     H165222   9.490   5.511   8.855
21660WAT     H265223   9.501   5.359   8.916
21661WAT      O65224   3.425   7.817   4.749
21661WAT     H165225   3.451   7.912   4.736
21661WAT     H265226   3.330   7.803   4.721
21662WAT      O65227   6.898   9.820   7.131
21662WAT     H165228   6.907   9.773   7.219
21662WAT     H265229   6.988   9.854   7.102
21663WAT      O65230   9.371   9.221   0.456
21663WAT     H165231   9.285   9.271   0.449
21663WAT     H265232   9.399   9.215   0.552
21664WAT      O65233   9.449   7.658   0.919
21664WAT     H165234   9.441   7.757   0.905
21664WAT     H265235   9.541   7.628   0.892
21665WAT      O65236   4.671   1.694   2.310
21665WAT     H165237   4.692   1.700   2.212
21665WAT     H265238   4.719   1.615   2.349
21666WAT      O65239   0.237   9.250   2.655
21666WAT     H165240   0.243   9.164   2.706
21666WAT     H265241   0.141   9.277   2.646
21667WAT      O65242   4.536   4.302   1.266
21667WAT     H165243   4.528   4.389   1.217
21667WAT     H265244   4.590   4.238   1.212
21668WAT      O65245   3.759   3.682   4.274
21668WAT     H165246   3.779   3.708   4.179
21668WAT     H265247   3.834   3.711   4.333
21669WAT      O65248   1.560   8.846   7.539
21669WAT     H165249   1.653   8.849   7.503
21669WAT     H265250   1.563   8.826   7.637
21670WAT      O65251   2.348   6.709   6.700
21670WAT     H165252   2.378   6.803   6.684
21670WAT     H265253   2.419   6.658   6.749
21671WAT      O65254   8.837   7.225   5.694
21671WAT     H165255   8.829   7.210   5.595
21671WAT     H265256   8.861   7.140   5.739
21672WAT      O65257   7.992   3.950   1.789
21672WAT     H165258   8.030   4.034   1.748
21672WAT     H265259   7.906   3.928   1.744
21673WAT      O65260   6.193   5.756   2.808
21673WAT     H165261   6.232   5.768   2.899
21673WAT     H265262   6.259   5.786   2.740
21674WAT      O65263   1.596   7.339   6.188
21674WAT     H165264   1.535   7.414   6.215
21674WAT     H265265   1.669   7.376   6.131
21675WAT      O65266   0.403   2.449   0.204
21675WAT     H165267   0.308   2.428   0.179
21675WAT     H265268   0.457   2.463   0.122
21676WAT      O65269   9.841   6.231   0.806
21676WAT     H165270   9.903   6.308   0.821
21676WAT     H265271   9.855   6.163   0.878
21677WAT      O65272   1.284   7.635   1.106
21677WAT     H165273   1.304   7.639   1.008
21677WAT     H265274   1.188   7.660   1.122
21678WAT      O65275   2.646   1.458   3.237
21678WAT     H165276   2.679   1.377   3.286
21678WAT     H265277   2.647   1.537   3.299
21679WAT      O65278   1.731   3.301   5.334
21679WAT     H165279   1.631   3.303   5.328
21679WAT     H265280   1.766   3.230   5.273
21680WAT      O65281   6.487   5.120   0.669
21680WAT     H165282   6.577   5.115   0.712
21680WAT     H265283   6.460   5.216   0.658
21681WAT      O65284   6.718   1.865   3.165
21681WAT     H165285   6.718   1.831   3.071
21681WAT     H265286   6.711   1.964   3.165
21682WAT      O65287   9.153   7.173   3.865
21682WAT     H165288   9.226   7.106   3.868
21682WAT     H265289   9.090   7.151   3.791
21683WAT      O65290   9.147   8.833   6.699
21683WAT     H165291   9.203   8.755   6.674
21683WAT     H265292   9.111   8.876   6.616
21684WAT      O65293   7.533   1.294   8.889
21684WAT     H165294   7.468   1.280   8.815
21684WAT     H265295   7.499   1.365   8.951
21685WAT      O65296   4.987   1.396   2.866
21685WAT     H165297   4.960   1.492   2.854
21685WAT     H265298   5.021   1.383   2.958
21686WAT      O65299   0.465   7.937   5.266
21686WAT     H165300   0.506   7.901   5.350
21686WAT     H265301   0.366   7.936   5.275
21687WAT      O65302   3.051   8.617   1.537
21687WAT     H165303   3.071   8.697   1.481
21687WAT     H265304   3.107   8.539   1.507
21688WAT      O65305   4.596   4.238   6.714
21688WAT     H165306   4.525   4.254   6.783
21688WAT     H265307   4.669   4.305   6.725
21689WAT      O65308   8.833   8.829   9.560
21689WAT     H165309   8.790   8.783   9.483
21689WAT     H265310   8.773   8.824   9.640
21690WAT      O65311   3.515   5.176   6.588
21690WAT     H165312   3.592   5.128   6.548
21690WAT     H265313   3.539   5.207   6.680
21691WAT      O65314   8.370   4.174   0.500
21691WAT     H165315   8.459   4.156   0.458
21691WAT     H265316   8.323   4.087   0.514
21692WAT      O65317   6.625   2.489   6.028
21692WAT     H165318   6.695   2.444   5.973
21692WAT     H265319   6.579   2.559   5.973
21693WAT      O65320   2.635   3.759   7.851
21693WAT     H165321   2.539   3.759   7.879
21693WAT     H265322   2.647   3.822   7.775
21694WAT      O65323   5.782   6.375   5.999
21694WAT     H165324   5.847   6.451   6.007
21694WAT     H265325   5.802   6.306   6.068
21695WAT      O65326   8.834   3.380   4.594
21695WAT     H165327   8.851   3.465   4.644
21695WAT     H265328   8.811   3.307   4.658
21696WAT      O65329   4.646   4.633   4.383
21696WAT     H165330   4.552   4.641   4.417
21696WAT     H265331   4.670   4.536   4.376
21697WAT      O65332   3.899   1.775   1.589
21697WAT     H165333   3.913   1.773   1.490
21697WAT     H265334   3.974   1.826   1.632
21698WAT      O65335   6.938   1.274   3.151
21698WAT     H165336   6.984   1.269   3.062
21698WAT     H265337   6.996   1.231   3.221
21699WAT      O65338   7.822   2.120   6.100
21699WAT     H165339   7.888   2.120   6.175
21699WAT     H265340   7.859   2.170   6.022
21700WAT      O65341   2.140   0.203   1.106
21700WAT     H165342   2.169   0.298   1.118
21700WAT     H265343   2.085   0.174   1.185
21701WAT      O65344   0.515   0.564   7.799
21701WAT     H165345   0.499   0.663   7.798
21701WAT     H265346   0.547   0.537   7.890
21702WAT      O65347   0.370   4.434   8.069
21702WAT     H165348   0.274   4.448   8.048
21702WAT     H265349   0.383   4.342   8.106
21703WAT      O65350   8.020   4.174   1.639
21703WAT     H165351   8.100   4.192   1.582
21703WAT     H265352   7.967   4.258   1.652
21704WAT      O65353   1.759   5.620   0.366
21704WAT     H165354   1.818   5.572   0.302
21704WAT     H265355   1.793   5.713   0.380
21705WAT      O65356   6.051   3.289   2.530
21705WAT     H165357   6.123   3.295   2.600
21705WAT     H265358   6.025   3.194   2.516
21706WAT      O65359   4.314   7.983   5.871
21706WAT     H165360   4.306   8.023   5.780
21706WAT     H265361   4.273   7.892   5.871
21707WAT      O65362   9.650   8.947   4.065
21707WAT     H165363   9.576   9.005   4.099
21707WAT     H265364   9.701   8.995   3.994
21708WAT      O65365   4.130   1.297   8.348
21708WAT     H165366   4.179   1.326   8.430
21708WAT     H265367   4.174   1.216   8.310
21709WAT      O65368   7.982   3.725   0.412
21709WAT     H165369   7.948   3.717   0.318
21709WAT     H265370   8.072   3.770   0.410
21710WAT      O65371   5.302   3.155   8.011
21710WAT     H165372   5.281   3.155   8.109
21710WAT     H265373   5.399   3.135   7.997
21711WAT      O65374   6.384   4.569   3.141
21711WAT     H165375   6.392   4.527   3.231
21711WAT     H265376   6.329   4.652   3.147
21712WAT      O65377   6.392   1.131   6.110
21712WAT     H165378   6.483   1.160   6.081
21712WAT     H265379   6.341   1.209   6.144
21713WAT      O65380   6.174   2.771   2.853
21713WAT     H165381   6.147   2.813   2.940
21713WAT     H265382   6.235   2.694   2.870
21714WAT      O65383   0.115   3.054   3.486
21714WAT     H165384   0.154   2.999   3.560
21714WAT     H265385   0.023   3.020   3.465
21715WAT      O65386   2.041   8.812   7.051
21715WAT     H165387   2.075   8.905   7.041
21715WAT     H265388   1.947   8.807   7.017
21716WAT      O65389   4.411   9.622   0.847
21716WAT     H165390   4.369   9.622   0.937
21716WAT     H265391   4.455   9.711   0.831
21717WAT      O65392   9.111   2.523   4.972
21717WAT     H165393   9.198   2.566   4.994
21717WAT     H265394   9.065   2.494   5.056
21718WAT      O65395   5.982   9.429   1.763
21718WAT     H165396   5.900   9.444   1.819
21718WAT     H265397   5.993   9.332   1.745
21719WAT      O65398   9.133   8.210   8.881
21719WAT     H165399   9.227   8.236   8.857
21719WAT     H265400   9.069   8.267   8.831
21720WAT      O65401   8.703   6.039   7.008
21720WAT     H165402   8.731   6.063   6.915
21720WAT     H265403   8.621   6.092   7.032
21721WAT      O65404   6.700   9.159   0.297
21721WAT     H165405   6.634   9.171   0.372
21721WAT     H265406   6.779   9.217   0.312
21722WAT      O65407   0.191   3.065   1.830
21722WAT     H165408   0.154   3.129   1.897
21722WAT     H265409   0.137   2.980   1.832
21723WAT      O65410   2.207   3.375   5.788
21723WAT     H165411   2.171   3.287   5.819
21723WAT     H265412   2.136   3.425   5.739
21724WAT      O65413   3.749   0.282   6.955
21724WAT     H165414   3.812   0.321   6.888
21724WAT     H265415   3.738   0.345   7.032
21725WAT      O65416   2.190   8.120   0.604
21725WAT     H165417   2.094   8.139   0.582
21725WAT     H265418   2.245   8.123   0.521
21726WAT      O65419   7.778   5.749   9.298
21726WAT     H165420   7.866   5.790   9.323
21726WAT     H265421   7.791   5.685   9.223
21727WAT      O65422   3.496   7.622   6.966
21727WAT     H165423   3.532   7.531   6.989
21727WAT     H265424   3.570   7.679   6.931
21728WAT      O65425   2.081   5.175   1.505
21728WAT     H165426   2.030   5.229   1.438
21728WAT     H265427   2.017   5.132   1.569
21729WAT      O65428   7.436   4.973   9.562
21729WAT     H165429   7.353   4.920   9.547
21729WAT     H265430   7.450   5.035   9.485
21730WAT      O65431   3.405   2.152   0.514
21730WAT     H165432   3.351   2.156   0.598
21730WAT     H265433   3.422   2.244   0.480
21731WAT      O65434   9.216   6.700   7.223
21731WAT     H165435   9.141   6.676   7.285
21731WAT     H265436   9.193   6.670   7.130
21732WAT      O65437   2.303   7.545   9.824
21732WAT     H165438   2.208   7.550   9.855
21732WAT     H265439   2.308   7.566   9.727
21733WAT      O65440   6.727   9.676   1.208
21733WAT     H165441   6.649   9.681   1.270
21733WAT     H265442   6.712   9.738   1.131
21734WAT      O65443   3.820   2.528   4.101
21734WAT     H165444   3.910   2.519   4.059
21734WAT     H265445   3.820   2.605   4.164
21735WAT      O65446   7.489   6.014   0.612
21735WAT     H165447   7.511   5.919   0.633
21735WAT     H265448   7.572   6.062   0.583
21736WAT      O65449   2.219   7.788   2.142
21736WAT     H165450   2.307   7.743   2.126
21736WAT     H265451   2.214   7.818   2.238
21737WAT      O65452   1.362   0.377   5.997
21737WAT     H165453   1.365   0.346   6.092
21737WAT     H265454   1.408   0.465   5.989
21738WAT      O65455   5.940   6.199   3.169
21738WAT     H165456   5.977   6.176   3.260
21738WAT     H265457   5.882   6.124   3.137
21739WAT      O65458   2.913   8.795   6.602
21739WAT     H165459   2.943   8.885   6.571
21739WAT     H265460   2.921   8.790   6.701
21740WAT      O65461   3.642   2.846   9.406
21740WAT     H165462   3.685   2.903   9.335
21740WAT     H265463   3.705   2.833   9.482
21741WAT      O65464   7.778   2.266   3.329
21741WAT     H165465   7.775   2.168   3.311
21741WAT     H265466   7.736   2.285   3.417
21742WAT      O65467   4.699   2.621   5.078
21742WAT     H165468   4.722   2.707   5.033
21742WAT     H265469   4.648   2.640   5.162
21743WAT      O65470   5.504   9.045   2.840
21743WAT     H165471   5.551   9.059   2.752
21743WAT     H265472   5.471   8.951   2.845
21744WAT      O65473   5.659   3.448   2.496
21744WAT     H165474   5.754   3.423   2.513
21744WAT     H265475   5.617   3.483   2.580
21745WAT      O65476   0.647   0.754   3.973
21745WAT     H165477   0.646   0.792   4.065
21745WAT     H265478   0.742   0.736   3.944
21746WAT      O65479   3.750   6.748   8.270
21746WAT     H165480   3.795   6.817   8.213
21746WAT     H265481   3.661   6.725   8.231
21747WAT      O65482   4.861   1.775   1.790
21747WAT     H165483   4.822   1.860   1.825
21747WAT     H265484   4.960   1.787   1.777
21748WAT      O65485   5.335   7.024   5.500
21748WAT     H165486   5.359   6.936   5.460
21748WAT     H265487   5.399   7.045   5.574
21749WAT      O65488   8.785   4.446   0.071
21749WAT     H165489   8.796   4.537   0.113
21749WAT     H265490   8.712   4.397   0.117
21750WAT      O65491   3.860   3.970   0.538
21750WAT     H165492   3.909   3.978   0.451
21750WAT     H265493   3.903   3.900   0.594
21751WAT      O65494   0.086   0.864   1.972
21751WAT     H165495   0.130   0.810   2.044
21751WAT     H265496   0.031   0.803   1.914
21752WAT      O65497   0.692   4.695   3.226
21752WAT     H165498   0.597   4.666   3.222
21752WAT     H265499   0.729   4.704   3.134
21753WAT      O65500   9.739   8.825   9.073
21753WAT     H165501   9.797   8.896   9.032
21753WAT     H265502   9.708   8.856   9.163
21754WAT      O65503   1.784   5.955   7.971
21754WAT     H165504   1.697   5.939   8.018
21754WAT     H265505   1.782   5.915   7.880
21755WAT      O65506   6.491   0.626   5.775
21755WAT     H165507   6.417   0.604   5.712
21755WAT     H265508   6.500   0.725   5.783
21756WAT      O65509   6.828   1.730   9.310
21756WAT     H165510   6.801   1.678   9.391
21756WAT     H265511   6.908   1.686   9.268
21757WAT      O65512   0.118   4.772   8.263
21757WAT     H165513   0.033   4.731   8.231
21757WAT     H265514   0.106   4.871   8.272
21758WAT      O65515   2.475   3.023   0.274
21758WAT     H165516   2.451   2.998   0.181
21758WAT     H265517   2.545   3.095   0.273
21759WAT      O65518   7.078   4.066   3.608
21759WAT     H165519   7.134   4.105   3.681
21759WAT     H265520   7.138   4.027   3.538
21760WAT      O65521   5.315   3.443   0.340
21760WAT     H165522   5.372   3.525   0.344
21760WAT     H265523   5.344   3.379   0.411
21761WAT      O65524   3.660   2.093   9.577
21761WAT     H165525   3.700   2.036   9.505
21761WAT     H265526   3.665   2.045   9.664
21762WAT      O65527   1.457   6.010   5.434
21762WAT     H165528   1.554   6.024   5.418
21762WAT     H265529   1.438   5.913   5.451
21763WAT      O65530   8.589   5.850   4.350
21763WAT     H165531   8.647   5.790   4.294
21763WAT     H265532   8.510   5.798   4.384
21764WAT      O65533   2.258   0.635   7.019
21764WAT     H165534   2.244   0.537   7.007
21764WAT     H265535   2.305   0.673   6.940
21765WAT      O65536   3.904   8.049   7.386
21765WAT     H165537   3.915   8.017   7.480
21765WAT     H265538   3.990   8.089   7.354
21766WAT      O65539   3.553   7.781   0.674
21766WAT     H165540   3.483   7.844   0.643
21766WAT     H265541   3.570   7.712   0.603
21767WAT      O65542   9.088   3.847   3.032
21767WAT     H165543   9.006   3.806   2.994
21767WAT     H265544   9.105   3.935   2.987
21768WAT      O65545   8.087   5.121   9.349
21768WAT     H165546   8.182   5.115   9.381
21768WAT     H265547   8.066   5.215   9.324
21769WAT      O65548   8.902   2.309   6.479
21769WAT     H165549   8.835   2.358   6.535
21769WAT     H265550   8.952   2.244   6.536
21770WAT      O65551   4.583   1.443   0.043
21770WAT     H165552   4.570   1.348   0.013
21770WAT     H265553   4.607   1.499  -0.036
21771WAT      O65554   6.381   1.760   5.330
21771WAT     H165555   6.313   1.710   5.277
21771WAT     H265556   6.358   1.857   5.331
21772WAT      O65557   6.534   4.947   3.293
21772WAT     H165558   6.548   4.932   3.390
21772WAT     H265559   6.615   4.916   3.242
21773WAT      O65560   9.241   2.331   3.151
21773WAT     H165561   9.340   2.343   3.153
21773WAT     H265562   9.202   2.383   3.075
21774WAT      O65563   5.170   4.399   0.809
21774WAT     H165564   5.235   4.325   0.826
21774WAT     H265565   5.104   4.369   0.740
21775WAT      O65566   2.943   0.685   9.613
21775WAT     H165567   2.848   0.690   9.644
21775WAT     H265568   2.997   0.631   9.678
21776WAT      O65569   0.299   8.971   8.003
21776WAT     H165570   0.335   9.055   8.044
21776WAT     H265571   0.319   8.894   8.063
21777WAT      O65572   9.437   5.949   0.427
21777WAT     H165573   9.531   5.973   0.451
21777WAT     H265574   9.407   6.006   0.350
21778WAT      O65575   9.391   0.116   4.780
21778WAT     H165576   9.364   0.058   4.857
21778WAT     H265577   9.330   0.099   4.702
21779WAT      O65578   6.108   1.700   3.696
21779WAT     H165579   6.015   1.666   3.712
21779WAT     H265580   6.114   1.739   3.604
21780WAT      O65581   7.058   1.024   5.430
21780WAT     H165582   7.053   0.951   5.362
21780WAT     H265583   6.973   1.078   5.428
21781WAT      O65584   0.577   6.290   9.313
21781WAT     H165585   0.591   6.219   9.244
21781WAT     H265586   0.622   6.374   9.283
21782WAT      O65587   2.144   2.043   0.110
21782WAT     H165588   2.215   1.997   0.057
21782WAT     H265589   2.064   1.983   0.117
21783WAT      O65590   8.372   8.106   5.844
21783WAT     H165591   8.328   8.019   5.822
21783WAT     H265592   8.427   8.136   5.766
21784WAT      O65593   9.404   9.203   0.729
21784WAT     H165594   9.350   9.285   0.748
21784WAT     H265595   9.378   9.131   0.793
21785WAT      O65596   6.565   7.628   3.316
21785WAT     H165597   6.639   7.665   3.371
21785WAT     H265598   6.574   7.659   3.221
21786WAT      O65599   5.194   8.135   1.648
21786WAT     H165600   5.228   8.043   1.668
21786WAT     H265601   5.229   8.200   1.715
21787WAT      O65602   2.522   2.088   2.769
21787WAT     H165603   2.435   2.061   2.810
21787WAT     H265604   2.506   2.117   2.675
21788WAT      O65605   8.036   4.103   0.002
21788WAT     H165606   8.021   4.155   0.086
21788WAT     H265607   8.019   4.006   0.020
21789WAT      O65608   2.383   5.617   5.429
21789WAT     H165609   2.417   5.703   5.391
21789WAT     H265610   2.286   5.626   5.451
21790WAT      O65611   0.240   8.234   5.987
21790WAT     H165612   0.294   8.201   6.064
21790WAT     H265613   0.254   8.332   5.976
21791WAT      O65614   1.929   1.099   8.221
21791WAT     H165615   1.942   1.001   8.229
21791WAT     H265616   2.017   1.145   8.232
21792WAT      O65617   5.856   0.113   7.240
21792WAT     H165618   5.787   0.147   7.176
21792WAT     H265619   5.866   0.178   7.315
21793WAT      O65620   4.948   4.452   5.543
21793WAT     H165621   5.000   4.448   5.458
21793WAT     H265622   4.936   4.547   5.571
21794WAT      O65623   2.679   7.881   1.161
21794WAT     H165624   2.648   7.845   1.249
21794WAT     H265625   2.774   7.912   1.170
21795WAT      O65626   3.365   4.096   8.949
21795WAT     H165627   3.373   4.144   8.862
21795WAT     H265628   3.353   4.162   9.023
21796WAT      O65629   9.602   7.898   5.437
21796WAT     H165630   9.607   7.909   5.337
21796WAT     H265631   9.508   7.914   5.467
21797WAT      O65632   2.240   6.375   0.429
21797WAT     H165633   2.266   6.377   0.332
21797WAT     H265634   2.173   6.447   0.447
21798WAT      O65635   5.430   9.516   5.276
21798WAT     H165636   5.381   9.513   5.362
21798WAT     H265637   5.368   9.495   5.201
21799WAT      O65638   8.780   0.880   7.989
21799WAT     H165639   8.830   0.807   7.944
21799WAT     H265640   8.683   0.873   7.967
21800WAT      O65641   2.823   9.673   0.258
21800WAT     H165642   2.777   9.609   0.197
21800WAT     H265643   2.817   9.639   0.352
21801WAT      O65644   2.058   7.663   8.735
21801WAT     H165645   2.032   7.606   8.658
21801WAT     H265646   1.995   7.648   8.811
21802WAT      O65647   2.365   0.189   5.132
21802WAT     H165648   2.405   0.248   5.062
21802WAT     H265649   2.364   0.095   5.100
21803WAT      O65650   3.833   7.539   5.792
21803WAT     H165651   3.915   7.593   5.773
21803WAT     H265652   3.853   7.471   5.862
21804WAT      O65653   9.253   3.235   2.996
21804WAT     H165654   9.214   3.146   2.973
21804WAT     H265655   9.206   3.271   3.077
21805WAT      O65656   4.476   2.692   5.283
21805WAT     H165657   4.472   2.791   5.272
21805WAT     H265658   4.443   2.648   5.200
21806WAT      O65659   5.988   9.227   4.793
21806WAT     H165660   5.949   9.318   4.774
21806WAT     H265661   5.973   9.204   4.889
21807WAT      O65662   7.003   5.123   0.983
21807WAT     H165663   6.921   5.094   0.933
21807WAT     H265664   7.076   5.056   0.970
21808WAT      O65665   5.940   8.659   7.242
21808WAT     H165666   5.948   8.566   7.204
21808WAT     H265667   5.886   8.656   7.326
21809WAT      O65668   3.483   0.583   5.926
21809WAT     H165669   3.487   0.677   5.960
21809WAT     H265670   3.545   0.573   5.848
21810WAT      O65671   3.653   1.307   9.478
21810WAT     H165672   3.677   1.402   9.461
21810WAT     H265673   3.628   1.295   9.574
21811WAT      O65674   3.476   6.360   6.766
21811WAT     H165675   3.523   6.336   6.680
21811WAT     H265676   3.445   6.454   6.761
21812WAT      O65677   3.242   0.061   0.667
21812WAT     H165678   3.258  -0.007   0.596
21812WAT     H265679   3.186   0.022   0.740
21813WAT      O65680   0.136   9.466   7.131
21813WAT     H165681   0.150   9.454   7.033
21813WAT     H265682   0.039   9.452   7.153
21814WAT      O65683   4.404   0.899   1.303
21814WAT     H165684   4.493   0.941   1.286
21814WAT     H265685   4.340   0.925   1.230
21815WAT      O65686   0.985   8.131   8.147
21815WAT     H165687   0.932   8.169   8.071
21815WAT     H265688   0.969   8.032   8.151
21816WAT      O65689   2.088   8.421   9.426
21816WAT     H165690   2.179   8.462   9.435
21816WAT     H265691   2.092   8.325   9.453
21817WAT      O65692   1.073   5.347   2.351
21817WAT     H165693   1.148   5.323   2.413
21817WAT     H265694   0.987   5.350   2.403
21818WAT      O65695   8.374   9.127   2.654
21818WAT     H165696   8.413   9.064   2.587
21818WAT     H265697   8.396   9.096   2.746
21819WAT      O65698   1.511   3.292   6.268
21819WAT     H165699   1.464   3.374   6.301
21819WAT     H265700   1.503   3.219   6.336
21820WAT      O65701   5.810   4.690   1.878
21820WAT     H165702   5.848   4.672   1.787
21820WAT     H265703   5.716   4.722   1.869
21821WAT      O65704   5.105   4.173   8.686
21821WAT     H165705   5.077   4.258   8.731
21821WAT     H265706   5.136   4.107   8.754
21822WAT      O65707   1.463   6.347   3.034
21822WAT     H165708   1.442   6.250   3.045
21822WAT     H265709   1.550   6.369   3.079
21823WAT      O65710   1.117   5.474   2.805
21823WAT     H165711   1.180   5.538   2.761
21823WAT     H265712   1.129   5.478   2.904
21824WAT      O65713   6.457   1.583   7.425
21824WAT     H165714   6.529   1.513   7.428
21824WAT     H265715   6.448   1.626   7.515
21825WAT      O65716   0.426   7.232   4.838
21825WAT     H165717   0.469   7.145   4.816
21825WAT     H265718   0.351   7.250   4.775
21826WAT      O65719   3.043   0.955   2.581
21826WAT     H165720   3.132   0.983   2.544
21826WAT     H265721   3.055   0.926   2.676
21827WAT      O65722   9.879   6.194   7.095
21827WAT     H165723   9.964   6.180   7.145
21827WAT     H265724   9.880   6.138   7.012
21828WAT      O65725   5.442   0.628   7.879
21828WAT     H165726   5.492   0.561   7.824
21828WAT     H265727   5.429   0.711   7.826
21829WAT      O65728   5.867   0.586   3.521
21829WAT     H165729   5.927   0.664   3.503
21829WAT     H265730   5.772   0.616   3.520
21830WAT      O65731   0.431   6.231   8.828
21830WAT     H165732   0.336   6.213   8.851
21830WAT     H265733   0.441   6.326   8.798
21831WAT      O65734   4.149   0.589   6.205
21831WAT     H165735   4.194   0.573   6.117
21831WAT     H265736   4.206   0.551   6.278
21832WAT      O65737   7.587   7.973   2.997
21832WAT     H165738   7.566   8.006   2.905
21832WAT     H265739   7.509   7.991   3.057
21833WAT      O65740   9.138   2.807   1.629
21833WAT     H165741   9.083   2.874   1.679
21833WAT     H265742   9.132   2.825   1.531
21834WAT      O65743   4.469   6.344   3.802
21834WAT     H165744   4.409   6.324   3.724
21834WAT     H265745   4.545   6.402   3.773
21835WAT      O65746   2.659   1.495   6.169
21835WAT     H165747   2.659   1.432   6.247
21835WAT     H265748   2.740   1.553   6.173
21836WAT      O65749   9.097   0.460   9.029
21836WAT     H165750   9.154   0.527   9.076
21836WAT     H265751   9.000   0.480   9.047
21837WAT      O65752   5.066   6.894   5.422
21837WAT     H165753   5.051   6.992   5.430
21837WAT     H265754   5.088   6.856   5.512
21838WAT      O65755   6.464   8.763   2.606
21838WAT     H165756   6.382   8.786   2.554
21838WAT     H265757   6.478   8.831   2.678
21839WAT      O65758   8.092   2.712   5.050
21839WAT     H165759   8.020   2.685   5.115
21839WAT     H265760   8.181   2.681   5.084
21840WAT      O65761   8.476   5.103   5.835
21840WAT     H165762   8.380   5.100   5.864
21840WAT     H265763   8.499   5.019   5.786
21841WAT      O65764   8.690   8.720   2.537
21841WAT     H165765   8.598   8.690   2.511
21841WAT     H265766   8.704   8.815   2.508
21842WAT      O65767   8.360   4.112   3.416
21842WAT     H165768   8.413   4.128   3.332
21842WAT     H265769   8.405   4.041   3.471
21843WAT      O65770   4.091   1.173   9.584
21843WAT     H165771   4.044   1.240   9.527
21843WAT     H265772   4.049   1.171   9.675
21844WAT      O65773   8.666   9.172   0.725
21844WAT     H165774   8.699   9.249   0.671
21844WAT     H265775   8.744   9.122   0.764
21845WAT      O65776   1.089   5.798   2.898
21845WAT     H165777   1.131   5.823   2.811
21845WAT     H265778   0.999   5.840   2.906
21846WAT      O65779   1.185   0.182   1.055
21846WAT     H165780   1.135   0.119   0.996
21846WAT     H265781   1.154   0.172   1.149
21847WAT      O65782   9.830   5.637   2.406
21847WAT     H165783   9.875   5.651   2.317
21847WAT     H265784   9.820   5.539   2.423
21848WAT      O65785   7.218   9.166   2.150
21848WAT     H165786   7.173   9.165   2.061
21848WAT     H265787   7.172   9.230   2.210
21849WAT      O65788   5.187   3.097   6.316
21849WAT     H165789   5.108   3.036   6.305
21849WAT     H265790   5.266   3.055   6.270
21850WAT      O65791   9.380   4.134   1.251
21850WAT     H165792   9.449   4.164   1.317
21850WAT     H265793   9.382   4.034   1.245
21851WAT      O65794   5.567   7.563   7.361
21851WAT     H165795   5.583   7.565   7.460
21851WAT     H265796   5.489   7.622   7.340
21852WAT      O65797   0.253   1.968   3.901
21852WAT     H165798   0.335   2.014   3.867
21852WAT     H265799   0.182   2.037   3.920
21853WAT      O65800   5.423   7.917   7.332
21853WAT     H165801   5.511   7.923   7.285
21853WAT     H265802   5.413   7.995   7.394
21854WAT      O65803   8.196   4.728   1.400
21854WAT     H165804   8.243   4.790   1.462
21854WAT     H265805   8.098   4.728   1.421
21855WAT      O65806   2.522   0.569   8.352
21855WAT     H165807   2.543   0.473   8.370
21855WAT     H265808   2.473   0.608   8.429
21856WAT      O65809   6.285   0.923   8.023
21856WAT     H165810   6.200   0.899   8.069
21856WAT     H265811   6.341   0.981   8.083
21857WAT      O65812   9.004   8.387   2.021
21857WAT     H165813   8.994   8.294   1.987
21857WAT     H265814   8.975   8.391   2.117
21858WAT      O65815   4.854   1.448   8.034
21858WAT     H165816   4.951   1.433   8.051
21858WAT     H265817   4.842   1.522   7.968
21859WAT      O65818   6.298   4.837   8.367
21859WAT     H165819   6.304   4.811   8.271
21859WAT     H265820   6.315   4.757   8.425
21860WAT      O65821   6.809   2.375   5.888
21860WAT     H165822   6.880   2.430   5.932
21860WAT     H265823   6.823   2.279   5.911
21861WAT      O65824   6.915   1.956   4.327
21861WAT     H165825   6.914   1.916   4.236
21861WAT     H265826   6.887   1.888   4.394
21862WAT      O65827   9.198   6.733   2.315
21862WAT     H165828   9.142   6.732   2.397
21862WAT     H265829   9.259   6.654   2.315
21863WAT      O65830   2.732   1.059   9.543
21863WAT     H165831   2.816   1.110   9.561
21863WAT     H265832   2.729   1.032   9.447
21864WAT      O65833   5.877   2.319   9.290
21864WAT     H165834   5.939   2.284   9.219
21864WAT     H265835   5.930   2.369   9.359
21865WAT      O65836   1.840   1.846   1.599
21865WAT     H165837   1.917   1.789   1.628
21865WAT     H265838   1.850   1.870   1.502
21866WAT      O65839   6.364   2.051   5.388
21866WAT     H165840   6.441   2.102   5.427
21866WAT     H265841   6.284   2.061   5.447
21867WAT      O65842   6.275   1.060   2.616
21867WAT     H165843   6.335   0.991   2.574
21867WAT     H265844   6.328   1.116   2.679
21868WAT      O65845   1.442   8.795   2.011
21868WAT     H165846   1.513   8.807   2.081
21868WAT     H265847   1.482   8.748   1.932
21869WAT      O65848   9.714   5.287   9.410
21869WAT     H165849   9.679   5.380   9.422
21869WAT     H265850   9.713   5.239   9.497
21870WAT      O65851   4.625   0.751   9.687
21870WAT     H165852   4.628   0.791   9.595
21870WAT     H265853   4.717   0.751   9.726
21871WAT      O65854   8.895   1.505   2.485
21871WAT     H165855   8.827   1.505   2.412
21871WAT     H265856   8.891   1.591   2.535
21872WAT      O65857   0.327   8.688   8.947
21872WAT     H165858   0.237   8.695   8.904
21872WAT     H265859   0.321   8.718   9.042
21873WAT      O65860   4.793   6.463   4.219
21873WAT     H165861   4.723   6.419   4.276
21873WAT     H265862   4.866   6.398   4.199
21874WAT      O65863   7.668   6.066   9.345
21874WAT     H165864   7.723   6.083   9.426
21874WAT     H265865   7.606   5.988   9.362
21875WAT      O65866   1.657   4.255   8.580
21875WAT     H165867   1.585   4.246   8.511
21875WAT     H265868   1.618   4.245   8.671
21876WAT      O65869   6.429   9.277   3.805
21876WAT     H165870   6.476   9.302   3.889
21876WAT     H265871   6.330   9.289   3.817
21877WAT      O65872   0.275   1.554   7.979
21877WAT     H165873   0.284   1.546   8.078
21877WAT     H265874   0.183   1.585   7.956
21878WAT      O65875   5.227   9.584   6.079
21878WAT     H165876   5.208   9.672   6.123
21878WAT     H265877   5.299   9.595   6.011
21879WAT      O65878   8.700   1.304   4.456
21879WAT     H165879   8.779   1.338   4.506
21879WAT     H265880   8.628   1.373   4.456
21880WAT      O65881   3.168   4.649   5.126
21880WAT     H165882   3.148   4.729   5.068
21880WAT     H265883   3.213   4.579   5.071
21881WAT      O65884   8.771   7.910   6.528
21881WAT     H165885   8.709   7.832   6.523
21881WAT     H265886   8.803   7.922   6.622
21882WAT      O65887   7.487   0.194   8.993
21882WAT     H165888   7.540   0.207   9.076
21882WAT     H265889   7.400   0.243   9.001
21883WAT      O65890   9.201   2.810   8.763
21883WAT     H165891   9.212   2.806   8.862
21883WAT     H265892   9.119   2.863   8.741
21884WAT      O65893   0.517   7.094   8.182
21884WAT     H165894   0.420   7.069   8.179
21884WAT     H265895   0.564   7.061   8.100
21885WAT      O65896   4.414   4.490   8.098
21885WAT     H165897   4.497   4.447   8.131
21885WAT     H265898   4.431   4.532   8.009
21886WAT      O65899   2.288   2.546   6.497
21886WAT     H165900   2.366   2.570   6.439
21886WAT     H265901   2.268   2.622   6.559
21887WAT      O65902   4.041   5.131   2.945
21887WAT     H165903   4.126   5.131   2.998
21887WAT     H265904   3.981   5.058   2.980
21888WAT      O65905   1.409   4.927   8.304
21888WAT     H165906   1.382   5.013   8.347
21888WAT     H265907   1.398   4.852   8.369
21889WAT      O65908   1.677   4.975   8.227
21889WAT     H165909   1.578   4.965   8.227
21889WAT     H265910   1.701   5.070   8.206
21890WAT      O65911   6.251   3.774   0.112
21890WAT     H165912   6.301   3.699   0.070
21890WAT     H265913   6.234   3.845   0.043
21891WAT      O65914   5.399   1.850   6.669
21891WAT     H165915   5.484   1.824   6.715
21891WAT     H265916   5.323   1.797   6.709
21892WAT      O65917   0.165   1.237   4.614
21892WAT     H165918   0.166   1.331   4.577
21892WAT     H265919   0.116   1.178   4.550
21893WAT      O65920   3.774   5.195   5.748
21893WAT     H165921   3.795   5.289   5.720
21893WAT     H265922   3.677   5.177   5.733
21894WAT      O65923   4.010   9.689   4.944
21894WAT     H165924   3.937   9.642   4.992
21894WAT     H265925   4.007   9.787   4.967
21895WAT      O65926   1.329   8.931   8.241
21895WAT     H165927   1.305   8.995   8.168
21895WAT     H265928   1.252   8.869   8.257
21896WAT      O65929   1.290   7.553   3.985
21896WAT     H165930   1.200   7.598   3.986
21896WAT     H265931   1.321   7.537   4.079
21897WAT      O65932   1.123   3.034   6.087
21897WAT     H165933   1.126   2.973   6.167
21897WAT     H265934   1.058   2.997   6.020
21898WAT      O65935   7.793   8.599   7.635
21898WAT     H165936   7.792   8.596   7.535
21898WAT     H265937   7.748   8.517   7.671
21899WAT      O65938   7.005   9.829   1.933
21899WAT     H165939   6.912   9.807   1.904
21899WAT     H265940   7.002   9.878   2.021
21900WAT      O65941   5.944   0.476   3.282
21900WAT     H165942   5.897   0.510   3.364
21900WAT     H265943   5.975   0.554   3.227
21901WAT      O65944   1.746   8.502   3.972
21901WAT     H165945   1.655   8.517   3.935
21901WAT     H265946   1.801   8.585   3.961
21902WAT      O65947   9.038   9.842   6.236
21902WAT     H165948   9.039   9.820   6.333
21902WAT     H265949   9.114   9.796   6.190
21903WAT      O65950   7.335   4.083   5.206
21903WAT     H165951   7.392   4.039   5.136
21903WAT     H265952   7.254   4.123   5.163
21904WAT      O65953   5.484   1.037   6.548
21904WAT     H165954   5.536   0.999   6.624
21904WAT     H265955   5.543   1.046   6.467
21905WAT      O65956   8.475   8.603   9.245
21905WAT     H165957   8.378   8.580   9.248
21905WAT     H265958   8.504   8.615   9.150
21906WAT      O65959   6.456   1.475   1.521
21906WAT     H165960   6.502   1.551   1.475
21906WAT     H265961   6.491   1.467   1.614
21907WAT      O65962   2.983   0.176   9.748
21907WAT     H165963   3.066   0.220   9.713
21907WAT     H265964   2.927   0.243   9.796
21908WAT      O65965   8.916   9.559   8.159
21908WAT     H165966   9.008   9.564   8.197
21908WAT     H265967   8.883   9.651   8.138
21909WAT      O65968   4.509   8.807   3.855
21909WAT     H165969   4.472   8.776   3.942
21909WAT     H265970   4.434   8.837   3.796
21910WAT      O65971   7.179   5.776   7.928
21910WAT     H165972   7.223   5.822   8.005
21910WAT     H265973   7.243   5.772   7.851
21911WAT      O65974   3.769   6.155   0.764
21911WAT     H165975   3.843   6.142   0.830
21911WAT     H265976   3.689   6.192   0.810
21912WAT      O65977   9.504   8.126   5.732
21912WAT     H165978   9.517   8.131   5.831
21912WAT     H265979   9.531   8.213   5.691
21913WAT      O65980   1.466   8.607   3.421
21913WAT     H165981   1.474   8.690   3.365
21913WAT     H265982   1.372   8.575   3.418
21914WAT      O65983   5.765   4.143   8.221
21914WAT     H165984   5.708   4.190   8.288
21914WAT     H265985   5.716   4.135   8.134
21915WAT      O65986   6.974   9.489   1.315
21915WAT     H165987   7.073   9.481   1.302
21915WAT     H265988   6.931   9.511   1.228
21916WAT      O65989   9.463   4.719   7.527
21916WAT     H165990   9.534   4.770   7.477
21916WAT     H265991   9.376   4.727   7.479
21917WAT      O65992   8.548   6.787   5.191
21917WAT     H165993   8.618   6.808   5.259
21917WAT     H265994   8.584   6.722   5.125
21918WAT      O65995   2.907   4.385   9.282
21918WAT     H165996   2.991   4.432   9.252
21918WAT     H265997   2.830   4.416   9.226
21919WAT      O65998   2.419   5.779   2.049
21919WAT     H165999   2.386   5.866   2.085
21919WAT     H266000   2.504   5.794   1.998
21920WAT      O66001   4.132   7.711   1.479
21920WAT     H166002   4.121   7.629   1.536
21920WAT     H266003   4.226   7.743   1.485
21921WAT      O66004   1.916   7.276   4.902
21921WAT     H166005   1.886   7.213   4.831
21921WAT     H266006   2.015   7.269   4.914
21922WAT      O66007   0.089   9.144   2.410
21922WAT     H166008   0.140   9.204   2.471
21922WAT     H266009  -0.009   9.156   2.425
21923WAT      O66010   4.498   6.521   3.021
21923WAT     H166011   4.538   6.430   3.024
21923WAT     H266012   4.564   6.585   2.982
21924WAT      O66013   6.034   0.868   8.169
21924WAT     H166014   5.975   0.889   8.091
21924WAT     H266015   6.007   0.780   8.208
21925WAT      O66016   8.362   0.332   0.850
21925WAT     H166017   8.335   0.315   0.755
21925WAT     H266018   8.291   0.299   0.911
21926WAT      O66019   7.466   5.140   5.184
21926WAT     H166020   7.405   5.094   5.119
21926WAT     H266021   7.519   5.210   5.136
21927WAT      O66022   7.604   4.446   3.252
21927WAT     H166023   7.692   4.492   3.261
21927WAT     H266024   7.534   4.513   3.229
21928WAT      O66025   9.276   9.111   6.309
21928WAT     H166026   9.263   9.202   6.349
21928WAT     H266027   9.258   9.116   6.210
21929WAT      O66028   8.952   2.333   1.105
21929WAT     H166029   8.980   2.380   1.021
21929WAT     H266030   8.944   2.399   1.179
21930WAT      O66031   3.497   3.146   8.958
21930WAT     H166032   3.562   3.177   8.888
21930WAT     H266033   3.520   3.053   8.986
21931WAT      O66034   5.374   5.207   2.127
21931WAT     H166035   5.407   5.277   2.064
21931WAT     H266036   5.421   5.120   2.108
21932WAT      O66037   8.236   3.669   2.380
21932WAT     H166038   8.283   3.722   2.451
21932WAT     H266039   8.194   3.732   2.314
21933WAT      O66040   7.600   1.551   3.483
21933WAT     H166041   7.578   1.647   3.497
21933WAT     H266042   7.518   1.501   3.455
21934WAT      O66043   0.268   4.097   4.614
21934WAT     H166044   0.247   4.155   4.535
21934WAT     H266045   0.187   4.091   4.673
21935WAT      O66046   0.760   0.837   8.080
21935WAT     H166047   0.772   0.801   7.988
21935WAT     H266048   0.717   0.928   8.075
21936WAT      O66049   2.809   2.897   2.748
21936WAT     H166050   2.750   2.977   2.753
21936WAT     H266051   2.806   2.847   2.834
21937WAT      O66052   4.405   2.328   1.836
21937WAT     H166053   4.400   2.229   1.844
21937WAT     H266054   4.500   2.357   1.827
21938WAT      O66055   8.942   1.268   9.071
21938WAT     H166056   9.030   1.252   9.116
21938WAT     H266057   8.908   1.181   9.034
21939WAT      O66058   5.498   1.705   0.500
21939WAT     H166059   5.539   1.782   0.549
21939WAT     H266060   5.464   1.637   0.566
21940WAT      O66061   8.585   5.218   9.262
21940WAT     H166062   8.494   5.197   9.299
21940WAT     H266063   8.635   5.133   9.247
21941WAT      O66064   8.954   8.543   3.021
21941WAT     H166065   8.936   8.461   2.967
21941WAT     H266066   9.052   8.553   3.035
21942WAT      O66067   5.449   7.142   2.533
21942WAT     H166068   5.545   7.156   2.506
21942WAT     H266069   5.428   7.199   2.612
21943WAT      O66070   0.267   3.131   2.661
21943WAT     H166071   0.346   3.093   2.613
21943WAT     H266072   0.207   3.057   2.691
21944WAT      O66073   2.050   1.337   1.400
21944WAT     H166074   2.127   1.344   1.464
21944WAT     H266075   1.965   1.346   1.451
21945WAT      O66076   7.039   6.488   2.662
21945WAT     H166077   7.125   6.497   2.611
21945WAT     H266078   7.051   6.523   2.755
21946WAT      O66079   5.134   1.751   1.166
21946WAT     H166080   5.205   1.808   1.206
21946WAT     H266081   5.126   1.771   1.068
21947WAT      O66082   7.855   3.190   8.662
21947WAT     H166083   7.824   3.095   8.661
21947WAT     H266084   7.815   3.237   8.740
21948WAT      O66085   8.237   6.061   3.338
21948WAT     H166086   8.273   5.970   3.358
21948WAT     H266087   8.308   6.117   3.297
21949WAT      O66088   6.084   0.292   4.094
21949WAT     H166089   6.176   0.269   4.062
21949WAT     H266090   6.040   0.210   4.130
21950WAT      O66091   7.546   4.634   5.949
21950WAT     H166092   7.581   4.576   5.876
21950WAT     H266093   7.608   4.632   6.027
21951WAT      O66094   5.734   0.188   9.281
21951WAT     H166095   5.732   0.179   9.381
21951WAT     H266096   5.680   0.114   9.240
21952WAT      O66097   8.829   6.240   0.609
21952WAT     H166098   8.774   6.302   0.666
21952WAT     H266099   8.917   6.283   0.590
21953WAT      O66100   1.861   7.589   5.945
21953WAT     H166101   1.881   7.684   5.922
21953WAT     H266102   1.818   7.544   5.867
21954WAT      O66103   8.724   4.459   1.358
21954WAT     H166104   8.770   4.535   1.313
21954WAT     H266105   8.628   4.456   1.329
21955WAT      O66106   1.442   6.518   3.768
21955WAT     H166107   1.418   6.433   3.721
21955WAT     H266108   1.484   6.496   3.856
21956WAT      O66109   6.891   9.007   9.821
21956WAT     H166110   6.917   8.989   9.726
21956WAT     H266111   6.883   8.921   9.870
21957WAT      O66112   5.685   9.841   5.869
21957WAT     H166113   5.610   9.855   5.934
21957WAT     H266114   5.771   9.870   5.911
21958WAT      O66115   0.324   5.314   7.550
21958WAT     H166116   0.359   5.226   7.517
21958WAT     H266117   0.235   5.333   7.509
21959WAT      O66118   2.287   7.079   8.166
21959WAT     H166119   2.345   7.071   8.247
21959WAT     H266120   2.244   7.169   8.165
21960WAT      O66121   8.206   1.973   2.347
21960WAT     H166122   8.196   1.874   2.353
21960WAT     H266123   8.300   1.996   2.325
21961WAT      O66124   3.694   3.043   4.892
21961WAT     H166125   3.757   3.106   4.846
21961WAT     H266126   3.701   3.054   4.991
21962WAT      O66127   3.063   0.704   6.685
21962WAT     H166128   3.111   0.621   6.714
21962WAT     H266129   3.040   0.759   6.765
21963WAT      O66130   8.218   7.968   7.282
21963WAT     H166131   8.225   7.878   7.239
21963WAT     H266132   8.248   8.038   7.217
21964WAT      O66133   9.680   0.953   2.259
21964WAT     H166134   9.586   0.977   2.238
21964WAT     H266135   9.683   0.865   2.306
21965WAT      O66136   5.761   7.781   2.937
21965WAT     H166137   5.833   7.774   2.868
21965WAT     H266138   5.781   7.718   3.012
21966WAT      O66139   1.970   7.290   1.760
21966WAT     H166140   1.914   7.340   1.694
21966WAT     H266141   1.924   7.289   1.849
21967WAT      O66142   8.797   1.461   8.942
21967WAT     H166143   8.782   1.464   8.843
21967WAT     H266144   8.866   1.392   8.963
21968WAT      O66145   7.778   4.901   5.810
21968WAT     H166146   7.723   4.873   5.732
21968WAT     H266147   7.875   4.887   5.789
21969WAT      O66148   1.820   9.841   0.491
21969WAT     H166149   1.753   9.801   0.428
21969WAT     H266150   1.809   9.802   0.582
21970WAT      O66151   4.262   7.116   4.980
21970WAT     H166152   4.316   7.161   4.910
21970WAT     H266153   4.229   7.184   5.046
21971WAT      O66154   3.617   1.941   2.073
21971WAT     H166155   3.706   1.985   2.062
21971WAT     H266156   3.563   1.991   2.141
21972WAT      O66157   3.835   4.617   7.996
21972WAT     H166158   3.914   4.654   7.948
21972WAT     H266159   3.764   4.688   8.003
21973WAT      O66160   1.860   8.537   4.888
21973WAT     H166161   1.808   8.451   4.886
21973WAT     H266162   1.924   8.536   4.965
21974WAT      O66163   7.401   3.483   8.258
21974WAT     H166164   7.398   3.388   8.288
21974WAT     H266165   7.308   3.514   8.236
21975WAT      O66166   3.359   6.045   7.848
21975WAT     H166167   3.413   6.126   7.825
21975WAT     H266168   3.391   5.967   7.794
21976WAT      O66169   7.372   3.528   3.261
21976WAT     H166170   7.413   3.457   3.205
21976WAT     H266171   7.289   3.493   3.304
21977WAT      O66172   6.962   9.739   8.671
21977WAT     H166173   6.891   9.782   8.726
21977WAT     H266174   7.026   9.689   8.730
21978WAT      O66175   8.890   7.414   9.582
21978WAT     H166176   8.802   7.455   9.560
21978WAT     H266177   8.899   7.327   9.533
21979WAT      O66178   6.952   2.396   0.961
21979WAT     H166179   6.883   2.372   1.030
21979WAT     H266180   6.939   2.339   0.880
21980WAT      O66181   7.846   4.759   7.165
21980WAT     H166182   7.783   4.681   7.157
21980WAT     H266183   7.827   4.808   7.251
21981WAT      O66184   8.155   9.760   0.451
21981WAT     H166185   8.148   9.774   0.550
21981WAT     H266186   8.247   9.781   0.421
21982WAT      O66187   5.850   6.733   2.322
21982WAT     H166188   5.766   6.752   2.272
21982WAT     H266189   5.901   6.660   2.276
21983WAT      O66190   3.462   1.428   5.359
21983WAT     H166191   3.511   1.354   5.312
21983WAT     H266192   3.528   1.489   5.402
21984WAT      O66193   0.351   2.622   5.957
21984WAT     H166194   0.448   2.601   5.945
21984WAT     H266195   0.340   2.721   5.970
21985WAT      O66196   4.123   3.559   2.981
21985WAT     H166197   4.153   3.646   2.942
21985WAT     H266198   4.200   3.514   3.026
21986WAT      O66199   2.575   9.709   9.524
21986WAT     H166200   2.655   9.670   9.569
21986WAT     H266201   2.492   9.665   9.560
21987WAT      O66202   1.994   7.262   7.537
21987WAT     H166203   2.015   7.306   7.450
21987WAT     H266204   2.010   7.164   7.529
21988WAT      O66205   5.797   4.199   4.581
21988WAT     H166206   5.773   4.216   4.485
21988WAT     H266207   5.766   4.107   4.607
21989WAT      O66208   9.845   5.447   5.384
21989WAT     H166209   9.902   5.401   5.453
21989WAT     H266210   9.874   5.419   5.293
21990WAT      O66211   7.578   0.078   6.025
21990WAT     H166212   7.591   0.018   5.945
21990WAT     H266213   7.563   0.021   6.106
21991WAT      O66214   5.798   0.421   6.876
21991WAT     H166215   5.824   0.336   6.829
21991WAT     H266216   5.839   0.499   6.828
21992WAT      O66217   2.835   2.888   0.323
21992WAT     H166218   2.745   2.872   0.365
21992WAT     H266219   2.864   2.982   0.341
21993WAT      O66220   8.760   6.761   1.852
21993WAT     H166221   8.761   6.673   1.805
21993WAT     H266222   8.853   6.798   1.854
21994WAT      O66223   6.372   1.168   9.763
21994WAT     H166224   6.430   1.236   9.808
21994WAT     H266225   6.299   1.214   9.712
21995WAT      O66226   5.546   0.472   6.705
21995WAT     H166227   5.474   0.502   6.767
21995WAT     H266228   5.627   0.449   6.758
21996WAT      O66229   2.891   3.833   8.860
21996WAT     H166230   2.872   3.926   8.890
21996WAT     H266231   2.883   3.770   8.938
21997WAT      O66232   4.900   5.853   5.341
21997WAT     H166233   4.929   5.947   5.361
21997WAT     H266234   4.978   5.791   5.353
21998WAT      O66235   6.536   7.464   5.382
21998WAT     H166236   6.473   7.469   5.459
21998WAT     H266237   6.626   7.435   5.414
21999WAT      O66238   6.061   1.537   5.751
21999WAT     H166239   5.966   1.505   5.747
21999WAT     H266240   6.080   1.573   5.842
22000WAT      O66241   2.276   2.042   2.885
22000WAT     H166242   2.253   2.023   2.981
22000WAT     H266243   2.195   2.075   2.837
22001WAT      O66244   3.085   7.157   7.318
22001WAT     H166245   3.075   7.059   7.336
22001WAT     H266246   3.182   7.177   7.299
22002WAT      O66247   6.407   0.890   9.585
22002WAT     H166248   6.406   0.965   9.651
22002WAT     H266249   6.419   0.927   9.493
22003WAT      O66250   1.467   3.292   3.604
22003WAT     H166251   1.500   3.379   3.640
22003WAT     H266252   1.399   3.309   3.533
22004WAT      O66253   8.528   4.008   2.445
22004WAT     H166254   8.588   4.082   2.413
22004WAT     H266255   8.555   3.922   2.404
22005WAT      O66256   1.919   2.183   8.654
22005WAT     H166257   1.991   2.114   8.661
22005WAT     H266258   1.868   2.170   8.570
22006WAT      O66259   4.058   5.458   4.923
22006WAT     H166260   3.984   5.492   4.982
22006WAT     H266261   4.133   5.524   4.921
22007WAT      O66262   2.962   4.555   8.566
22007WAT     H166263   2.922   4.622   8.628
22007WAT     H266264   2.935   4.577   8.472
22008WAT      O66265   1.532   0.422   4.322
22008WAT     H166266   1.575   0.337   4.293
22008WAT     H266267   1.502   0.474   4.242
22009WAT      O66268   2.183   0.995   1.038
22009WAT     H166269   2.262   0.934   1.045
22009WAT     H266270   2.161   1.030   1.129
22010WAT      O66271   2.528   6.347   6.823
22010WAT     H166272   2.557   6.427   6.770
22010WAT     H266273   2.591   6.271   6.806
22011WAT      O66274   2.563   9.435   2.665
22011WAT     H166275   2.473   9.460   2.701
22011WAT     H266276   2.624   9.411   2.741
22012WAT      O66277   1.278   9.604   0.107
22012WAT     H166278   1.327   9.583   0.191
22012WAT     H266279   1.214   9.531   0.086
22013WAT      O66280   8.207   3.299   1.638
22013WAT     H166281   8.281   3.361   1.662
22013WAT     H266282   8.203   3.224   1.705
22014WAT      O66283   7.897   3.971   6.854
22014WAT     H166284   7.823   3.962   6.787
22014WAT     H266285   7.979   4.006   6.808
22015WAT      O66286   8.713   6.419   6.094
22015WAT     H166287   8.650   6.345   6.067
22015WAT     H266288   8.759   6.393   6.179
22016WAT      O66289   9.249   9.341   6.439
22016WAT     H166290   9.167   9.398   6.427
22016WAT     H266291   9.251   9.305   6.532
22017WAT      O66292   3.874   4.959   5.871
22017WAT     H166293   3.862   5.051   5.834
22017WAT     H266294   3.786   4.910   5.868
22018WAT      O66295   5.688   0.575   2.619
22018WAT     H166296   5.667   0.605   2.526
22018WAT     H266297   5.673   0.477   2.627
22019WAT      O66298   7.663   4.822   9.625
22019WAT     H166299   7.617   4.752   9.680
22019WAT     H266300   7.594   4.885   9.589
22020WAT      O66301   4.360   7.684   3.634
22020WAT     H166302   4.293   7.611   3.621
22020WAT     H266303   4.354   7.749   3.557
22021WAT      O66304   5.480   4.265   0.412
22021WAT     H166305   5.506   4.216   0.496
22021WAT     H266306   5.411   4.212   0.362
22022WAT      O66307   4.346   6.811   5.688
22022WAT     H166308   4.389   6.852   5.768
22022WAT     H266309   4.327   6.881   5.620
22023WAT      O66310   2.503   0.372   4.479
22023WAT     H166311   2.600   0.398   4.486
22023WAT     H266312   2.487   0.289   4.533
22024WAT      O66313   7.252   9.033   3.396
22024WAT     H166314   7.341   8.988   3.393
22024WAT     H266315   7.213   9.024   3.488
22025WAT      O66316   5.200   5.174   8.871
22025WAT     H166317   5.273   5.217   8.924
22025WAT     H266318   5.226   5.171   8.775
22026WAT      O66319   5.031   2.356   9.136
22026WAT     H166320   5.084   2.406   9.067
22026WAT     H266321   4.967   2.418   9.180
22027WAT      O66322   2.490   5.864   7.807
22027WAT     H166323   2.535   5.951   7.829
22027WAT     H266324   2.461   5.866   7.711
22028WAT      O66325   3.050   9.539   7.322
22028WAT     H166326   2.984   9.501   7.388
22028WAT     H266327   3.142   9.510   7.348
22029WAT      O66328   7.091   1.101   2.200
22029WAT     H166329   7.114   1.040   2.276
22029WAT     H266330   6.993   1.100   2.184
22030WAT      O66331   1.698   3.007   4.928
22030WAT     H166332   1.626   3.069   4.898
22030WAT     H266333   1.726   2.950   4.850
22031WAT      O66334   0.642   1.963   8.510
22031WAT     H166335   0.581   1.929   8.581
22031WAT     H266336   0.669   2.057   8.532
22032WAT      O66337   1.884   0.937   7.278
22032WAT     H166338   1.800   0.907   7.232
22032WAT     H266339   1.963   0.916   7.221
22033WAT      O66340   4.302   5.485   8.654
22033WAT     H166341   4.271   5.390   8.646
22033WAT     H266342   4.243   5.544   8.598
22034WAT      O66343   2.986   0.251   4.822
22034WAT     H166344   2.902   0.209   4.857
22034WAT     H266345   3.064   0.222   4.878
22035WAT      O66346   5.412   7.872   9.333
22035WAT     H166347   5.479   7.902   9.265
22035WAT     H266348   5.325   7.919   9.316
22036WAT      O66349   7.616   6.199   6.013
22036WAT     H166350   7.649   6.134   5.944
22036WAT     H266351   7.561   6.151   6.081
22037WAT      O66352   9.149   3.546   8.160
22037WAT     H166353   9.051   3.526   8.163
22037WAT     H266354   9.201   3.463   8.182
22038WAT      O66355   4.995   3.029   9.371
22038WAT     H166356   5.093   3.049   9.377
22038WAT     H266357   4.943   3.099   9.419
22039WAT      O66358   8.792   0.735   8.933
22039WAT     H166359   8.827   0.688   8.852
22039WAT     H266360   8.776   0.668   9.006
22040WAT      O66361   9.708   2.700   3.337
22040WAT     H166362   9.743   2.635   3.269
22040WAT     H266363   9.703   2.791   3.295
22041WAT      O66364   6.617   0.875   7.282
22041WAT     H166365   6.568   0.794   7.250
22041WAT     H266366   6.616   0.877   7.382
22042WAT      O66367   7.653   9.126   7.759
22042WAT     H166368   7.606   9.066   7.694
22042WAT     H266369   7.749   9.100   7.765
22043WAT      O66370   0.024   1.292   2.314
22043WAT     H166371   0.003   1.384   2.280
22043WAT     H266372  -0.009   1.224   2.249
22044WAT      O66373   1.126   0.118   0.504
22044WAT     H166374   1.095   0.167   0.585
22044WAT     H266375   1.120   0.178   0.424
22045WAT      O66376   6.257   3.509   4.775
22045WAT     H166377   6.293   3.462   4.695
22045WAT     H266378   6.181   3.569   4.749
22046WAT      O66379   9.659   4.197   4.767
22046WAT     H166380   9.587   4.254   4.728
22046WAT     H266381   9.618   4.122   4.819
22047WAT      O66382   5.406   5.201   9.037
22047WAT     H166383   5.492   5.151   9.028
22047WAT     H266384   5.384   5.213   9.134
22048WAT      O66385   0.860   5.567   6.927
22048WAT     H166386   0.956   5.584   6.909
22048WAT     H266387   0.807   5.650   6.909
22049WAT      O66388   9.883   4.799   3.607
22049WAT     H166389   9.882   4.728   3.538
22049WAT     H266390   9.925   4.764   3.691
22050WAT      O66391   7.148   3.718   3.204
22050WAT     H166392   7.160   3.655   3.280
22050WAT     H266393   7.112   3.805   3.237
22051WAT      O66394   3.364   5.107   7.334
22051WAT     H166395   3.398   5.015   7.354
22051WAT     H266396   3.348   5.116   7.236
22052WAT      O66397   3.506   5.640   5.743
22052WAT     H166398   3.438   5.647   5.670
22052WAT     H266399   3.468   5.588   5.819
22053WAT      O66400   7.599   4.036   3.784
22053WAT     H166401   7.526   3.970   3.766
22053WAT     H266402   7.679   3.989   3.819
22054WAT      O66403   7.422   9.565   3.086
22054WAT     H166404   7.521   9.554   3.077
22054WAT     H266405   7.376   9.519   3.010
22055WAT      O66406   0.004   5.757   3.621
22055WAT     H166407   0.004   5.663   3.654
22055WAT     H266408   0.071   5.810   3.674
22056WAT      O66409   8.059   0.771   7.185
22056WAT     H166410   8.048   0.819   7.098
22056WAT     H266411   8.044   0.835   7.260
22057WAT      O66412   6.657   5.433   9.043
22057WAT     H166413   6.636   5.525   9.010
22057WAT     H266414   6.613   5.418   9.131
22058WAT      O66415   6.850   6.104   2.725
22058WAT     H166416   6.904   6.158   2.661
22058WAT     H266417   6.784   6.047   2.674
22059WAT      O66418   0.213   7.845   1.808
22059WAT     H166419   0.239   7.789   1.888
22059WAT     H266420   0.115   7.861   1.810
22060WAT      O66421   8.799   2.950   4.247
22060WAT     H166422   8.811   2.890   4.168
22060WAT     H266423   8.877   2.939   4.309
22061WAT      O66424   8.617   1.037   4.421
22061WAT     H166425   8.553   1.005   4.490
22061WAT     H266426   8.649   1.129   4.444
22062WAT      O66427   1.424   7.015   7.496
22062WAT     H166428   1.521   7.042   7.491
22062WAT     H266429   1.372   7.062   7.426
22063WAT      O66430   1.036   3.950   7.731
22063WAT     H166431   0.958   3.887   7.734
22063WAT     H266432   1.009   4.038   7.768
22064WAT      O66433   4.320   7.067   8.025
22064WAT     H166434   4.310   7.164   8.005
22064WAT     H266435   4.414   7.038   8.006
22065WAT      O66436   4.278   0.838   4.609
22065WAT     H166437   4.282   0.738   4.611
22065WAT     H266438   4.200   0.869   4.662
22066WAT      O66439   0.160   5.094   0.320
22066WAT     H166440   0.143   5.033   0.398
22066WAT     H266441   0.074   5.110   0.271
22067WAT      O66442   8.954   3.665   2.456
22067WAT     H166443   8.914   3.733   2.394
22067WAT     H266444   8.994   3.712   2.534
22068WAT      O66445   7.882   1.078   2.446
22068WAT     H166446   7.917   1.090   2.353
22068WAT     H266447   7.942   1.124   2.511
22069WAT      O66448   4.880   1.244   2.686
22069WAT     H166449   4.792   1.287   2.664
22069WAT     H266450   4.930   1.303   2.749
22070WAT      O66451   5.474   3.744   8.119
22070WAT     H166452   5.574   3.741   8.127
22070WAT     H266453   5.442   3.658   8.079
22071WAT      O66454   8.326   5.925   2.869
22071WAT     H166455   8.414   5.882   2.847
22071WAT     H266456   8.262   5.854   2.898
22072WAT      O66457   6.407   1.778   3.069
22072WAT     H166458   6.393   1.705   3.135
22072WAT     H266459   6.414   1.740   2.977
22073WAT      O66460   4.894   2.000   6.359
22073WAT     H166461   4.838   2.083   6.358
22073WAT     H266462   4.946   1.993   6.274
22074WAT      O66463   9.293   8.495   5.805
22074WAT     H166464   9.331   8.435   5.735
22074WAT     H266465   9.210   8.454   5.842
22075WAT      O66466   6.751   9.097   3.743
22075WAT     H166467   6.654   9.082   3.762
22075WAT     H266468   6.761   9.142   3.654
22076WAT      O66469   7.639   1.836   1.180
22076WAT     H166470   7.604   1.909   1.121
22076WAT     H266471   7.738   1.846   1.190
22077WAT      O66472   1.427   2.350   3.792
22077WAT     H166473   1.355   2.282   3.806
22077WAT     H266474   1.395   2.420   3.729
22078WAT      O66475   9.659   7.988   5.026
22078WAT     H166476   9.748   7.995   5.070
22078WAT     H266477   9.595   7.942   5.087
22079WAT      O66478   1.158   4.128   7.230
22079WAT     H166479   1.231   4.077   7.184
22079WAT     H266480   1.124   4.074   7.307
22080WAT      O66481   2.115   4.400   6.432
22080WAT     H166482   2.017   4.381   6.426
22080WAT     H266483   2.129   4.497   6.448
22081WAT      O66484   8.861   9.334   5.871
22081WAT     H166485   8.826   9.421   5.906
22081WAT     H266486   8.867   9.337   5.772
22082WAT      O66487   8.714   7.249   5.434
22082WAT     H166488   8.630   7.216   5.477
22082WAT     H266489   8.734   7.194   5.353
22083WAT      O66490   5.470   8.341   9.075
22083WAT     H166491   5.414   8.411   9.032
22083WAT     H266492   5.417   8.297   9.149
22084WAT      O66493   8.358   5.608   8.918
22084WAT     H166494   8.458   5.614   8.906
22084WAT     H266495   8.316   5.693   8.888
22085WAT      O66496   0.246   8.737   9.252
22085WAT     H166497   0.323   8.734   9.316
22085WAT     H266498   0.243   8.826   9.208
22086WAT      O66499   7.345   3.679   4.384
22086WAT     H166500   7.294   3.755   4.425
22086WAT     H266501   7.323   3.673   4.286
22087WAT      O66502   5.713   8.832   3.407
22087WAT     H166503   5.775   8.778   3.350
22087WAT     H266504   5.655   8.888   3.349
22088WAT      O66505   9.201   0.217   2.365
22088WAT     H166506   9.269   0.282   2.397
22088WAT     H266507   9.112   0.240   2.405
22089WAT      O66508   0.227   8.229   5.536
22089WAT     H166509   0.310   8.236   5.592
22089WAT     H266510   0.215   8.313   5.484
22090WAT      O66511   9.246   2.927   6.232
22090WAT     H166512   9.228   2.972   6.319
22090WAT     H266513   9.326   2.868   6.240
22091WAT      O66514   1.655   9.217   2.946
22091WAT     H166515   1.715   9.172   2.880
22091WAT     H266516   1.669   9.316   2.943
22092WAT      O66517   7.588   8.988   5.712
22092WAT     H166518   7.546   9.077   5.698
22092WAT     H266519   7.682   9.001   5.743
22093WAT      O66520   6.270   9.608   6.503
22093WAT     H166521   6.261   9.515   6.466
22093WAT     H266522   6.187   9.660   6.483
22094WAT      O66523   8.753   8.476   8.527
22094WAT     H166524   8.661   8.506   8.551
22094WAT     H266525   8.798   8.547   8.472
22095WAT      O66526   9.834   0.218   2.652
22095WAT     H166527   9.775   0.144   2.686
22095WAT     H266528   9.923   0.214   2.699
22096WAT      O66529   6.609   8.821   6.313
22096WAT     H166530   6.660   8.882   6.253
22096WAT     H266531   6.594   8.865   6.401
22097WAT      O66532   0.893   9.699   4.378
22097WAT     H166533   0.859   9.612   4.412
22097WAT     H266534   0.834   9.731   4.303
22098WAT      O66535   8.650   6.370   3.649
22098WAT     H166536   8.688   6.278   3.648
22098WAT     H266537   8.591   6.381   3.730
22099WAT      O66538   3.836   0.015   0.233
22099WAT     H166539   3.851   0.061   0.320
22099WAT     H266540   3.805   0.081   0.165
22100WAT      O66541   4.719   1.725   0.024
22100WAT     H166542   4.793   1.776  -0.018
22100WAT     H266543   4.635   1.735  -0.030
22101WAT      O66544   6.720   7.999   0.879
22101WAT     H166545   6.650   7.993   0.809
22101WAT     H266546   6.753   8.093   0.887
22102WAT      O66547   3.065   5.959   1.260
22102WAT     H166548   3.008   5.884   1.293
22102WAT     H266549   3.140   5.921   1.206
22103WAT      O66550   3.641   8.004   4.220
22103WAT     H166551   3.686   8.090   4.241
22103WAT     H266552   3.647   7.943   4.299
22104WAT      O66553   8.296   1.245   5.168
22104WAT     H166554   8.280   1.295   5.083
22104WAT     H266555   8.294   1.308   5.245
22105WAT      O66556   9.031   1.801   1.042
22105WAT     H166557   9.085   1.821   1.124
22105WAT     H266558   8.947   1.856   1.044
22106WAT      O66559   1.323   2.638   3.250
22106WAT     H166560   1.280   2.551   3.225
22106WAT     H266561   1.412   2.646   3.206
22107WAT      O66562   3.589   3.276   5.913
22107WAT     H166563   3.631   3.249   5.826
22107WAT     H266564   3.489   3.282   5.901
22108WAT      O66565   8.910   5.822   2.345
22108WAT     H166566   8.968   5.774   2.411
22108WAT     H266567   8.941   5.800   2.252
22109WAT      O66568   2.382   9.079   8.100
22109WAT     H166569   2.327   9.057   8.181
22109WAT     H266570   2.323   9.080   8.019
22110WAT      O66571   2.586   2.621   8.895
22110WAT     H166572   2.537   2.560   8.957
22110WAT     H266573   2.677   2.583   8.877
22111WAT      O66574   7.959   9.673   2.789
22111WAT     H166575   7.914   9.661   2.701
22111WAT     H266576   8.056   9.694   2.775
22112WAT      O66577   0.274   8.194   5.215
22112WAT     H166578   0.364   8.236   5.198
22112WAT     H266579   0.269   8.164   5.310
22113WAT      O66580   8.160   4.803   9.868
22113WAT     H166581   8.170   4.789   9.770
22113WAT     H266582   8.240   4.853   9.903
22114WAT      O66583   8.719   2.962   8.264
22114WAT     H166584   8.680   2.941   8.353
22114WAT     H266585   8.750   2.878   8.220
22115WAT      O66586   5.895   9.529   5.080
22115WAT     H166587   5.887   9.535   4.981
22115WAT     H266588   5.978   9.576   5.110
22116WAT      O66589   4.326   8.723   6.365
22116WAT     H166590   4.421   8.733   6.335
22116WAT     H266591   4.305   8.793   6.433
22117WAT      O66592   5.688   1.649   9.514
22117WAT     H166593   5.758   1.648   9.585
22117WAT     H266594   5.685   1.560   9.468
22118WAT      O66595   6.982   6.032   8.343
22118WAT     H166596   6.949   5.953   8.292
22118WAT     H266597   7.070   6.011   8.384
22119WAT      O66598   7.809   4.917   2.637
22119WAT     H166599   7.884   4.862   2.599
22119WAT     H266600   7.813   4.914   2.737
22120WAT      O66601   9.486   0.814   8.232
22120WAT     H166602   9.494   0.742   8.163
22120WAT     H266603   9.394   0.813   8.271
22121WAT      O66604   3.650   6.999   0.133
22121WAT     H166605   3.735   6.951   0.156
22121WAT     H266606   3.596   6.942   0.071
22122WAT      O66607   1.937   7.332   0.849
22122WAT     H166608   2.023   7.381   0.840
22122WAT     H266609   1.922   7.274   0.769
22123WAT      O66610   1.520   2.885   1.587
22123WAT     H166611   1.536   2.789   1.608
22123WAT     H266612   1.481   2.893   1.495
22124WAT      O66613   3.395   7.643   0.902
22124WAT     H166614   3.369   7.739   0.902
22124WAT     H266615   3.468   7.627   0.836
22125WAT      O66616   7.562   6.714   9.534
22125WAT     H166617   7.570   6.725   9.633
22125WAT     H266618   7.609   6.789   9.488
22126WAT      O66619   5.541   1.938   5.910
22126WAT     H166620   5.461   1.967   5.858
22126WAT     H266621   5.540   1.838   5.920
22127WAT      O66622   8.537   0.763   1.039
22127WAT     H166623   8.608   0.762   0.968
22127WAT     H266624   8.571   0.813   1.119
22128WAT      O66625   3.578   1.223   5.192
22128WAT     H166626   3.663   1.277   5.191
22128WAT     H266627   3.599   1.126   5.201
22129WAT      O66628   3.633   1.003   4.127
22129WAT     H166629   3.554   1.030   4.182
22129WAT     H266630   3.711   1.062   4.150
22130WAT      O66631   8.004   1.340   3.756
22130WAT     H166632   7.992   1.395   3.838
22130WAT     H266633   8.099   1.342   3.728
22131WAT      O66634   2.021   3.054   2.100
22131WAT     H166635   2.104   3.106   2.078
22131WAT     H266636   1.941   3.113   2.092
22132WAT      O66637   1.679   1.753   2.888
22132WAT     H166638   1.762   1.808   2.888
22132WAT     H266639   1.702   1.657   2.897
22133WAT      O66640   7.786   5.238   5.671
22133WAT     H166641   7.705   5.190   5.639
22133WAT     H266642   7.787   5.238   5.771
22134WAT      O66643   5.624   3.070   2.848
22134WAT     H166644   5.572   3.152   2.826
22134WAT     H266645   5.718   3.080   2.814
22135WAT      O66646   0.439   7.137   7.620
22135WAT     H166647   0.391   7.212   7.574
22135WAT     H266648   0.375   7.086   7.676
22136WAT      O66649   7.121   3.148   8.525
22136WAT     H166650   7.131   3.114   8.618
22136WAT     H266651   7.184   3.225   8.510
22137WAT      O66652   1.768   4.392   2.825
22137WAT     H166653   1.796   4.480   2.786
22137WAT     H266654   1.717   4.407   2.910
22138WAT      O66655   4.443   9.746   8.983
22138WAT     H166656   4.479   9.732   8.890
22138WAT     H266657   4.362   9.688   8.996
22139WAT      O66658   2.316   7.848   3.977
22139WAT     H166659   2.379   7.924   3.991
22139WAT     H266660   2.352   7.788   3.905
22140WAT      O66661   8.751   7.133   3.991
22140WAT     H166662   8.771   7.036   3.980
22140WAT     H266663   8.804   7.169   4.068
22141WAT      O66664   3.880   6.944   4.619
22141WAT     H166665   3.923   6.854   4.612
22141WAT     H266666   3.789   6.933   4.659
22142WAT      O66667   6.692   9.496   2.380
22142WAT     H166668   6.694   9.424   2.449
22142WAT     H266669   6.634   9.466   2.303
22143WAT      O66670   0.067   3.727   9.178
22143WAT     H166671  -0.015   3.769   9.139
22143WAT     H266672   0.074   3.632   9.145
22144WAT      O66673   3.440   0.890   4.464
22144WAT     H166674   3.411   0.795   4.466
22144WAT     H266675   3.539   0.896   4.481
22145WAT      O66676   9.691   2.101   2.405
22145WAT     H166677   9.760   2.066   2.468
22145WAT     H266678   9.618   2.034   2.396
22146WAT      O66679   8.111   9.133   6.055
22146WAT     H166680   8.017   9.143   6.024
22146WAT     H266681   8.117   9.153   6.153
22147WAT      O66682   7.684   1.265   4.300
22147WAT     H166683   7.657   1.241   4.206
22147WAT     H266684   7.621   1.334   4.335
22148WAT      O66685   5.259   8.998   0.325
22148WAT     H166686   5.333   9.057   0.359
22148WAT     H266687   5.266   8.991   0.225
22149WAT      O66688   1.412   1.424   7.615
22149WAT     H166689   1.370   1.446   7.703
22149WAT     H266690   1.510   1.408   7.628
22150WAT      O66691   6.888   5.641   0.484
22150WAT     H166692   6.869   5.670   0.578
22150WAT     H266693   6.811   5.668   0.425
22151WAT      O66694   6.340   5.794   8.803
22151WAT     H166695   6.428   5.781   8.757
22151WAT     H266696   6.292   5.872   8.763
22152WAT      O66697   8.794   4.371   5.662
22152WAT     H166698   8.862   4.388   5.733
22152WAT     H266699   8.812   4.283   5.619
22153WAT      O66700   6.113   7.153   6.617
22153WAT     H166701   6.041   7.085   6.624
22153WAT     H266702   6.153   7.170   6.707
22154WAT      O66703   9.386   7.660   6.133
22154WAT     H166704   9.288   7.644   6.140
22154WAT     H266705   9.406   7.713   6.050
22155WAT      O66706   7.182   5.395   2.236
22155WAT     H166707   7.198   5.491   2.254
22155WAT     H266708   7.094   5.367   2.274
22156WAT      O66709   8.021   7.941   5.693
22156WAT     H166710   8.061   8.019   5.645
22156WAT     H266711   8.089   7.902   5.755
22157WAT      O66712   2.056   7.345   8.460
22157WAT     H166713   1.971   7.330   8.510
22157WAT     H266714   2.044   7.315   8.365
22158WAT      O66715   5.066   1.048   3.996
22158WAT     H166716   5.086   1.146   3.996
22158WAT     H266717   4.993   1.029   4.061
22159WAT      O66718   7.165   6.259   0.362
22159WAT     H166719   7.199   6.259   0.456
22159WAT     H266720   7.091   6.192   0.352
22160WAT      O66721   6.997   6.922   5.904
22160WAT     H166722   6.966   6.832   5.934
22160WAT     H266723   7.044   6.969   5.979
22161WAT      O66724   2.859   7.241   5.159
22161WAT     H166725   2.934   7.213   5.218
22161WAT     H266726   2.806   7.161   5.132
22162WAT      O66727   4.058   1.871   9.507
22162WAT     H166728   4.007   1.947   9.467
22162WAT     H266729   4.067   1.798   9.439
22163WAT      O66730   6.989   9.090   4.371
22163WAT     H166731   7.055   9.020   4.343
22163WAT     H266732   7.036   9.158   4.428
22164WAT      O66733   4.920   7.249   7.717
22164WAT     H166734   4.822   7.267   7.707
22164WAT     H266735   4.942   7.240   7.814
22165WAT      O66736   3.743   4.886   9.726
22165WAT     H166737   3.673   4.872   9.656
22165WAT     H266738   3.745   4.983   9.751
22166WAT      O66739   8.393   0.633   3.819
22166WAT     H166740   8.426   0.640   3.725
22166WAT     H266741   8.310   0.577   3.822
22167WAT      O66742   5.118   8.284   3.094
22167WAT     H166743   5.202   8.232   3.078
22167WAT     H266744   5.100   8.342   3.015
22168WAT      O66745   8.711   0.369   1.576
22168WAT     H166746   8.711   0.390   1.478
22168WAT     H266747   8.617   0.366   1.609
22169WAT      O66748   0.901   2.470   7.439
22169WAT     H166749   0.804   2.482   7.456
22169WAT     H266750   0.924   2.373   7.443
22170WAT      O66751   7.123   0.176   6.391
22170WAT     H166752   7.109   0.262   6.441
22170WAT     H266753   7.039   0.122   6.393
22171WAT      O66754   8.817   5.594   0.817
22171WAT     H166755   8.792   5.685   0.783
22171WAT     H266756   8.916   5.582   0.810
22172WAT      O66757   3.351   8.436   8.766
22172WAT     H166758   3.388   8.527   8.748
22172WAT     H266759   3.256   8.444   8.797
22173WAT      O66760   8.162   7.086   9.889
22173WAT     H166761   8.071   7.093   9.931
22173WAT     H266762   8.196   6.993   9.900
22174WAT      O66763   5.022   2.166   3.313
22174WAT     H166764   4.978   2.090   3.266
22174WAT     H266765   5.106   2.192   3.265
22175WAT      O66766   6.875   2.112   6.664
22175WAT     H166767   6.950   2.114   6.731
22175WAT     H266768   6.836   2.204   6.656
22176WAT      O66769   9.163   4.456   4.770
22176WAT     H166770   9.232   4.522   4.799
22176WAT     H266771   9.185   4.366   4.807
22177WAT      O66772   2.217   8.823   3.174
22177WAT     H166773   2.132   8.791   3.215
22177WAT     H266774   2.289   8.755   3.189
22178WAT      O66775   4.959   0.465   6.999
22178WAT     H166776   4.933   0.518   7.080
22178WAT     H266777   5.014   0.386   7.027
22179WAT      O66778   0.706   8.040   7.421
22179WAT     H166779   0.624   8.059   7.475
22179WAT     H266780   0.781   8.017   7.483
22180WAT      O66781   7.769   4.387   9.693
22180WAT     H166782   7.864   4.415   9.675
22180WAT     H266783   7.723   4.368   9.606
22181WAT      O66784   1.112   6.162   7.003
22181WAT     H166785   1.097   6.243   6.946
22181WAT     H266786   1.028   6.108   7.006
22182WAT      O66787   6.745   5.016   5.908
22182WAT     H166788   6.743   4.927   5.863
22182WAT     H266789   6.819   5.018   5.975
22183WAT      O66790   1.331   3.119   1.183
22183WAT     H166791   1.253   3.079   1.231
22183WAT     H266792   1.396   3.157   1.249
22184WAT      O66793   2.980   7.638   5.413
22184WAT     H166794   3.028   7.570   5.357
22184WAT     H266795   2.981   7.609   5.509
22185WAT      O66796   5.415   6.920   4.662
22185WAT     H166797   5.368   7.004   4.633
22185WAT     H266798   5.349   6.858   4.704
22186WAT      O66799   7.776   0.062   7.480
22186WAT     H166800   7.858   0.095   7.526
22186WAT     H266801   7.780  -0.038   7.472
22187WAT      O66802   2.358   5.203   8.225
22187WAT     H166803   2.365   5.128   8.290
22187WAT     H266804   2.262   5.220   8.202
22188WAT      O66805   9.231   8.586   3.100
22188WAT     H166806   9.211   8.605   3.197
22188WAT     H266807   9.296   8.510   3.094
22189WAT      O66808   2.186   5.121   4.789
22189WAT     H166809   2.175   5.078   4.700
22189WAT     H266810   2.097   5.131   4.833
22190WAT      O66811   0.523   2.987   6.206
22190WAT     H166812   0.617   2.994   6.171
22190WAT     H266813   0.487   3.079   6.220
22191WAT      O66814   2.155   3.136   5.540
22191WAT     H166815   2.080   3.095   5.488
22191WAT     H266816   2.202   3.066   5.593
22192WAT      O66817   0.202   6.884   1.516
22192WAT     H166818   0.129   6.899   1.582
22192WAT     H266819   0.164   6.841   1.434
22193WAT      O66820   2.837   9.201   8.714
22193WAT     H166821   2.806   9.296   8.724
22193WAT     H266822   2.925   9.199   8.668
22194WAT      O66823   5.970   5.640   2.668
22194WAT     H166824   6.045   5.653   2.732
22194WAT     H266825   5.947   5.727   2.625
22195WAT      O66826   3.292   3.699   1.241
22195WAT     H166827   3.345   3.732   1.318
22195WAT     H266828   3.233   3.772   1.207
22196WAT      O66829   7.956   1.697   1.348
22196WAT     H166830   7.918   1.785   1.319
22196WAT     H266831   7.929   1.627   1.282
22197WAT      O66832   0.817   4.280   3.768
22197WAT     H166833   0.770   4.192   3.765
22197WAT     H266834   0.880   4.282   3.846
22198WAT      O66835   8.065   1.431   0.200
22198WAT     H166836   8.131   1.381   0.144
22198WAT     H266837   7.993   1.369   0.229
22199WAT      O66838   4.697   2.870   7.961
22199WAT     H166839   4.621   2.835   7.906
22199WAT     H266840   4.771   2.901   7.901
22200WAT      O66841   3.932   0.957   7.101
22200WAT     H166842   3.839   0.970   7.134
22200WAT     H266843   3.986   1.039   7.119
22201WAT      O66844   4.066   8.572   6.965
22201WAT     H166845   4.096   8.649   6.910
22201WAT     H266846   4.007   8.512   6.911
22202WAT      O66847   0.221   0.717   6.684
22202WAT     H166848   0.179   0.691   6.597
22202WAT     H266849   0.303   0.771   6.667
22203WAT      O66850   2.757   8.345   0.794
22203WAT     H166851   2.748   8.293   0.879
22203WAT     H266852   2.802   8.432   0.813
22204WAT      O66853   5.745   6.338   5.360
22204WAT     H166854   5.817   6.401   5.388
22204WAT     H266855   5.779   6.244   5.366
22205WAT      O66856   0.942   1.407   7.546
22205WAT     H166857   0.905   1.343   7.479
22205WAT     H266858   0.985   1.356   7.621
22206WAT      O66859   3.396   2.790   0.398
22206WAT     H166860   3.347   2.703   0.397
22206WAT     H266861   3.487   2.777   0.438
22207WAT      O66862   5.150   0.199   5.404
22207WAT     H166863   5.135   0.298   5.398
22207WAT     H266864   5.198   0.178   5.490
22208WAT      O66865   8.128   0.054   1.491
22208WAT     H166866   8.059  -0.015   1.513
22208WAT     H266867   8.111   0.089   1.399
22209WAT      O66868   1.249   1.419   4.720
22209WAT     H166869   1.152   1.440   4.732
22209WAT     H266870   1.302   1.456   4.796
22210WAT      O66871   9.683   9.646   9.339
22210WAT     H166872   9.642   9.685   9.421
22210WAT     H266873   9.665   9.706   9.261
22211WAT      O66874   3.728   7.190   5.190
22211WAT     H166875   3.789   7.175   5.268
22211WAT     H266876   3.656   7.121   5.190
22212WAT      O66877   2.428   1.425   7.989
22212WAT     H166878   2.431   1.356   7.917
22212WAT     H266879   2.366   1.499   7.962
22213WAT      O66880   3.808   8.084   3.141
22213WAT     H166881   3.857   8.069   3.055
22213WAT     H266882   3.812   8.001   3.196
22214WAT      O66883   8.733   2.474   5.021
22214WAT     H166884   8.705   2.513   5.109
22214WAT     H266885   8.752   2.377   5.032
22215WAT      O66886   0.644   0.562   2.420
22215WAT     H166887   0.559   0.598   2.384
22215WAT     H266888   0.666   0.607   2.506
22216WAT      O66889   0.823   8.787   7.368
22216WAT     H166890   0.749   8.854   7.363
22216WAT     H266891   0.847   8.756   7.276
22217WAT      O66892   5.575   9.509   1.659
22217WAT     H166893   5.513   9.443   1.617
22217WAT     H266894   5.564   9.506   1.759
22218WAT      O66895   0.162   0.315   2.218
22218WAT     H166896   0.094   0.320   2.292
22218WAT     H266897   0.187   0.407   2.190
22219WAT      O66898   0.611   7.344   8.266
22219WAT     H166899   0.596   7.257   8.218
22219WAT     H266900   0.579   7.336   8.361
22220WAT      O66901   0.668   4.726   9.494
22220WAT     H166902   0.748   4.715   9.553
22220WAT     H266903   0.605   4.651   9.509
22221WAT      O66904   9.607   0.816   2.641
22221WAT     H166905   9.583   0.736   2.696
22221WAT     H266906   9.555   0.816   2.556
22222WAT      O66907   5.278   8.433   2.632
22222WAT     H166908   5.368   8.461   2.599
22222WAT     H266909   5.209   8.454   2.564
22223WAT      O66910   6.851   3.724   9.261
22223WAT     H166911   6.919   3.755   9.194
22223WAT     H266912   6.766   3.774   9.248
22224WAT      O66913   4.275   4.729   0.831
22224WAT     H166914   4.223   4.813   0.818
22224WAT     H266915   4.214   4.650   0.816
22225WAT      O66916   3.497   8.900   2.847
22225WAT     H166917   3.413   8.865   2.805
22225WAT     H266918   3.478   8.984   2.896
22226WAT      O66919   5.086   7.568   5.481
22226WAT     H166920   5.134   7.522   5.556
22226WAT     H266921   5.110   7.665   5.481
22227WAT      O66922   5.266   3.520   5.633
22227WAT     H166923   5.349   3.576   5.638
22227WAT     H266924   5.191   3.566   5.680
22228WAT      O66925   2.410   4.885   2.639
22228WAT     H166926   2.311   4.896   2.632
22228WAT     H266927   2.454   4.974   2.623
22229WAT      O66928   7.589   5.726   8.865
22229WAT     H166929   7.653   5.760   8.934
22229WAT     H266930   7.526   5.661   8.908
22230WAT      O66931   2.703   7.854   7.012
22230WAT     H166932   2.796   7.821   6.996
22230WAT     H266933   2.679   7.922   6.942
22231WAT      O66934   0.681   4.005   1.163
22231WAT     H166935   0.650   4.066   1.236
22231WAT     H266936   0.603   3.960   1.121
22232WAT      O66937   8.590   3.002   0.806
22232WAT     H166938   8.523   3.043   0.744
22232WAT     H266939   8.679   3.000   0.761
22233WAT      O66940   1.478   6.487   2.430
22233WAT     H166941   1.564   6.456   2.470
22233WAT     H266942   1.474   6.460   2.334
22234WAT      O66943   0.629   5.122   4.097
22234WAT     H166944   0.716   5.167   4.120
22234WAT     H266945   0.564   5.136   4.171
22235WAT      O66946   2.891   2.640   9.519
22235WAT     H166947   2.930   2.691   9.596
22235WAT     H266948   2.792   2.655   9.516
22236WAT      O66949   1.024   8.720   5.187
22236WAT     H166950   0.930   8.716   5.152
22236WAT     H266951   1.023   8.753   5.282
22237WAT      O66952   0.580   8.515   7.704
22237WAT     H166953   0.555   8.558   7.790
22237WAT     H266954   0.671   8.546   7.676
22238WAT      O66955   2.211   9.536   7.552
22238WAT     H166956   2.240   9.556   7.645
22238WAT     H266957   2.259   9.597   7.488
22239WAT      O66958   9.659   7.695   9.763
22239WAT     H166959   9.749   7.659   9.788
22239WAT     H266960   9.650   7.695   9.663
22240WAT      O66961   6.659   4.299   1.230
22240WAT     H166962   6.592   4.227   1.212
22240WAT     H266963   6.684   4.343   1.144
22241WAT      O66964   3.978   0.798   9.650
22241WAT     H166965   4.042   0.744   9.704
22241WAT     H266966   3.958   0.884   9.698
22242WAT      O66967   5.223   9.326   5.761
22242WAT     H166968   5.208   9.283   5.850
22242WAT     H266969   5.153   9.295   5.697
22243WAT      O66970   0.474   3.006   7.853
22243WAT     H166971   0.465   2.953   7.937
22243WAT     H266972   0.398   3.070   7.845
22244WAT      O66973   1.799   0.495   2.575
22244WAT     H166974   1.862   0.569   2.554
22244WAT     H266975   1.707   0.532   2.589
22245WAT      O66976   1.386   0.448   7.763
22245WAT     H166977   1.470   0.396   7.747
22245WAT     H266978   1.371   0.459   7.861
22246WAT      O66979   2.485   8.591   8.656
22246WAT     H166980   2.419   8.631   8.720
22246WAT     H266981   2.490   8.647   8.573
22247WAT      O66982   8.170   6.237   0.010
22247WAT     H166983   8.262   6.258   0.041
22247WAT     H266984   8.126   6.175   0.075
22248WAT      O66985   1.840   7.346   3.634
22248WAT     H166986   1.925   7.310   3.673
22248WAT     H266987   1.815   7.431   3.681
22249WAT      O66988   3.592   6.989   7.671
22249WAT     H166989   3.552   6.960   7.758
22249WAT     H266990   3.690   6.971   7.672
22250WAT      O66991   7.837   3.778   0.832
22250WAT     H166992   7.811   3.688   0.867
22250WAT     H266993   7.815   3.784   0.734
22251WAT      O66994   1.468   1.572   1.069
22251WAT     H166995   1.385   1.532   1.107
22251WAT     H266996   1.512   1.506   1.008
22252WAT      O66997   3.680   3.714   5.871
22252WAT     H166998   3.686   3.619   5.901
22252WAT     H266999   3.738   3.727   5.791
22253WAT      O67000   9.636   8.326   8.952
22253WAT     H167001   9.635   8.356   9.047
22253WAT     H267002   9.702   8.381   8.900
22254WAT      O67003   3.896   1.375   2.670
22254WAT     H167004   3.912   1.280   2.697
22254WAT     H267005   3.833   1.376   2.592
22255WAT      O67006   3.429   3.132   4.547
22255WAT     H167007   3.441   3.080   4.631
22255WAT     H267008   3.511   3.186   4.528
22256WAT      O67009   3.171   8.243   9.842
22256WAT     H167010   3.209   8.172   9.903
22256WAT     H267011   3.157   8.327   9.894
22257WAT      O67012   8.880   9.101   8.729
22257WAT     H167013   8.943   9.146   8.665
22257WAT     H267014   8.883   9.002   8.714
22258WAT      O67015   4.852   9.290   5.984
22258WAT     H167016   4.838   9.225   5.909
22258WAT     H267017   4.849   9.242   6.071
22259WAT      O67018   0.191   9.573   7.698
22259WAT     H167019   0.235   9.553   7.786
22259WAT     H267020   0.194   9.672   7.681
22260WAT      O67021   5.195   5.865   5.059
22260WAT     H167022   5.259   5.855   4.983
22260WAT     H267023   5.245   5.872   5.145
22261WAT      O67024   5.984   4.037   5.939
22261WAT     H167025   6.013   3.945   5.914
22261WAT     H267026   6.058   4.083   5.989
22262WAT      O67027   7.695   3.290   3.729
22262WAT     H167028   7.727   3.312   3.822
22262WAT     H267029   7.607   3.243   3.735
22263WAT      O67030   7.918   9.668   5.308
22263WAT     H167031   7.949   9.735   5.240
22263WAT     H267032   7.819   9.670   5.314
22264WAT      O67033   6.643   2.927   3.176
22264WAT     H167034   6.638   2.906   3.078
22264WAT     H267035   6.646   3.026   3.189
22265WAT      O67036   1.440   8.430   1.842
22265WAT     H167037   1.490   8.515   1.826
22265WAT     H267038   1.398   8.432   1.933
22266WAT      O67039   1.966   7.537   6.561
22266WAT     H167040   2.022   7.565   6.640
22266WAT     H267041   2.026   7.501   6.490
22267WAT      O67042   3.078   5.516   8.584
22267WAT     H167043   3.041   5.445   8.644
22267WAT     H267044   3.007   5.548   8.522
22268WAT      O67045   8.500   3.638   7.136
22268WAT     H167046   8.554   3.575   7.081
22268WAT     H267047   8.546   3.653   7.224
22269WAT      O67048   9.237   0.541   5.590
22269WAT     H167049   9.294   0.603   5.536
22269WAT     H267050   9.222   0.457   5.539
22270WAT      O67051   5.650   1.393   3.113
22270WAT     H167052   5.591   1.325   3.156
22270WAT     H267053   5.709   1.349   3.046
22271WAT      O67054   5.201   2.151   7.977
22271WAT     H167055   5.279   2.214   7.982
22271WAT     H267056   5.119   2.202   7.952
22272WAT      O67057   8.486   5.022   7.389
22272WAT     H167058   8.508   4.934   7.347
22272WAT     H267059   8.464   5.008   7.486
22273WAT      O67060   3.658   8.105   5.652
22273WAT     H167061   3.621   8.085   5.562
22273WAT     H267062   3.719   8.184   5.645
22274WAT      O67063   7.243   2.875   6.797
22274WAT     H167064   7.325   2.906   6.845
22274WAT     H267065   7.224   2.780   6.820
22275WAT      O67066   2.279   2.115   7.226
22275WAT     H167067   2.317   2.141   7.315
22275WAT     H267068   2.333   2.041   7.187
22276WAT      O67069   3.160   9.653   5.565
22276WAT     H167070   3.144   9.558   5.592
22276WAT     H267071   3.139   9.713   5.642
22277WAT      O67072   3.458   4.504   9.119
22277WAT     H167073   3.389   4.444   9.159
22277WAT     H267074   3.442   4.598   9.148
22278WAT      O67075   4.697   5.718   3.349
22278WAT     H167076   4.691   5.689   3.444
22278WAT     H267077   4.786   5.693   3.311
22279WAT      O67078   9.038   3.856   6.578
22279WAT     H167079   8.968   3.813   6.635
22279WAT     H267080   9.088   3.923   6.632
22280WAT      O67081   0.370   6.275   8.268
22280WAT     H167082   0.353   6.193   8.215
22280WAT     H267083   0.462   6.309   8.249
22281WAT      O67084   6.221   4.618   5.933
22281WAT     H167085   6.159   4.697   5.933
22281WAT     H267086   6.281   4.623   6.013
22282WAT      O67087   6.058   6.153   9.658
22282WAT     H167088   6.078   6.245   9.693
22282WAT     H267089   6.113   6.085   9.706
22283WAT      O67090   2.444   7.610   8.985
22283WAT     H167091   2.495   7.614   9.070
22283WAT     H267092   2.408   7.518   8.972
22284WAT      O67093   6.189   0.230   7.524
22284WAT     H167094   6.276   0.206   7.481
22284WAT     H267095   6.145   0.147   7.558
22285WAT      O67096   2.513   2.722   6.833
22285WAT     H167097   2.502   2.802   6.891
22285WAT     H267098   2.469   2.643   6.877
22286WAT      O67099   3.589   1.574   6.664
22286WAT     H167100   3.500   1.620   6.657
22286WAT     H267101   3.627   1.562   6.572
22287WAT      O67102   4.910   1.570   8.991
22287WAT     H167103   4.959   1.586   8.905
22287WAT     H267104   4.827   1.518   8.973
22288WAT      O67105   1.644   4.548   6.162
22288WAT     H167106   1.551   4.555   6.128
22288WAT     H267107   1.642   4.522   6.259
22289WAT      O67108   7.648   3.047   0.122
22289WAT     H167109   7.588   2.981   0.078
22289WAT     H267110   7.601   3.089   0.200
22290WAT      O67111   8.196   5.279   4.452
22290WAT     H167112   8.143   5.319   4.376
22290WAT     H267113   8.289   5.260   4.421
22291WAT      O67114   9.557   1.972   1.784
22291WAT     H167115   9.463   1.967   1.818
22291WAT     H267116   9.581   1.885   1.741
22292WAT      O67117   5.684   0.897   2.437
22292WAT     H167118   5.655   0.992   2.448
22292WAT     H267119   5.772   0.884   2.483
22293WAT      O67120   5.359   1.928   2.510
22293WAT     H167121   5.414   1.881   2.579
22293WAT     H267122   5.419   1.964   2.439
22294WAT      O67123   4.830   3.725   6.520
22294WAT     H167124   4.845   3.824   6.521
22294WAT     H267125   4.918   3.678   6.527
22295WAT      O67126   6.406   7.510   2.504
22295WAT     H167127   6.484   7.465   2.459
22295WAT     H267128   6.436   7.547   2.592
22296WAT      O67129   8.320   3.001   4.519
22296WAT     H167130   8.320   2.938   4.597
22296WAT     H267131   8.354   3.091   4.549
22297WAT      O67132   7.150   6.554   4.906
22297WAT     H167133   7.244   6.558   4.874
22297WAT     H267134   7.148   6.517   4.999
22298WAT      O67135   3.932   1.129   8.439
22298WAT     H167136   4.017   1.181   8.429
22298WAT     H267137   3.952   1.040   8.479
22299WAT      O67138   7.236   5.044   2.914
22299WAT     H167139   7.223   5.143   2.904
22299WAT     H267140   7.319   5.027   2.968
22300WAT      O67141   2.158   2.865   3.304
22300WAT     H167142   2.206   2.818   3.231
22300WAT     H267143   2.221   2.927   3.351
22301WAT      O67144   1.367   6.806   4.343
22301WAT     H167145   1.342   6.730   4.403
22301WAT     H267146   1.295   6.875   4.344
22302WAT      O67147   2.757   9.262   1.275
22302WAT     H167148   2.715   9.317   1.347
22302WAT     H267149   2.824   9.317   1.226
22303WAT      O67150   1.790   2.130   2.014
22303WAT     H167151   1.828   2.107   1.924
22303WAT     H267152   1.698   2.090   2.023
22304WAT      O67153   0.366   0.531   5.944
22304WAT     H167154   0.355   0.519   6.042
22304WAT     H267155   0.303   0.601   5.911
22305WAT      O67156   6.742   9.827   8.432
22305WAT     H167157   6.803   9.846   8.508
22305WAT     H267158   6.706   9.912   8.395
22306WAT      O67159   1.251   3.787   8.333
22306WAT     H167160   1.267   3.849   8.256
22306WAT     H267161   1.220   3.699   8.300
22307WAT      O67162   8.234   3.297   8.690
22307WAT     H167163   8.333   3.315   8.692
22307WAT     H267164   8.194   3.323   8.777
22308WAT      O67165   4.527   4.156   0.193
22308WAT     H167166   4.471   4.236   0.211
22308WAT     H267167   4.475   4.089   0.141
22309WAT      O67168   5.504   0.903   7.209
22309WAT     H167169   5.559   0.895   7.126
22309WAT     H267170   5.556   0.866   7.286
22310WAT      O67171   3.783   4.588   1.846
22310WAT     H167172   3.811   4.493   1.860
22310WAT     H267173   3.798   4.640   1.930
22311WAT      O67174   1.670   5.301   0.051
22311WAT     H167175   1.713   5.283   0.139
22311WAT     H267176   1.666   5.399   0.035
22312WAT      O67177   4.521   9.789   5.452
22312WAT     H167178   4.591   9.766   5.520
22312WAT     H267179   4.437   9.818   5.499
22313WAT      O67180   7.850   6.693   7.662
22313WAT     H167181   7.893   6.775   7.700
22313WAT     H267182   7.860   6.694   7.562
22314WAT      O67183   1.871   4.661   3.618
22314WAT     H167184   1.803   4.676   3.690
22314WAT     H267185   1.840   4.704   3.533
22315WAT      O67186   7.438   4.380   9.854
22315WAT     H167187   7.420   4.299   9.799
22315WAT     H267188   7.437   4.356   9.951
22316WAT      O67189   9.450   1.178   3.491
22316WAT     H167190   9.408   1.126   3.417
22316WAT     H267191   9.380   1.236   3.534
22317WAT      O67192   2.956   8.501   5.168
22317WAT     H167193   3.041   8.497   5.116
22317WAT     H267194   2.896   8.426   5.140
22318WAT      O67195   5.720   1.428   9.365
22318WAT     H167196   5.766   1.385   9.288
22318WAT     H267197   5.621   1.412   9.358
22319WAT      O67198   1.474   4.556   8.039
22319WAT     H167199   1.411   4.589   8.110
22319WAT     H267200   1.431   4.566   7.949
22320WAT      O67201   4.228   9.584   5.631
22320WAT     H167202   4.160   9.535   5.685
22320WAT     H267203   4.268   9.657   5.686
22321WAT      O67204   5.198   3.834   8.764
22321WAT     H167205   5.134   3.843   8.839
22321WAT     H267206   5.290   3.862   8.794
22322WAT      O67207   3.182   3.774   5.533
22322WAT     H167208   3.147   3.867   5.545
22322WAT     H267209   3.110   3.715   5.497
22323WAT      O67210   1.521   8.753   0.976
22323WAT     H167211   1.573   8.794   1.051
22323WAT     H267212   1.425   8.778   0.984
22324WAT      O67213   0.286   7.053   6.800
22324WAT     H167214   0.317   7.110   6.876
22324WAT     H267215   0.266   7.110   6.720
22325WAT      O67216   9.372   8.069   1.910
22325WAT     H167217   9.384   8.105   1.817
22325WAT     H267218   9.392   8.141   1.976
22326WAT      O67219   6.213   8.793   5.973
22326WAT     H167220   6.174   8.708   6.010
22326WAT     H267221   6.299   8.813   6.020
22327WAT      O67222   5.382   5.437   1.954
22327WAT     H167223   5.439   5.519   1.961
22327WAT     H267224   5.286   5.462   1.964
22328WAT      O67225   0.739   4.006   4.413
22328WAT     H167226   0.782   4.037   4.497
22328WAT     H267227   0.646   4.043   4.408
22329WAT      O67228   4.459   2.133   5.949
22329WAT     H167229   4.470   2.036   5.972
22329WAT     H267230   4.549   2.175   5.938
22330WAT      O67231   5.851   2.979   1.342
22330WAT     H167232   5.815   2.904   1.285
22330WAT     H267233   5.927   3.023   1.295
22331WAT      O67234   5.630   1.353   5.025
22331WAT     H167235   5.638   1.258   4.997
22331WAT     H267236   5.538   1.369   5.063
22332WAT      O67237   3.328   8.625   5.581
22332WAT     H167238   3.263   8.677   5.636
22332WAT     H267239   3.421   8.659   5.597
22333WAT      O67240   7.984   5.474   1.209
22333WAT     H167241   8.064   5.427   1.247
22333WAT     H267242   7.913   5.407   1.187
22334WAT      O67243   6.801   3.639   5.512
22334WAT     H167244   6.760   3.712   5.568
22334WAT     H267245   6.813   3.557   5.568
22335WAT      O67246   1.951   4.796   4.552
22335WAT     H167247   2.036   4.847   4.566
22335WAT     H267248   1.906   4.783   4.641
22336WAT      O67249   7.655   6.644   1.270
22336WAT     H167250   7.750   6.667   1.248
22336WAT     H267251   7.654   6.585   1.351
22337WAT      O67252   5.315   8.215   7.176
22337WAT     H167253   5.264   8.300   7.160
22337WAT     H267254   5.413   8.235   7.179
22338WAT      O67255   4.232   0.974   7.829
22338WAT     H167256   4.219   1.063   7.871
22338WAT     H267257   4.260   0.985   7.734
22339WAT      O67258   5.102   8.470   1.529
22339WAT     H167259   5.132   8.517   1.612
22339WAT     H267260   5.176   8.471   1.462
22340WAT      O67261   6.537   5.461   2.724
22340WAT     H167262   6.519   5.391   2.793
22340WAT     H267263   6.455   5.478   2.671
22341WAT      O67264   9.398   7.103   0.598
22341WAT     H167265   9.376   7.152   0.514
22341WAT     H267266   9.344   7.140   0.673
22342WAT      O67267   1.475   7.469   3.803
22342WAT     H167268   1.406   7.484   3.874
22342WAT     H267269   1.512   7.557   3.774
22343WAT      O67270   2.835   4.185   2.877
22343WAT     H167271   2.852   4.130   2.959
22343WAT     H267272   2.921   4.197   2.827
22344WAT      O67273   8.906   2.285   8.721
22344WAT     H167274   8.879   2.226   8.645
22344WAT     H267275   8.968   2.356   8.687
22345WAT      O67276   5.755   0.637   3.044
22345WAT     H167277   5.727   0.542   3.036
22345WAT     H267278   5.721   0.689   2.965
22346WAT      O67279   9.293   0.956   1.367
22346WAT     H167280   9.376   0.901   1.378
22346WAT     H267281   9.257   0.945   1.274
22347WAT      O67282   0.355   6.947   2.183
22347WAT     H167283   0.264   6.916   2.212
22347WAT     H267284   0.354   7.047   2.175
22348WAT      O67285   0.048   4.641   0.473
22348WAT     H167286   0.111   4.568   0.448
22348WAT     H267287  -0.026   4.645   0.406
22349WAT      O67288   9.839   8.892   8.182
22349WAT     H167289   9.862   8.988   8.197
22349WAT     H267290   9.740   8.882   8.172
22350WAT      O67291   0.134   9.726   0.808
22350WAT     H167292   0.182   9.787   0.871
22350WAT     H267293   0.199   9.682   0.747
22351WAT      O67294   7.003   3.442   4.220
22351WAT     H167295   7.053   3.376   4.163
22351WAT     H267296   7.007   3.532   4.178
22352WAT      O67297   2.857   9.647   8.101
22352WAT     H167298   2.847   9.668   8.198
22352WAT     H267299   2.915   9.716   8.058
22353WAT      O67300   1.794   6.411   7.269
22353WAT     H167301   1.845   6.348   7.327
22353WAT     H267302   1.701   6.377   7.256
22354WAT      O67303   2.737   6.544   4.206
22354WAT     H167304   2.710   6.449   4.217
22354WAT     H267305   2.722   6.594   4.291
22355WAT      O67306   0.644   3.712   6.304
22355WAT     H167307   0.599   3.730   6.391
22355WAT     H267308   0.743   3.718   6.316
22356WAT      O67309   7.478   5.300   0.140
22356WAT     H167310   7.393   5.351   0.154
22356WAT     H267311   7.461   5.202   0.153
22357WAT      O67312   7.071   6.893   6.974
22357WAT     H167313   7.097   6.878   7.069
22357WAT     H267314   6.978   6.928   6.970
22358WAT      O67315   7.443   2.279   2.176
22358WAT     H167316   7.466   2.351   2.111
22358WAT     H267317   7.460   2.190   2.134
22359WAT      O67318   3.669   7.416   7.556
22359WAT     H167319   3.730   7.354   7.606
22359WAT     H267320   3.665   7.504   7.604
22360WAT      O67321   9.154   0.548   6.193
22360WAT     H167322   9.117   0.490   6.266
22360WAT     H267323   9.078   0.588   6.141
22361WAT      O67324   2.175   2.862   0.236
22361WAT     H167325   2.156   2.888   0.330
22361WAT     H267326   2.263   2.815   0.231
22362WAT      O67327   1.588   8.198   4.177
22362WAT     H167328   1.654   8.213   4.103
22362WAT     H267329   1.496   8.190   4.138
22363WAT      O67330   4.679   3.235   8.438
22363WAT     H167331   4.663   3.329   8.467
22363WAT     H267332   4.718   3.183   8.514
22364WAT      O67333   3.443   2.621   3.857
22364WAT     H167334   3.466   2.531   3.895
22364WAT     H267335   3.423   2.612   3.759
22365WAT      O67336   8.645   0.113   8.058
22365WAT     H167337   8.662   0.094   8.154
22365WAT     H267338   8.600   0.202   8.048
22366WAT      O67339   7.231   9.411   6.199
22366WAT     H167340   7.263   9.504   6.184
22366WAT     H267341   7.164   9.410   6.272
22367WAT      O67342   0.931   4.731   1.811
22367WAT     H167343   0.894   4.740   1.903
22367WAT     H267344   0.885   4.797   1.751
22368WAT      O67345   6.133   6.447   1.118
22368WAT     H167346   6.083   6.373   1.071
22368WAT     H267347   6.092   6.535   1.094
22369WAT      O67348   7.207   9.750   4.259
22369WAT     H167349   7.289   9.725   4.311
22369WAT     H267350   7.207   9.849   4.241
22370WAT      O67351   6.844   5.319   8.001
22370WAT     H167352   6.782   5.394   8.022
22370WAT     H267353   6.830   5.245   8.067
22371WAT      O67354   6.976   6.142   0.028
22371WAT     H167355   7.028   6.226   0.015
22371WAT     H267356   6.936   6.141   0.119
22372WAT      O67357   5.771   5.023   9.276
22372WAT     H167358   5.842   4.968   9.320
22372WAT     H267359   5.776   5.117   9.309
22373WAT      O67360   0.237   1.266   3.584
22373WAT     H167361   0.274   1.232   3.498
22373WAT     H267362   0.161   1.329   3.565
22374WAT      O67363   8.954   9.558   2.936
22374WAT     H167364   8.883   9.593   2.876
22374WAT     H267365   8.926   9.469   2.972
22375WAT      O67366   6.431   8.314   0.735
22375WAT     H167367   6.499   8.362   0.680
22375WAT     H267368   6.442   8.215   0.723
22376WAT      O67369   0.371   7.674   1.128
22376WAT     H167370   0.376   7.763   1.173
22376WAT     H267371   0.452   7.620   1.153
22377WAT      O67372   3.311   7.671   7.423
22377WAT     H167373   3.259   7.587   7.412
22377WAT     H267374   3.383   7.674   7.354
22378WAT      O67375   4.013   3.385   1.994
22378WAT     H167376   4.044   3.452   1.927
22378WAT     H267377   3.920   3.356   1.972
22379WAT      O67378   4.588   9.535   5.393
22379WAT     H167379   4.554   9.629   5.401
22379WAT     H267380   4.522   9.473   5.435
22380WAT      O67381   2.076   4.507   3.996
22380WAT     H167382   1.991   4.477   4.040
22380WAT     H267383   2.140   4.430   3.991
22381WAT      O67384   9.741   2.441   9.763
22381WAT     H167385   9.670   2.430   9.832
22381WAT     H267386   9.777   2.352   9.737
22382WAT      O67387   3.898   9.531   9.211
22382WAT     H167388   3.838   9.611   9.202
22382WAT     H267389   3.951   9.520   9.127
22383WAT      O67390   3.966   9.737   3.554
22383WAT     H167391   4.022   9.687   3.489
22383WAT     H267392   3.903   9.798   3.505
22384WAT      O67393   7.472   5.272   1.911
22384WAT     H167394   7.479   5.348   1.846
22384WAT     H267395   7.551   5.273   1.973
22385WAT      O67396   4.308   7.795   2.891
22385WAT     H167397   4.351   7.706   2.877
22385WAT     H267398   4.351   7.841   2.969
22386WAT      O67399   6.436   5.794   6.204
22386WAT     H167400   6.462   5.699   6.221
22386WAT     H267401   6.346   5.796   6.160
22387WAT      O67402   1.495   6.959   0.190
22387WAT     H167403   1.424   6.966   0.120
22387WAT     H267404   1.556   6.883   0.168
22388WAT      O67405   7.523   7.834   5.469
22388WAT     H167406   7.509   7.808   5.564
22388WAT     H267407   7.572   7.761   5.421
22389WAT      O67408   3.077   3.011   7.745
22389WAT     H167409   3.121   2.954   7.676
22389WAT     H267410   2.978   3.010   7.730
22390WAT      O67411   1.416   2.652   7.793
22390WAT     H167412   1.353   2.590   7.746
22390WAT     H267413   1.505   2.649   7.748
22391WAT      O67414   5.645   3.367   1.178
22391WAT     H167415   5.613   3.370   1.273
22391WAT     H267416   5.725   3.426   1.168
22392WAT      O67417   4.979   5.344   4.253
22392WAT     H167418   5.056   5.307   4.305
22392WAT     H267419   4.960   5.286   4.174
22393WAT      O67420   9.244   1.230   9.883
22393WAT     H167421   9.263   1.274   9.796
22393WAT     H267422   9.330   1.211   9.930
22394WAT      O67423   2.432   2.086   6.420
22394WAT     H167424   2.484   2.062   6.338
22394WAT     H267425   2.369   2.161   6.399
22395WAT      O67426   4.598   8.008   5.494
22395WAT     H167427   4.540   7.927   5.487
22395WAT     H267428   4.566   8.065   5.569
22396WAT      O67429   5.282   1.543   8.950
22396WAT     H167430   5.327   1.625   8.913
22396WAT     H267431   5.183   1.550   8.936
22397WAT      O67432   9.513   2.646   8.564
22397WAT     H167433   9.583   2.641   8.494
22397WAT     H267434   9.423   2.656   8.521
22398WAT      O67435   2.970   5.239   6.682
22398WAT     H167436   2.932   5.278   6.598
22398WAT     H267437   3.042   5.173   6.658
22399WAT      O67438   8.841   9.808   3.717
22399WAT     H167439   8.791   9.736   3.668
22399WAT     H267440   8.837   9.789   3.815
22400WAT      O67441   0.417   1.798   0.012
22400WAT     H167442   0.459   1.850   0.086
22400WAT     H267443   0.375   1.861  -0.054
22401WAT      O67444   9.136   8.772   6.041
22401WAT     H167445   9.161   8.868   6.053
22401WAT     H267446   9.129   8.728   6.130
22402WAT      O67447   3.523   7.878   3.354
22402WAT     H167448   3.541   7.869   3.256
22402WAT     H267449   3.577   7.811   3.405
22403WAT      O67450   1.900   2.544   3.874
22403WAT     H167451   1.858   2.501   3.954
22403WAT     H267452   1.869   2.498   3.791
22404WAT      O67453   9.775   3.338   5.666
22404WAT     H167454   9.789   3.247   5.627
22404WAT     H267455   9.704   3.386   5.615
22405WAT      O67456   2.088   4.067   7.069
22405WAT     H167457   2.069   4.163   7.049
22405WAT     H267458   2.173   4.060   7.121
22406WAT      O67459   8.235   7.493   7.247
22406WAT     H167460   8.159   7.484   7.312
22406WAT     H267461   8.312   7.436   7.278
22407WAT      O67462   3.278   1.098   7.061
22407WAT     H167463   3.251   1.159   7.136
22407WAT     H267464   3.378   1.089   7.060
22408WAT      O67465   0.671   2.296   2.615
22408WAT     H167466   0.573   2.303   2.633
22408WAT     H267467   0.694   2.202   2.590
22409WAT      O67468   3.679   0.945   6.335
22409WAT     H167469   3.765   0.978   6.374
22409WAT     H267470   3.642   0.873   6.393
22410WAT      O67471   5.160   2.233   2.929
22410WAT     H167472   5.084   2.290   2.895
22410WAT     H267473   5.231   2.228   2.860
22411WAT      O67474   3.931   4.370   2.819
22411WAT     H167475   4.015   4.422   2.807
22411WAT     H267476   3.952   4.274   2.834
22412WAT      O67477   3.965   6.414   5.937
22412WAT     H167478   3.918   6.501   5.919
22412WAT     H267479   4.009   6.382   5.853
22413WAT      O67480   3.385   5.114   4.001
22413WAT     H167481   3.476   5.156   3.996
22413WAT     H267482   3.320   5.172   3.952
22414WAT      O67483   5.331   8.999   9.044
22414WAT     H167484   5.260   9.054   9.088
22414WAT     H267485   5.319   8.903   9.069
22415WAT      O67486   4.691   9.086   3.021
22415WAT     H167487   4.630   9.080   3.100
22415WAT     H267488   4.646   9.046   2.942
22416WAT      O67489   6.694   6.962   2.815
22416WAT     H167490   6.737   6.997   2.732
22416WAT     H267491   6.718   7.020   2.893
22417WAT      O67492   0.646   5.611   7.616
22417WAT     H167493   0.618   5.518   7.593
22417WAT     H267494   0.645   5.622   7.716
22418WAT      O67495   4.316   0.770   7.367
22418WAT     H167496   4.365   0.705   7.425
22418WAT     H267497   4.330   0.863   7.403
22419WAT      O67498   6.921   3.170   2.892
22419WAT     H167499   6.987   3.239   2.922
22419WAT     H267500   6.966   3.081   2.886
22420WAT      O67501   9.418   0.529   4.338
22420WAT     H167502   9.496   0.585   4.311
22420WAT     H267503   9.369   0.498   4.256
22421WAT      O67504   2.102   9.136   3.899
22421WAT     H167505   2.092   9.090   3.987
22421WAT     H267506   2.045   9.089   3.831
22422WAT      O67507   3.607   4.044   6.055
22422WAT     H167508   3.568   4.023   5.965
22422WAT     H267509   3.549   4.003   6.126
22423WAT      O67510   3.995   7.863   1.082
22423WAT     H167511   4.093   7.841   1.075
22423WAT     H267512   3.956   7.820   1.163
22424WAT      O67513   9.539   0.870   6.243
22424WAT     H167514   9.460   0.834   6.193
22424WAT     H267515   9.611   0.801   6.244
22425WAT      O67516   7.672   5.634   6.369
22425WAT     H167517   7.604   5.581   6.421
22425WAT     H267518   7.763   5.594   6.382
22426WAT      O67519   1.888   8.843   5.344
22426WAT     H167520   1.915   8.939   5.345
22426WAT     H267521   1.854   8.816   5.434
22427WAT      O67522   7.805   9.101   8.537
22427WAT     H167523   7.843   9.047   8.463
22427WAT     H267524   7.781   9.192   8.503
22428WAT      O67525   5.237   2.046   6.631
22428WAT     H167526   5.300   1.971   6.650
22428WAT     H267527   5.171   2.054   6.705
22429WAT      O67528   8.182   3.331   5.844
22429WAT     H167529   8.253   3.320   5.913
22429WAT     H267530   8.165   3.244   5.798
22430WAT      O67531   6.389   5.199   2.042
22430WAT     H167532   6.468   5.252   2.012
22430WAT     H267533   6.392   5.188   2.141
22431WAT      O67534   9.176   0.023   3.360
22431WAT     H167535   9.265  -0.020   3.379
22431WAT     H267536   9.140  -0.014   3.274
22432WAT      O67537   9.815   3.154   2.606
22432WAT     H167538   9.879   3.215   2.560
22432WAT     H267539   9.865   3.085   2.657
22433WAT      O67540   3.966   0.833   5.652
22433WAT     H167541   3.874   0.809   5.622
22433WAT     H267542   3.963   0.916   5.708
22434WAT      O67543   4.471   9.602   8.465
22434WAT     H167544   4.382   9.630   8.499
22434WAT     H267545   4.520   9.682   8.429
22435WAT      O67546   0.796   6.722   9.535
22435WAT     H167547   0.717   6.720   9.474
22435WAT     H267548   0.774   6.776   9.616
22436WAT      O67549   3.621   1.319   4.043
22436WAT     H167550   3.568   1.337   4.126
22436WAT     H267551   3.619   1.221   4.023
22437WAT      O67552   6.798   3.282   8.089
22437WAT     H167553   6.858   3.247   8.161
22437WAT     H267554   6.728   3.341   8.129
22438WAT      O67555   6.828   6.973   4.664
22438WAT     H167556   6.854   6.890   4.713
22438WAT     H267557   6.866   7.052   4.711
22439WAT      O67558   1.550   2.893   5.123
22439WAT     H167559   1.614   2.921   5.052
22439WAT     H267560   1.456   2.902   5.090
22440WAT      O67561   5.729   6.821   3.433
22440WAT     H167562   5.671   6.885   3.484
22440WAT     H267563   5.801   6.786   3.494
22441WAT      O67564   3.371   6.559   5.374
22441WAT     H167565   3.322   6.573   5.288
22441WAT     H267566   3.464   6.529   5.354
22442WAT      O67567   6.856   0.278   6.182
22442WAT     H167568   6.804   0.363   6.187
22442WAT     H267569   6.931   0.288   6.117
22443WAT      O67570   7.789   9.144   7.086
22443WAT     H167571   7.710   9.085   7.100
22443WAT     H267572   7.825   9.173   7.175
22444WAT      O67573   6.354   7.316   6.084
22444WAT     H167574   6.438   7.282   6.126
22444WAT     H267575   6.276   7.268   6.122
22445WAT      O67576   3.012   0.833   4.604
22445WAT     H167577   3.102   0.837   4.646
22445WAT     H267578   2.975   0.926   4.594
22446WAT      O67579   2.063   0.055   2.165
22446WAT     H167580   2.021   0.126   2.108
22446WAT     H267581   2.088   0.093   2.254
22447WAT      O67582   1.986   5.126   8.775
22447WAT     H167583   1.962   5.165   8.686
22447WAT     H267584   2.026   5.196   8.833
22448WAT      O67585   8.788   0.334   9.472
22448WAT     H167586   8.777   0.240   9.437
22448WAT     H267587   8.702   0.384   9.461
22449WAT      O67588   6.549   6.895   9.612
22449WAT     H167589   6.504   6.967   9.665
22449WAT     H267590   6.482   6.850   9.554
22450WAT      O67591   5.054   4.396   8.818
22450WAT     H167592   4.973   4.389   8.876
22450WAT     H267593   5.136   4.389   8.875
22451WAT      O67594   2.931   3.705   6.460
22451WAT     H167595   2.944   3.622   6.406
22451WAT     H267596   2.917   3.681   6.556
22452WAT      O67597   4.606   1.920   3.284
22452WAT     H167598   4.557   1.834   3.269
22452WAT     H267599   4.698   1.914   3.246
22453WAT      O67600   1.102   8.603   3.993
22453WAT     H167601   1.200   8.582   3.995
22453WAT     H267602   1.054   8.531   3.943
22454WAT      O67603   0.105   5.764   4.740
22454WAT     H167604   0.052   5.845   4.714
22454WAT     H267605   0.200   5.791   4.756
22455WAT      O67606   5.958   9.127   1.760
22455WAT     H167607   5.861   9.106   1.767
22455WAT     H267608   6.012   9.045   1.781
22456WAT      O67609   4.082   2.256   8.266
22456WAT     H167610   4.020   2.295   8.197
22456WAT     H267611   4.126   2.331   8.316
22457WAT      O67612   8.338   2.700   4.214
22457WAT     H167613   8.247   2.719   4.251
22457WAT     H267614   8.383   2.786   4.190
22458WAT      O67615   7.608   8.942   2.365
22458WAT     H167616   7.686   8.942   2.427
22458WAT     H267617   7.546   8.867   2.389
22459WAT      O67618   4.064   9.839   2.766
22459WAT     H167619   3.986   9.901   2.775
22459WAT     H267620   4.058   9.768   2.836
22460WAT      O67621   1.074   9.522   9.404
22460WAT     H167622   0.991   9.562   9.445
22460WAT     H267623   1.079   9.425   9.428
22461WAT      O67624   4.201   8.070   3.523
22461WAT     H167625   4.125   8.005   3.532
22461WAT     H267626   4.267   8.054   3.596
22462WAT      O67627   3.517   6.203   4.572
22462WAT     H167628   3.426   6.224   4.538
22462WAT     H267629   3.580   6.193   4.494
22463WAT      O67630   4.086   1.318   9.151
22463WAT     H167631   4.007   1.260   9.171
22463WAT     H267632   4.122   1.356   9.236
22464WAT      O67633   7.943   5.429   0.071
22464WAT     H167634   7.854   5.474   0.074
22464WAT     H267635   8.009   5.481   0.126
22465WAT      O67636   6.498   9.091   1.211
22465WAT     H167637   6.483   9.116   1.307
22465WAT     H267638   6.411   9.097   1.161
22466WAT      O67639   5.542   5.729   1.669
22466WAT     H167640   5.574   5.704   1.760
22466WAT     H267641   5.455   5.779   1.676
22467WAT      O67642   6.797   4.925   2.853
22467WAT     H167643   6.729   4.858   2.825
22467WAT     H267644   6.796   5.003   2.790
22468WAT      O67645   5.482   8.459   7.470
22468WAT     H167646   5.545   8.406   7.527
22468WAT     H267647   5.496   8.556   7.486
22469WAT      O67648   7.353   6.154   5.154
22469WAT     H167649   7.314   6.088   5.090
22469WAT     H267650   7.289   6.169   5.229
22470WAT      O67651   2.820   3.902   0.072
22470WAT     H167652   2.818   3.851   0.158
22470WAT     H267653   2.739   3.962   0.067
22471WAT      O67654   8.490   6.047   8.379
22471WAT     H167655   8.475   5.977   8.448
22471WAT     H267656   8.542   6.008   8.303
22472WAT      O67657   1.725   1.734   2.418
22472WAT     H167658   1.790   1.684   2.361
22472WAT     H267659   1.641   1.750   2.366
22473WAT      O67660   7.575   7.068   3.908
22473WAT     H167661   7.633   7.149   3.900
22473WAT     H267662   7.480   7.096   3.920
22474WAT      O67663   7.362   5.377   4.118
22474WAT     H167664   7.342   5.413   4.209
22474WAT     H267665   7.426   5.439   4.072
22475WAT      O67666   8.029   7.982   2.931
22475WAT     H167667   8.036   7.893   2.978
22475WAT     H267668   8.065   8.053   2.991
22476WAT      O67669   7.277   3.979   3.438
22476WAT     H167670   7.324   4.053   3.389
22476WAT     H267671   7.322   3.892   3.418
22477WAT      O67672   8.486   0.362   7.991
22477WAT     H167673   8.579   0.396   7.977
22477WAT     H267674   8.462   0.369   8.088
22478WAT      O67675   1.670   0.584   9.483
22478WAT     H167676   1.660   0.504   9.424
22478WAT     H267677   1.627   0.566   9.572
22479WAT      O67678   2.635   3.632   8.323
22479WAT     H167679   2.546   3.629   8.370
22479WAT     H267680   2.627   3.589   8.234
22480WAT      O67681   0.532   1.107   1.186
22480WAT     H167682   0.603   1.093   1.255
22480WAT     H267683   0.451   1.054   1.211
22481WAT      O67684   4.811   0.993   0.835
22481WAT     H167685   4.776   0.906   0.871
22481WAT     H267686   4.883   1.027   0.895
22482WAT      O67687   4.878   0.282   2.453
22482WAT     H167688   4.808   0.214   2.431
22482WAT     H267689   4.964   0.257   2.411
22483WAT      O67690   1.314   9.504   3.165
22483WAT     H167691   1.335   9.565   3.242
22483WAT     H267692   1.380   9.518   3.092
22484WAT      O67693   0.394   3.705   3.173
22484WAT     H167694   0.384   3.616   3.217
22484WAT     H267695   0.414   3.692   3.076
22485WAT      O67696   0.274   3.860   4.405
22485WAT     H167697   0.372   3.879   4.401
22485WAT     H267698   0.238   3.889   4.494
22486WAT      O67699   0.805   0.209   7.573
22486WAT     H167700   0.726   0.270   7.574
22486WAT     H267701   0.789   0.133   7.637
22487WAT      O67702   0.696   1.760   2.031
22487WAT     H167703   0.614   1.816   2.039
22487WAT     H267704   0.670   1.665   2.015
22488WAT      O67705   1.482   0.569   9.692
22488WAT     H167706   1.496   0.570   9.792
22488WAT     H267707   1.411   0.635   9.668
22489WAT      O67708   2.608   7.723   4.328
22489WAT     H167709   2.513   7.754   4.323
22489WAT     H267710   2.637   7.720   4.423
22490WAT      O67711   3.495   7.695   4.006
22490WAT     H167712   3.441   7.612   3.993
22490WAT     H267713   3.521   7.732   3.916
22491WAT      O67714   4.189   5.759   3.400
22491WAT     H167715   4.236   5.737   3.315
22491WAT     H267716   4.234   5.714   3.476
22492WAT      O67717   1.158   2.988   6.962
22492WAT     H167718   1.215   2.942   7.030
22492WAT     H267719   1.213   3.055   6.913
22493WAT      O67720   0.227   6.159   0.611
22493WAT     H167721   0.310   6.213   0.595
22493WAT     H267722   0.169   6.207   0.678
22494WAT      O67723   0.985   2.741   8.462
22494WAT     H167724   1.048   2.705   8.393
22494WAT     H267725   0.970   2.838   8.447
22495WAT      O67726   2.371   2.412   0.002
22495WAT     H167727   2.401   2.317   0.004
22495WAT     H267728   2.444   2.470  -0.033
22496WAT      O67729   1.294   4.557   4.870
22496WAT     H167730   1.383   4.591   4.840
22496WAT     H267731   1.266   4.480   4.812
22497WAT      O67732   8.000   1.123   4.080
22497WAT     H167733   7.904   1.118   4.053
22497WAT     H267734   8.036   1.214   4.056
22498WAT      O67735   6.683   9.267   3.376
22498WAT     H167736   6.614   9.244   3.308
22498WAT     H267737   6.639   9.282   3.465
22499WAT      O67738   6.907   2.712   2.421
22499WAT     H167739   6.879   2.618   2.443
22499WAT     H267740   6.827   2.763   2.389
22500WAT      O67741   6.706   2.146   3.124
22500WAT     H167742   6.769   2.171   3.197
22500WAT     H267743   6.694   2.224   3.062
22501WAT      O67744   4.639   1.186   9.516
22501WAT     H167745   4.690   1.252   9.462
22501WAT     H267746   4.685   1.097   9.512
22502WAT      O67747   1.690   4.524   6.829
22502WAT     H167748   1.619   4.590   6.852
22502WAT     H267749   1.739   4.554   6.747
22503WAT      O67750   5.181   5.944   1.224
22503WAT     H167751   5.087   5.914   1.208
22503WAT     H267752   5.215   5.991   1.142
22504WAT      O67753   7.882   7.075   6.087
22504WAT     H167754   7.794   7.099   6.128
22504WAT     H267755   7.954   7.084   6.155
22505WAT      O67756   7.469   2.370   4.802
22505WAT     H167757   7.406   2.304   4.844
22505WAT     H267758   7.426   2.460   4.799
22506WAT      O67759   6.216   1.384   3.551
22506WAT     H167760   6.122   1.415   3.564
22506WAT     H267761   6.216   1.300   3.496
22507WAT      O67762   9.256   3.559   1.621
22507WAT     H167763   9.190   3.634   1.622
22507WAT     H267764   9.307   3.560   1.535
22508WAT      O67765   7.095   8.415   8.172
22508WAT     H167766   7.045   8.342   8.220
22508WAT     H267767   7.138   8.377   8.090
22509WAT      O67768   4.674   5.178   1.499
22509WAT     H167769   4.642   5.245   1.432
22509WAT     H267770   4.668   5.086   1.461
22510WAT      O67771   6.431   9.507   7.075
22510WAT     H167772   6.485   9.585   7.105
22510WAT     H267773   6.438   9.434   7.143
22511WAT      O67774   7.870   4.366   8.714
22511WAT     H167775   7.947   4.338   8.771
22511WAT     H267776   7.784   4.334   8.755
22512WAT      O67777   4.790   7.362   9.542
22512WAT     H167778   4.801   7.313   9.629
22512WAT     H267779   4.692   7.377   9.525
22513WAT      O67780   3.061   8.018   5.249
22513WAT     H167781   3.056   7.951   5.323
22513WAT     H267782   3.010   8.100   5.275
22514WAT      O67783   9.175   7.655   0.902
22514WAT     H167784   9.135   7.632   0.991
22514WAT     H267785   9.273   7.635   0.904
22515WAT      O67786   7.342   7.817   4.720
22515WAT     H167787   7.318   7.871   4.801
22515WAT     H267788   7.441   7.822   4.706
22516WAT      O67789   8.993   2.645   8.134
22516WAT     H167790   8.991   2.577   8.207
22516WAT     H267791   8.901   2.680   8.118
22517WAT      O67792   3.688   3.312   1.904
22517WAT     H167793   3.591   3.319   1.927
22517WAT     H267794   3.723   3.223   1.934
22518WAT      O67795   0.193   1.353   2.724
22518WAT     H167796   0.227   1.434   2.676
22518WAT     H267797   0.099   1.334   2.695
22519WAT      O67798   8.285   8.992   0.453
22519WAT     H167799   8.305   8.906   0.407
22519WAT     H267800   8.188   8.997   0.474
22520WAT      O67801   0.408   0.052   8.163
22520WAT     H167802   0.365   0.102   8.238
22520WAT     H267803   0.450   0.117   8.099
22521WAT      O67804   7.478   2.990   6.919
22521WAT     H167805   7.455   3.047   6.840
22521WAT     H267806   7.531   3.044   6.985
22522WAT      O67807   0.998   6.902   5.127
22522WAT     H167808   1.043   6.970   5.185
22522WAT     H267809   0.979   6.820   5.181
22523WAT      O67810   4.494   2.575   3.942
22523WAT     H167811   4.415   2.548   3.887
22523WAT     H267812   4.560   2.622   3.883
22524WAT      O67813   7.063   7.104   8.009
22524WAT     H167814   7.098   7.128   8.099
22524WAT     H267815   7.123   7.142   7.939
22525WAT      O67816   6.215   3.929   9.415
22525WAT     H167817   6.182   3.867   9.343
22525WAT     H267818   6.292   3.983   9.379
22526WAT      O67819   5.962   2.576   8.145
22526WAT     H167820   5.965   2.476   8.152
22526WAT     H267821   5.939   2.615   8.234
22527WAT      O67822   4.228   1.860   0.053
22527WAT     H167823   4.157   1.855  -0.018
22527WAT     H267824   4.185   1.875   0.142
22528WAT      O67825   8.895   3.145   6.283
22528WAT     H167826   8.930   3.136   6.190
22528WAT     H267827   8.870   3.054   6.318
22529WAT      O67828   6.202   6.735   4.881
22529WAT     H167829   6.267   6.659   4.874
22529WAT     H267830   6.109   6.698   4.879
22530WAT      O67831   9.761   0.384   7.091
22530WAT     H167832   9.847   0.434   7.099
22530WAT     H267833   9.713   0.386   7.179
22531WAT      O67834   7.692   8.988   6.726
22531WAT     H167835   7.786   8.984   6.692
22531WAT     H267836   7.663   8.896   6.753
22532WAT      O67837   0.062   8.971   0.442
22532WAT     H167838   0.021   9.014   0.523
22532WAT     H267839   0.143   8.920   0.470
22533WAT      O67840   0.749   6.588   8.764
22533WAT     H167841   0.823   6.642   8.724
22533WAT     H267842   0.787   6.509   8.811
22534WAT      O67843   5.569   7.869   6.506
22534WAT     H167844   5.653   7.842   6.553
22534WAT     H267845   5.584   7.955   6.457
22535WAT      O67846   9.076   1.822   4.020
22535WAT     H167847   9.116   1.748   4.075
22535WAT     H267848   8.977   1.806   4.012
22536WAT      O67849   6.744   2.990   0.117
22536WAT     H167850   6.717   3.061   0.181
22536WAT     H267851   6.666   2.929   0.099
22537WAT      O67852   0.305   7.783   1.561
22537WAT     H167853   0.234   7.838   1.517
22537WAT     H267854   0.297   7.791   1.660
22538WAT      O67855   2.243   3.980   6.261
22538WAT     H167856   2.223   4.005   6.166
22538WAT     H267857   2.158   3.980   6.314
22539WAT      O67858   2.068   7.181   4.545
22539WAT     H167859   1.988   7.133   4.580
22539WAT     H267860   2.150   7.147   4.591
22540WAT      O67861   5.687   9.315   8.285
22540WAT     H167862   5.627   9.237   8.269
22540WAT     H267863   5.632   9.393   8.317
22541WAT      O67864   2.108   6.681   3.042
22541WAT     H167865   2.075   6.587   3.036
22541WAT     H267866   2.051   6.732   3.106
22542WAT      O67867   0.387   5.298   4.517
22542WAT     H167868   0.430   5.256   4.597
22542WAT     H267869   0.313   5.358   4.547
22543WAT      O67870   1.574   0.814   7.590
22543WAT     H167871   1.663   0.856   7.604
22543WAT     H267872   1.557   0.802   7.492
22544WAT      O67873   2.822   1.343   8.665
22544WAT     H167874   2.785   1.425   8.708
22544WAT     H267875   2.791   1.338   8.570
22545WAT      O67876   0.001   2.055   8.598
22545WAT     H167877   0.037   1.988   8.662
22545WAT     H267878  -0.015   2.011   8.509
22546WAT      O67879   2.335   0.772   4.388
22546WAT     H167880   2.315   0.852   4.445
22546WAT     H267881   2.425   0.782   4.346
22547WAT      O67882   5.094   5.587   4.271
22547WAT     H167883   5.190   5.564   4.287
22547WAT     H267884   5.044   5.505   4.242
22548WAT      O67885   2.733   4.583   1.417
22548WAT     H167886   2.774   4.612   1.331
22548WAT     H267887   2.685   4.496   1.403
22549WAT      O67888   8.360   3.492   3.591
22549WAT     H167889   8.361   3.426   3.516
22549WAT     H267890   8.343   3.445   3.677
22550WAT      O67891   0.413   2.001   3.293
22550WAT     H167892   0.377   1.996   3.387
22550WAT     H267893   0.491   1.940   3.284
22551WAT      O67894   0.680   8.500   9.192
22551WAT     H167895   0.691   8.540   9.283
22551WAT     H267896   0.740   8.420   9.184
22552WAT      O67897   2.495   5.173   6.459
22552WAT     H167898   2.581   5.149   6.413
22552WAT     H267899   2.486   5.119   6.543
22553WAT      O67900   4.346   5.416   0.387
22553WAT     H167901   4.381   5.493   0.334
22553WAT     H267902   4.262   5.442   0.434
22554WAT      O67903   7.059   4.139   7.232
22554WAT     H167904   7.019   4.223   7.194
22554WAT     H267905   7.125   4.101   7.167
22555WAT      O67906   1.595   5.733   6.315
22555WAT     H167907   1.564   5.654   6.369
22555WAT     H267908   1.689   5.718   6.285
22556WAT      O67909   1.925   6.235   1.983
22556WAT     H167910   1.934   6.207   2.078
22556WAT     H267911   1.968   6.167   1.924
22557WAT      O67912   7.957   6.412   6.840
22557WAT     H167913   8.031   6.345   6.830
22557WAT     H267914   7.899   6.411   6.758
22558WAT      O67915   5.835   8.318   3.232
22558WAT     H167916   5.810   8.221   3.227
22558WAT     H267917   5.863   8.351   3.142
22559WAT      O67918   9.553   4.872   6.713
22559WAT     H167919   9.611   4.923   6.778
22559WAT     H267920   9.553   4.919   6.625
22560WAT      O67921   8.933   6.961   1.150
22560WAT     H167922   8.833   6.961   1.158
22560WAT     H267923   8.963   6.875   1.107
22561WAT      O67924   1.431   3.436   4.333
22561WAT     H167925   1.363   3.498   4.296
22561WAT     H267926   1.501   3.418   4.263
22562WAT      O67927   9.296   8.075   5.255
22562WAT     H167928   9.308   8.001   5.321
22562WAT     H267929   9.381   8.127   5.248
22563WAT      O67930   2.774   5.785   1.246
22563WAT     H167931   2.853   5.727   1.230
22563WAT     H267932   2.702   5.762   1.181
22564WAT      O67933   2.907   0.966   9.788
22564WAT     H167934   2.973   0.921   9.728
22564WAT     H267935   2.820   0.977   9.740
22565WAT      O67936   3.818   7.167   9.596
22565WAT     H167937   3.733   7.199   9.638
22565WAT     H267938   3.830   7.211   9.507
22566WAT      O67939   2.682   5.438   9.015
22566WAT     H167940   2.640   5.507   9.075
22566WAT     H267941   2.779   5.457   9.006
22567WAT      O67942   7.112   9.457   3.351
22567WAT     H167943   7.079   9.547   3.323
22567WAT     H267944   7.088   9.440   3.446
22568WAT      O67945   2.773   3.186   5.475
22568WAT     H167946   2.830   3.148   5.402
22568WAT     H267947   2.789   3.136   5.560
22569WAT      O67948   7.696   2.636   4.958
22569WAT     H167949   7.741   2.560   4.910
22569WAT     H267950   7.623   2.673   4.900
22570WAT      O67951   6.186   2.615   5.858
22570WAT     H167952   6.141   2.651   5.939
22570WAT     H267953   6.195   2.515   5.865
22571WAT      O67954   3.392   7.521   7.657
22571WAT     H167955   3.375   7.547   7.562
22571WAT     H267956   3.401   7.422   7.663
22572WAT      O67957   7.141   6.675   9.677
22572WAT     H167958   7.156   6.727   9.592
22572WAT     H267959   7.144   6.577   9.657
22573WAT      O67960   1.341   6.822   3.850
22573WAT     H167961   1.424   6.859   3.809
22573WAT     H267962   1.338   6.723   3.832
22574WAT      O67963   2.267   5.530   2.027
22574WAT     H167964   2.330   5.607   2.020
22574WAT     H267965   2.241   5.500   1.935
22575WAT      O67966   1.776   6.746   2.205
22575WAT     H167967   1.706   6.800   2.251
22575WAT     H267968   1.735   6.696   2.128
22576WAT      O67969   9.152   3.746   0.071
22576WAT     H167970   9.191   3.667   0.024
22576WAT     H267971   9.145   3.822   0.007
22577WAT      O67972   8.248   0.750   9.474
22577WAT     H167973   8.227   0.847   9.486
22577WAT     H267974   8.164   0.696   9.474
22578WAT      O67975   0.988   7.047   4.079
22578WAT     H167976   0.970   7.137   4.118
22578WAT     H267977   1.084   7.041   4.051
22579WAT      O67978   9.324   5.727   2.788
22579WAT     H167979   9.413   5.705   2.828
22579WAT     H267980   9.337   5.761   2.695
22580WAT      O67981   2.530   9.116   9.598
22580WAT     H167982   2.608   9.115   9.661
22580WAT     H267983   2.445   9.101   9.649
22581WAT      O67984   1.048   4.061   2.123
22581WAT     H167985   1.084   4.151   2.148
22581WAT     H267986   0.950   4.057   2.146
22582WAT      O67987   4.919   4.421   3.819
22582WAT     H167988   4.948   4.328   3.796
22582WAT     H267989   4.998   4.481   3.825
22583WAT      O67990   8.774   2.766   5.379
22583WAT     H167991   8.846   2.797   5.317
22583WAT     H267992   8.703   2.836   5.384
22584WAT      O67993   9.862   6.195   2.370
22584WAT     H167994   9.885   6.207   2.274
22584WAT     H267995   9.888   6.103   2.400
22585WAT      O67996   9.049   1.304   0.988
22585WAT     H167997   8.999   1.232   1.036
22585WAT     H267998   9.000   1.327   0.904
22586WAT      O67999   4.403   0.849   3.595
22586WAT     H168000   4.327   0.792   3.625
22586WAT     H268001   4.378   0.896   3.510
22587WAT      O68002   2.963   1.071   5.880
22587WAT     H168003   2.910   1.103   5.958
22587WAT     H268004   3.053   1.042   5.910
22588WAT      O68005   7.683   5.322   3.065
22588WAT     H168006   7.633   5.313   3.151
22588WAT     H268007   7.664   5.243   3.007
22589WAT      O68008   2.613   1.829   2.701
22589WAT     H168009   2.676   1.802   2.774
22589WAT     H268010   2.592   1.927   2.710
22590WAT      O68011   3.407   4.196   2.006
22590WAT     H168012   3.331   4.243   2.050
22590WAT     H268013   3.450   4.132   2.071
22591WAT      O68014   3.155   7.412   8.966
22591WAT     H168015   3.209   7.330   8.947
22591WAT     H268016   3.121   7.450   8.880
22592WAT      O68017   8.000   8.134   6.661
22592WAT     H168018   8.040   8.118   6.752
22592WAT     H268019   8.069   8.173   6.601
22593WAT      O68020   7.173   6.232   1.507
22593WAT     H168021   7.084   6.276   1.518
22593WAT     H268022   7.221   6.271   1.428
22594WAT      O68023   3.244   6.846   9.289
22594WAT     H168024   3.305   6.838   9.210
22594WAT     H268025   3.161   6.792   9.273
22595WAT      O68026   3.331   2.406   1.125
22595WAT     H168027   3.237   2.380   1.105
22595WAT     H268028   3.393   2.350   1.070
22596WAT      O68029   5.064   5.998   4.369
22596WAT     H168030   5.038   5.929   4.436
22596WAT     H268031   5.017   5.979   4.282
22597WAT      O68032   9.818   1.921   9.327
22597WAT     H168033   9.776   1.954   9.243
22597WAT     H268034   9.747   1.893   9.391
22598WAT      O68035   9.252   9.343   9.569
22598WAT     H168036   9.300   9.258   9.545
22598WAT     H268037   9.171   9.321   9.624
22599WAT      O68038   3.290   4.921   9.091
22599WAT     H168039   3.363   4.955   9.032
22599WAT     H268040   3.322   4.840   9.140
22600WAT      O68041   0.706   3.893   1.834
22600WAT     H168042   0.776   3.963   1.826
22600WAT     H268043   0.724   3.819   1.769
22601WAT      O68044   5.378   0.503   5.784
22601WAT     H168045   5.307   0.499   5.714
22601WAT     H268046   5.338   0.480   5.873
22602WAT      O68047   0.897   0.869   0.328
22602WAT     H168048   0.808   0.840   0.292
22602WAT     H268049   0.889   0.889   0.425
22603WAT      O68050   5.449   4.967   3.947
22603WAT     H168051   5.490   4.890   3.996
22603WAT     H268052   5.517   5.039   3.934
22604WAT      O68053   6.181   0.247   1.773
22604WAT     H168054   6.116   0.322   1.784
22604WAT     H268055   6.137   0.172   1.725
22605WAT      O68056   4.433   9.162   3.639
22605WAT     H168057   4.531   9.147   3.621
22605WAT     H268058   4.380   9.129   3.562
22606WAT      O68059   3.664   1.981   6.805
22606WAT     H168060   3.752   2.021   6.832
22606WAT     H268061   3.653   1.891   6.846
22607WAT      O68062   8.296   1.581   5.719
22607WAT     H168063   8.395   1.577   5.721
22607WAT     H268064   8.261   1.518   5.649
22608WAT      O68065   5.161   7.844   0.970
22608WAT     H168066   5.098   7.782   0.923
22608WAT     H268067   5.175   7.813   1.064
22609WAT      O68068   1.536   3.351   8.884
22609WAT     H168069   1.599   3.412   8.932
22609WAT     H268070   1.486   3.295   8.951
22610WAT      O68071   2.078   2.203   9.742
22610WAT     H168072   2.065   2.293   9.700
22610WAT     H268073   2.111   2.214   9.835
22611WAT      O68074   2.009   9.183   3.492
22611WAT     H168075   2.038   9.277   3.474
22611WAT     H268076   1.956   9.149   3.414
22612WAT      O68077   2.714   1.322   6.381
22612WAT     H168078   2.697   1.353   6.474
22612WAT     H268079   2.675   1.231   6.369
22613WAT      O68080   2.842   6.237   4.938
22613WAT     H168081   2.887   6.180   4.869
22613WAT     H268082   2.743   6.223   4.933
22614WAT      O68083   7.417   1.026   1.048
22614WAT     H168084   7.458   0.987   0.966
22614WAT     H268085   7.454   1.117   1.064
22615WAT      O68086   2.339   5.358   9.012
22615WAT     H168087   2.386   5.444   9.029
22615WAT     H268088   2.330   5.308   9.098
22616WAT      O68089   4.057   8.384   2.403
22616WAT     H168090   4.141   8.418   2.447
22616WAT     H268091   4.046   8.287   2.423
22617WAT      O68092   7.328   0.591   1.849
22617WAT     H168093   7.278   0.520   1.899
22617WAT     H268094   7.343   0.562   1.755
22618WAT      O68095   9.315   1.346   1.033
22618WAT     H168096   9.347   1.304   0.948
22618WAT     H268097   9.215   1.342   1.036
22619WAT      O68098   7.678   1.000   4.047
22619WAT     H168099   7.671   0.954   3.959
22619WAT     H268100   7.681   0.933   4.121
22620WAT      O68101   2.206   0.263   5.333
22620WAT     H168102   2.247   0.214   5.257
22620WAT     H268103   2.247   0.354   5.340
22621WAT      O68104   3.707   1.292   6.151
22621WAT     H168105   3.784   1.281   6.214
22621WAT     H268106   3.623   1.301   6.203
22622WAT      O68107   7.860   1.141   8.410
22622WAT     H168108   7.949   1.176   8.382
22622WAT     H268109   7.829   1.190   8.491
22623WAT      O68110   7.238   5.978   4.988
22623WAT     H168111   7.149   6.020   4.975
22623WAT     H268112   7.265   5.929   4.905
22624WAT      O68113   1.039   6.620   3.736
22624WAT     H168114   0.971   6.569   3.683
22624WAT     H268115   1.047   6.713   3.701
22625WAT      O68116   2.614   4.827   4.441
22625WAT     H168117   2.611   4.869   4.351
22625WAT     H268118   2.588   4.730   4.434
22626WAT      O68119   4.768   5.372   2.507
22626WAT     H168120   4.834   5.301   2.479
22626WAT     H268121   4.679   5.353   2.465
22627WAT      O68122   6.007   1.253   0.420
22627WAT     H168123   5.945   1.327   0.395
22627WAT     H268124   6.100   1.289   0.426
22628WAT      O68125   5.908   0.260   3.767
22628WAT     H168126   5.955   0.305   3.691
22628WAT     H268127   5.975   0.212   3.824
22629WAT      O68128   7.843   8.664   9.881
22629WAT     H168129   7.827   8.565   9.888
22629WAT     H268130   7.828   8.707   9.970
22630WAT      O68131   6.128   4.212   7.637
22630WAT     H168132   6.198   4.149   7.671
22630WAT     H268133   6.103   4.187   7.544
22631WAT      O68134   1.623   3.749   9.635
22631WAT     H168135   1.612   3.731   9.537
22631WAT     H268136   1.554   3.697   9.686
22632WAT      O68137   7.867   7.180   4.841
22632WAT     H168138   7.922   7.224   4.912
22632WAT     H268139   7.812   7.107   4.882
22633WAT      O68140   4.068   7.069   6.545
22633WAT     H168141   4.138   7.138   6.527
22633WAT     H268142   4.052   7.015   6.462
22634WAT      O68143   6.722   7.088   1.851
22634WAT     H168144   6.689   7.163   1.794
22634WAT     H268145   6.778   7.026   1.796
22635WAT      O68146   6.423   8.081   1.435
22635WAT     H168147   6.356   8.149   1.468
22635WAT     H268148   6.452   8.023   1.511
22636WAT      O68149   0.342   4.549   5.008
22636WAT     H168150   0.345   4.451   4.991
22636WAT     H268151   0.389   4.598   4.934
22637WAT      O68152   1.747   4.978   1.259
22637WAT     H168153   1.701   4.914   1.197
22637WAT     H268154   1.810   4.928   1.318
22638WAT      O68155   0.096   5.271   9.348
22638WAT     H168156   0.136   5.213   9.419
22638WAT     H268157  -0.001   5.282   9.364
22639WAT      O68158   9.595   6.167   6.797
22639WAT     H168159   9.555   6.092   6.744
22639WAT     H268160   9.554   6.254   6.769
22640WAT      O68161   3.838   2.782   2.905
22640WAT     H168162   3.877   2.858   2.852
22640WAT     H268163   3.739   2.796   2.914
22641WAT      O68164   8.116   8.733   5.723
22641WAT     H168165   8.114   8.689   5.633
22641WAT     H268166   8.207   8.771   5.740
22642WAT      O68167   7.691   0.195   8.046
22642WAT     H168168   7.601   0.152   8.036
22642WAT     H268169   7.694   0.246   8.132
22643WAT      O68170   1.294   8.912   3.789
22643WAT     H168171   1.311   8.889   3.885
22643WAT     H268172   1.206   8.874   3.761
22644WAT      O68173   5.369   9.240   9.430
22644WAT     H168174   5.467   9.260   9.434
22644WAT     H268175   5.356   9.145   9.405
22645WAT      O68176   6.475   7.080   7.220
22645WAT     H168177   6.560   7.127   7.244
22645WAT     H268178   6.445   7.111   7.129
22646WAT      O68179   1.567   7.369   9.685
22646WAT     H168180   1.603   7.441   9.744
22646WAT     H268181   1.594   7.386   9.590
22647WAT      O68182   0.239   7.280   7.862
22647WAT     H168183   0.253   7.182   7.849
22647WAT     H268184   0.186   7.295   7.945
22648WAT      O68185   7.647   0.268   3.580
22648WAT     H168186   7.552   0.248   3.604
22648WAT     H268187   7.708   0.218   3.642
22649WAT      O68188   9.222   7.325   7.585
22649WAT     H168189   9.124   7.340   7.596
22649WAT     H268190   9.272   7.379   7.653
22650WAT      O68191   3.773   5.731   1.554
22650WAT     H168192   3.797   5.648   1.503
22650WAT     H268193   3.795   5.719   1.651
22651WAT      O68194   2.609   2.978   5.204
22651WAT     H168195   2.558   3.035   5.269
22651WAT     H268196   2.637   2.893   5.249
22652WAT      O68197   6.483   2.273   6.056
22652WAT     H168198   6.544   2.352   6.058
22652WAT     H268199   6.518   2.202   6.116
22653WAT      O68200   6.494   8.229   2.553
22653WAT     H168201   6.593   8.238   2.542
22653WAT     H268202   6.454   8.317   2.578
22654WAT      O68203   8.084   3.588   4.503
22654WAT     H168204   8.009   3.569   4.567
22654WAT     H268205   8.047   3.599   4.411
22655WAT      O68206   0.828   1.349   1.064
22655WAT     H168207   0.817   1.341   1.163
22655WAT     H268208   0.913   1.397   1.044
22656WAT      O68209   6.505   4.593   7.666
22656WAT     H168210   6.466   4.554   7.582
22656WAT     H268211   6.601   4.614   7.650
22657WAT      O68212   1.132   2.932   8.119
22657WAT     H168213   1.128   2.947   8.021
22657WAT     H268214   1.221   2.894   8.144
22658WAT      O68215   1.190   1.455   6.179
22658WAT     H168216   1.192   1.554   6.188
22658WAT     H268217   1.097   1.421   6.193
22659WAT      O68218   3.142   4.224   0.042
22659WAT     H168219   3.066   4.226   0.106
22659WAT     H268220   3.228   4.218   0.092
22660WAT      O68221   2.231   3.202   0.967
22660WAT     H168222   2.237   3.160   1.057
22660WAT     H268223   2.276   3.291   0.968
22661WAT      O68224   8.045   1.275   4.620
22661WAT     H168225   8.068   1.250   4.526
22661WAT     H268226   7.946   1.279   4.631
22662WAT      O68227   2.677   2.899   8.789
22662WAT     H168228   2.728   2.881   8.704
22662WAT     H268229   2.648   2.812   8.829
22663WAT      O68230   5.229   2.458   2.598
22663WAT     H168231   5.165   2.423   2.529
22663WAT     H268232   5.276   2.539   2.562
22664WAT      O68233   8.672   6.498   2.951
22664WAT     H168234   8.692   6.521   3.046
22664WAT     H268235   8.694   6.576   2.892
22665WAT      O68236   4.776   4.637   4.970
22665WAT     H168237   4.735   4.728   4.965
22665WAT     H268238   4.872   4.645   4.996
22666WAT      O68239   8.675   6.191   1.277
22666WAT     H168240   8.630   6.217   1.191
22666WAT     H268241   8.705   6.096   1.271
22667WAT      O68242   2.183   3.154   1.551
22667WAT     H168243   2.220   3.228   1.607
22667WAT     H268244   2.102   3.116   1.595
22668WAT      O68245   3.909   2.085   3.363
22668WAT     H168246   3.906   2.050   3.457
22668WAT     H268247   3.985   2.043   3.314
22669WAT      O68248   1.420   2.549   8.404
22669WAT     H168249   1.424   2.455   8.438
22669WAT     H268250   1.506   2.596   8.424
22670WAT      O68251   6.886   5.057   2.179
22670WAT     H168252   6.881   5.076   2.277
22670WAT     H268253   6.922   5.137   2.132
22671WAT      O68254   0.415   4.638   5.969
22671WAT     H168255   0.396   4.585   5.886
22671WAT     H268256   0.432   4.734   5.944
22672WAT      O68257   4.693   3.355   5.148
22672WAT     H168258   4.634   3.307   5.083
22672WAT     H268259   4.779   3.380   5.103
22673WAT      O68260   1.813   7.942   8.674
22673WAT     H168261   1.814   8.013   8.603
22673WAT     H268262   1.831   7.984   8.763
22674WAT      O68263   2.242   7.640   5.823
22674WAT     H168264   2.182   7.620   5.745
22674WAT     H268265   2.200   7.606   5.907
22675WAT      O68266   9.256   7.471   6.842
22675WAT     H168267   9.267   7.529   6.923
22675WAT     H268268   9.320   7.500   6.771
22676WAT      O68269   6.112   6.570   7.391
22676WAT     H168270   6.024   6.526   7.409
22676WAT     H268271   6.132   6.567   7.293
22677WAT      O68272   4.747   1.054   7.721
22677WAT     H168273   4.717   1.002   7.802
22677WAT     H268274   4.839   1.088   7.737
22678WAT      O68275   1.945   2.506   2.665
22678WAT     H168276   2.011   2.461   2.726
22678WAT     H268277   1.982   2.595   2.636
22679WAT      O68278   3.553   2.495   5.757
22679WAT     H168279   3.525   2.544   5.675
22679WAT     H268280   3.492   2.519   5.833
22680WAT      O68281   5.761   7.960   2.619
22680WAT     H168282   5.814   7.875   2.621
22680WAT     H268283   5.751   7.991   2.525
22681WAT      O68284   8.358   4.076   6.000
22681WAT     H168285   8.323   4.167   5.980
22681WAT     H268286   8.287   4.022   6.045
22682WAT      O68287   4.394   6.088   2.816
22682WAT     H168288   4.387   6.051   2.723
22682WAT     H268289   4.336   6.169   2.825
22683WAT      O68290   2.139   8.410   1.920
22683WAT     H168291   2.115   8.342   1.851
22683WAT     H268292   2.174   8.364   2.001
22684WAT      O68293   9.695   9.131   8.321
22684WAT     H168294   9.751   9.132   8.404
22684WAT     H268295   9.735   9.192   8.253
22685WAT      O68296   6.169   4.996   0.622
22685WAT     H168297   6.110   4.997   0.703
22685WAT     H268298   6.244   4.931   0.636
22686WAT      O68299   7.309   2.512   5.964
22686WAT     H168300   7.264   2.600   5.951
22686WAT     H268301   7.318   2.494   6.062
22687WAT      O68302   7.943   7.113   1.560
22687WAT     H168303   7.844   7.117   1.564
22687WAT     H268304   7.982   7.193   1.604
22688WAT      O68305   5.882   8.835   7.867
22688WAT     H168306   5.906   8.821   7.771
22688WAT     H268307   5.875   8.746   7.912
22689WAT      O68308   2.527   8.048   8.729
22689WAT     H168309   2.584   7.989   8.787
22689WAT     H268310   2.510   8.001   8.642
22690WAT      O68311   8.546   7.479   3.913
22690WAT     H168312   8.643   7.494   3.896
22690WAT     H268313   8.496   7.565   3.902
22691WAT      O68314   0.173   6.950   2.542
22691WAT     H168315   0.159   6.892   2.462
22691WAT     H268316   0.140   6.904   2.624
22692WAT      O68317   0.285   8.360   9.887
22692WAT     H168318   0.266   8.350   9.984
22692WAT     H268319   0.264   8.275   9.839
22693WAT      O68320   9.149   7.882   6.600
22693WAT     H168321   9.224   7.847   6.544
22693WAT     H268322   9.119   7.970   6.564
22694WAT      O68323   2.424   9.823   0.453
22694WAT     H168324   2.328   9.849   0.466
22694WAT     H268325   2.483   9.899   0.480
22695WAT      O68326   6.167   6.039   6.652
22695WAT     H168327   6.114   6.052   6.737
22695WAT     H268328   6.172   6.126   6.603
22696WAT      O68329   7.687   2.090   3.934
22696WAT     H168330   7.752   2.023   3.970
22696WAT     H268331   7.644   2.139   4.011
22697WAT      O68332   9.355   2.572   2.942
22697WAT     H168333   9.414   2.650   2.920
22697WAT     H268334   9.279   2.602   3.000
22698WAT      O68335   8.532   5.204   6.514
22698WAT     H168336   8.631   5.190   6.518
22698WAT     H268337   8.489   5.159   6.593
22699WAT      O68338   1.215   2.448   5.945
22699WAT     H168339   1.153   2.381   5.984
22699WAT     H268340   1.163   2.515   5.891
22700WAT      O68341   2.074   6.285   7.720
22700WAT     H168342   2.112   6.204   7.765
22700WAT     H268343   2.119   6.299   7.632
22701WAT      O68344   5.273   1.836   3.472
22701WAT     H168345   5.282   1.864   3.377
22701WAT     H268346   5.318   1.747   3.485
22702WAT      O68347   4.279   1.019   8.305
22702WAT     H168348   4.287   0.927   8.267
22702WAT     H268349   4.358   1.038   8.363
22703WAT      O68350   8.129   2.883   1.590
22703WAT     H168351   8.174   2.851   1.507
22703WAT     H268352   8.195   2.934   1.646
22704WAT      O68353   1.120   2.916   6.337
22704WAT     H168354   1.209   2.905   6.382
22704WAT     H268355   1.058   2.965   6.398
22705WAT      O68356   1.686   0.976   0.022
22705WAT     H168357   1.609   1.014  -0.030
22705WAT     H268358   1.685   1.011   0.115
22706WAT      O68359   1.352   7.568   2.009
22706WAT     H168360   1.318   7.660   2.029
22706WAT     H268361   1.292   7.501   2.052
22707WAT      O68362   2.232   8.354   7.424
22707WAT     H168363   2.220   8.360   7.523
22707WAT     H268364   2.176   8.279   7.388
22708WAT      O68365   2.939   5.137   9.217
22708WAT     H168366   3.007   5.135   9.290
22708WAT     H268367   2.960   5.066   9.150
22709WAT      O68368   5.224   7.116   6.219
22709WAT     H168369   5.280   7.125   6.137
22709WAT     H268370   5.237   7.196   6.277
22710WAT      O68371   8.013   5.803   9.065
22710WAT     H168372   8.025   5.828   9.161
22710WAT     H268373   8.102   5.801   9.020
22711WAT      O68374   7.998   0.798   3.074
22711WAT     H168375   7.926   0.802   3.006
22711WAT     H268376   8.028   0.891   3.098
22712WAT      O68377   8.075   4.119   0.730
22712WAT     H168378   8.096   4.214   0.753
22712WAT     H268379   8.147   4.083   0.671
22713WAT      O68380   1.489   9.148   8.344
22713WAT     H168381   1.538   9.096   8.413
22713WAT     H268382   1.423   9.088   8.297
22714WAT      O68383   2.562   6.406   1.932
22714WAT     H168384   2.587   6.414   2.028
22714WAT     H268385   2.644   6.397   1.876
22715WAT      O68386   3.838   6.592   9.312
22715WAT     H168387   3.748   6.611   9.273
22715WAT     H268388   3.891   6.677   9.317
22716WAT      O68389   7.549   4.208   6.917
22716WAT     H168390   7.575   4.127   6.864
22716WAT     H268391   7.472   4.186   6.976
22717WAT      O68392   8.676   1.959   7.697
22717WAT     H168393   8.629   2.038   7.737
22717WAT     H268394   8.609   1.893   7.664
22718WAT      O68395   0.819   4.356   7.172
22718WAT     H168396   0.749   4.424   7.193
22718WAT     H268397   0.902   4.376   7.223
22719WAT      O68398   4.443   7.287   1.441
22719WAT     H168399   4.395   7.242   1.366
22719WAT     H268400   4.422   7.240   1.527
22720WAT      O68401   3.473   5.835   7.695
22720WAT     H168402   3.539   5.763   7.717
22720WAT     H268403   3.462   5.840   7.595
22721WAT      O68404   3.936   7.175   7.411
22721WAT     H168405   3.983   7.223   7.337
22721WAT     H268406   3.907   7.241   7.480
22722WAT      O68407   9.806   7.452   5.937
22722WAT     H168408   9.744   7.520   5.975
22722WAT     H268409   9.785   7.437   5.841
22723WAT      O68410   1.831   6.170   6.619
22723WAT     H168411   1.922   6.139   6.648
22723WAT     H268412   1.840   6.256   6.569
22724WAT      O68413   1.144   2.446   6.973
22724WAT     H168414   1.148   2.456   7.072
22724WAT     H268415   1.074   2.379   6.949
22725WAT      O68416   1.531   4.176   7.599
22725WAT     H168417   1.502   4.189   7.694
22725WAT     H268418   1.572   4.261   7.565
22726WAT      O68419   6.233   2.398   8.200
22726WAT     H168420   6.145   2.353   8.189
22726WAT     H268421   6.305   2.341   8.160
22727WAT      O68422   3.790   0.677   7.361
22727WAT     H168423   3.777   0.649   7.456
22727WAT     H268424   3.883   0.711   7.349
22728WAT      O68425   6.358   2.539   1.327
22728WAT     H168426   6.272   2.500   1.295
22728WAT     H268427   6.397   2.481   1.399
22729WAT      O68428   5.282   0.353   7.389
22729WAT     H168429   5.255   0.300   7.309
22729WAT     H268430   5.200   0.389   7.434
22730WAT      O68431   8.711   1.428   8.688
22730WAT     H168432   8.618   1.463   8.697
22730WAT     H268433   8.756   1.474   8.611
22731WAT      O68434   2.661   0.599   5.310
22731WAT     H168435   2.621   0.598   5.218
22731WAT     H268436   2.760   0.604   5.303
22732WAT      O68437   7.508   3.059   0.344
22732WAT     H168438   7.494   2.991   0.416
22732WAT     H268439   7.427   3.117   0.337
22733WAT      O68440   9.789   6.433   9.094
22733WAT     H168441   9.806   6.337   9.071
22733WAT     H268442   9.857   6.463   9.161
22734WAT      O68443   2.250   7.572   2.895
22734WAT     H168444   2.324   7.517   2.933
22734WAT     H268445   2.269   7.591   2.798
22735WAT      O68446   4.506   3.570   4.936
22735WAT     H168447   4.601   3.602   4.943
22735WAT     H268448   4.485   3.547   4.841
22736WAT      O68449   0.861   0.412   7.940
22736WAT     H168450   0.816   0.392   7.852
22736WAT     H268451   0.898   0.328   7.978
22737WAT      O68452   9.197   3.579   3.042
22737WAT     H168453   9.193   3.528   3.128
22737WAT     H268454   9.156   3.669   3.056
22738WAT      O68455   3.713   9.182   3.920
22738WAT     H168456   3.767   9.105   3.885
22738WAT     H268457   3.742   9.204   4.013
22739WAT      O68458   5.046   8.070   0.557
22739WAT     H168459   5.075   7.975   0.565
22739WAT     H268460   5.105   8.128   0.613
22740WAT      O68461   4.457   5.313   7.370
22740WAT     H168462   4.494   5.314   7.463
22740WAT     H268463   4.408   5.228   7.355
22741WAT      O68464   5.546   7.438   6.044
22741WAT     H168465   5.485   7.360   6.056
22741WAT     H268466   5.493   7.523   6.048
22742WAT      O68467   1.145   5.184   4.034
22742WAT     H168468   1.127   5.268   3.983
22742WAT     H268469   1.173   5.112   3.971
22743WAT      O68470   0.691   7.324   3.716
22743WAT     H168471   0.733   7.295   3.802
22743WAT     H268472   0.659   7.418   3.724
22744WAT      O68473   8.513   1.653   2.838
22744WAT     H168474   8.493   1.661   2.740
22744WAT     H268475   8.603   1.693   2.857
22745WAT      O68476   7.130   9.395   0.585
22745WAT     H168477   7.143   9.450   0.502
22745WAT     H268478   7.041   9.350   0.581
22746WAT      O68479   6.703   6.963   5.593
22746WAT     H168480   6.703   6.998   5.686
22746WAT     H268481   6.619   6.992   5.547
22747WAT      O68482   1.603   2.669   6.156
22747WAT     H168483   1.699   2.691   6.140
22747WAT     H268484   1.553   2.671   6.069
22748WAT      O68485   2.801   3.274   2.308
22748WAT     H168486   2.858   3.249   2.386
22748WAT     H268487   2.764   3.366   2.322
22749WAT      O68488   7.816   1.734   7.400
22749WAT     H168489   7.820   1.834   7.405
22749WAT     H268490   7.800   1.706   7.305
22750WAT      O68491   3.499   2.612   5.531
22750WAT     H168492   3.447   2.695   5.509
22750WAT     H268493   3.563   2.592   5.458
22751WAT      O68494   1.126   6.216   9.697
22751WAT     H168495   1.210   6.166   9.720
22751WAT     H268496   1.120   6.298   9.755
22752WAT      O68497   7.282   8.466   8.360
22752WAT     H168498   7.348   8.538   8.341
22752WAT     H268499   7.213   8.464   8.288
22753WAT      O68500   5.204   6.508   2.778
22753WAT     H168501   5.262   6.541   2.853
22753WAT     H268502   5.214   6.570   2.700
22754WAT      O68503   0.433   7.936   0.849
22754WAT     H168504   0.368   8.000   0.808
22754WAT     H268505   0.412   7.843   0.819
22755WAT      O68506   4.295   5.344   1.076
22755WAT     H168507   4.273   5.403   1.153
22755WAT     H268508   4.255   5.253   1.091
22756WAT      O68509   3.647   9.084   7.845
22756WAT     H168510   3.571   9.143   7.870
22756WAT     H268511   3.701   9.062   7.927
22757WAT      O68512   4.668   4.654   5.788
22757WAT     H168513   4.638   4.732   5.842
22757WAT     H268514   4.611   4.574   5.810
22758WAT      O68515   4.479   3.640   1.911
22758WAT     H168516   4.525   3.552   1.897
22758WAT     H268517   4.415   3.632   1.987
22759WAT      O68518   8.397   8.135   9.401
22759WAT     H168519   8.475   8.083   9.434
22759WAT     H268520   8.315   8.077   9.401
22760WAT      O68521   1.871   4.961   7.448
22760WAT     H168522   1.908   5.029   7.385
22760WAT     H268523   1.912   4.973   7.538
22761WAT      O68524   0.428   3.143   4.683
22761WAT     H168525   0.489   3.161   4.760
22761WAT     H268526   0.396   3.048   4.688
22762WAT      O68527   5.949   1.106   9.490
22762WAT     H168528   5.984   1.197   9.468
22762WAT     H268529   6.009   1.061   9.555
22763WAT      O68530   9.457   8.765   4.746
22763WAT     H168531   9.467   8.668   4.727
22763WAT     H268532   9.390   8.806   4.684
22764WAT      O68533   3.798   2.155   6.268
22764WAT     H168534   3.797   2.073   6.325
22764WAT     H268535   3.705   2.177   6.240
22765WAT      O68536   7.460   6.712   1.086
22765WAT     H168537   7.522   6.698   1.163
22765WAT     H268538   7.488   6.793   1.035
22766WAT      O68539   9.140   1.154   4.847
22766WAT     H168540   9.213   1.220   4.830
22766WAT     H268541   9.051   1.199   4.837
22767WAT      O68542   2.475   5.737   5.021
22767WAT     H168543   2.389   5.731   5.072
22767WAT     H268544   2.454   5.744   4.923
22768WAT      O68545   4.841   3.182   5.756
22768WAT     H168546   4.908   3.132   5.702
22768WAT     H268547   4.763   3.122   5.778
22769WAT      O68548   9.400   5.016   6.935
22769WAT     H168549   9.424   5.108   6.965
22769WAT     H268550   9.406   5.011   6.835
22770WAT      O68551   4.523   1.566   3.495
22770WAT     H168552   4.474   1.603   3.416
22770WAT     H268553   4.622   1.572   3.480
22771WAT      O68554   8.330   8.795   6.829
22771WAT     H168555   8.284   8.824   6.913
22771WAT     H268556   8.415   8.748   6.852
22772WAT      O68557   4.313   2.896   6.966
22772WAT     H168558   4.233   2.953   6.944
22772WAT     H268559   4.314   2.876   7.064
22773WAT      O68560   8.567   9.655   5.472
22773WAT     H168561   8.611   9.743   5.452
22773WAT     H268562   8.614   9.610   5.547
22774WAT      O68563   4.102   1.451   4.994
22774WAT     H168564   4.076   1.511   5.070
22774WAT     H268565   4.045   1.471   4.914
22775WAT      O68566   1.072   7.717   4.014
22775WAT     H168567   1.082   7.790   4.082
22775WAT     H268568   0.990   7.664   4.034
22776WAT      O68569   7.967   8.436   4.585
22776WAT     H168570   8.024   8.517   4.603
22776WAT     H268571   7.933   8.399   4.671
22777WAT      O68572   2.952   5.995   0.911
22777WAT     H168573   3.040   5.950   0.928
22777WAT     H268574   2.936   6.066   0.979
22778WAT      O68575   7.944   6.859   5.921
22778WAT     H168576   7.894   6.941   5.949
22778WAT     H268577   8.002   6.879   5.842
22779WAT      O68578   1.818   9.723   2.178
22779WAT     H168579   1.875   9.800   2.150
22779WAT     H268580   1.740   9.757   2.232
22780WAT      O68581   6.473   6.884   3.936
22780WAT     H168582   6.560   6.935   3.934
22780WAT     H268583   6.414   6.918   3.863
22781WAT      O68584   2.635   9.462   9.174
22781WAT     H168585   2.665   9.406   9.096
22781WAT     H268586   2.556   9.418   9.217
22782WAT      O68587   9.418   4.375   7.511
22782WAT     H168588   9.487   4.441   7.538
22782WAT     H268589   9.448   4.283   7.537
22783WAT      O68590   0.742   9.566   8.499
22783WAT     H168591   0.757   9.503   8.575
22783WAT     H268592   0.830   9.589   8.457
22784WAT      O68593   3.961   5.802   3.207
22784WAT     H168594   3.893   5.729   3.209
22784WAT     H268595   4.033   5.783   3.273
22785WAT      O68596   4.145   4.200   7.296
22785WAT     H168597   4.071   4.226   7.358
22785WAT     H268598   4.194   4.283   7.267
22786WAT      O68599   0.449   3.997   2.777
22786WAT     H168600   0.442   4.091   2.746
22786WAT     H268601   0.490   3.941   2.705
22787WAT      O68602   4.582   9.707   6.667
22787WAT     H168603   4.591   9.629   6.728
22787WAT     H268604   4.672   9.748   6.652
22788WAT      O68605   4.479   2.544   8.639
22788WAT     H168606   4.474   2.547   8.738
22788WAT     H268607   4.433   2.462   8.605
22789WAT      O68608   4.383   1.338   2.582
22789WAT     H168609   4.342   1.254   2.617
22789WAT     H268610   4.315   1.389   2.529
22790WAT      O68611   6.694   8.624   2.559
22790WAT     H168612   6.735   8.621   2.650
22790WAT     H268613   6.602   8.662   2.565
22791WAT      O68614   2.034   4.805   8.321
22791WAT     H168615   2.128   4.831   8.344
22791WAT     H268616   1.971   4.870   8.362
22792WAT      O68617   3.806   1.114   0.476
22792WAT     H168618   3.765   1.087   0.563
22792WAT     H268619   3.871   1.044   0.447
22793WAT      O68620   5.638   9.089   2.580
22793WAT     H168621   5.646   9.184   2.549
22793WAT     H268622   5.593   9.035   2.510
22794WAT      O68623   6.997   4.434   4.720
22794WAT     H168624   7.089   4.396   4.717
22794WAT     H268625   6.932   4.362   4.744
22795WAT      O68626   0.437   5.409   7.036
22795WAT     H168627   0.531   5.384   7.010
22795WAT     H268628   0.434   5.506   7.060
22796WAT      O68629   7.999   1.857   3.679
22796WAT     H168630   7.927   1.802   3.720
22796WAT     H268631   8.020   1.822   3.588
22797WAT      O68632   4.899   4.555   4.105
22797WAT     H168633   4.893   4.560   4.204
22797WAT     H268634   4.828   4.492   4.070
22798WAT      O68635   1.151   8.266   2.832
22798WAT     H168636   1.250   8.257   2.834
22798WAT     H268637   1.126   8.363   2.843
22799WAT      O68638   9.677   8.856   9.344
22799WAT     H168639   9.670   8.793   9.421
22799WAT     H268640   9.768   8.899   9.345
22800WAT      O68641   2.829   4.265   5.367
22800WAT     H168642   2.834   4.238   5.463
22800WAT     H268643   2.888   4.344   5.352
22801WAT      O68644   9.456   2.053   4.528
22801WAT     H168645   9.455   2.064   4.428
22801WAT     H268646   9.423   2.137   4.571
22802WAT      O68647   5.382   6.251   7.889
22802WAT     H168648   5.447   6.228   7.960
22802WAT     H268649   5.429   6.300   7.815
22803WAT      O68650   5.437   9.690   3.613
22803WAT     H168651   5.473   9.782   3.625
22803WAT     H268652   5.433   9.644   3.702
22804WAT      O68653   7.586   7.967   2.709
22804WAT     H168654   7.511   7.902   2.695
22804WAT     H268655   7.553   8.060   2.693
22805WAT      O68656   8.280   9.207   1.396
22805WAT     H168657   8.243   9.295   1.366
22805WAT     H268658   8.349   9.176   1.331
22806WAT      O68659   6.349   2.372   1.581
22806WAT     H168660   6.272   2.427   1.615
22806WAT     H268661   6.314   2.290   1.536
22807WAT      O68662   8.791   8.116   5.684
22807WAT     H168663   8.758   8.044   5.745
22807WAT     H268664   8.882   8.146   5.712
22808WAT      O68665   7.169   0.885   2.365
22808WAT     H168666   7.131   0.796   2.391
22808WAT     H268667   7.258   0.898   2.409
22809WAT      O68668   3.701   3.387   4.306
22809WAT     H168669   3.706   3.486   4.321
22809WAT     H268670   3.789   3.353   4.275
22810WAT      O68671   8.793   6.704   8.989
22810WAT     H168672   8.811   6.609   8.968
22810WAT     H268673   8.781   6.756   8.905
22811WAT      O68674   3.671   0.102   6.322
22811WAT     H168675   3.716   0.077   6.408
22811WAT     H268676   3.573   0.113   6.338
22812WAT      O68677   3.243   8.442   7.043
22812WAT     H168678   3.160   8.477   7.001
22812WAT     H268679   3.223   8.356   7.091
22813WAT      O68680   8.828   5.713   1.422
22813WAT     H168681   8.802   5.722   1.518
22813WAT     H268682   8.927   5.701   1.415
22814WAT      O68683   3.942   1.853   4.704
22814WAT     H168684   3.870   1.786   4.721
22814WAT     H268685   3.916   1.941   4.742
22815WAT      O68686   2.583   7.308   0.374
22815WAT     H168687   2.519   7.384   0.362
22815WAT     H268688   2.668   7.343   0.412
22816WAT      O68689   5.870   8.069   7.128
22816WAT     H168690   5.961   8.076   7.168
22816WAT     H268691   5.836   7.975   7.138
22817WAT      O68692   0.137   4.746   6.828
22817WAT     H168693   0.205   4.792   6.771
22817WAT     H268694   0.047   4.755   6.787
22818WAT      O68695   9.614   8.187   5.467
22818WAT     H168696   9.568   8.224   5.386
22818WAT     H268697   9.583   8.093   5.482
22819WAT      O68698   9.820   6.064   1.057
22819WAT     H168699   9.861   5.976   1.083
22819WAT     H268700   9.724   6.065   1.084
22820WAT      O68701   8.577   2.084   0.288
22820WAT     H168702   8.667   2.040   0.293
22820WAT     H268703   8.506   2.014   0.282
22821WAT      O68704   7.017   4.547   6.305
22821WAT     H168705   7.115   4.537   6.289
22821WAT     H268706   6.984   4.470   6.360
22822WAT      O68707   8.002   8.615   1.508
22822WAT     H168708   7.924   8.650   1.560
22822WAT     H268709   8.022   8.521   1.537
22823WAT      O68710   5.616   4.147   9.332
22823WAT     H168711   5.685   4.219   9.337
22823WAT     H268712   5.529   4.181   9.369
22824WAT      O68713   9.142   7.777   2.209
22824WAT     H168714   9.188   7.753   2.123
22824WAT     H268715   9.099   7.866   2.199
22825WAT      O68716   5.633   1.545   8.531
22825WAT     H168717   5.555   1.499   8.574
22825WAT     H268718   5.632   1.525   8.433
22826WAT      O68719   3.532   5.912   8.330
22826WAT     H168720   3.569   6.001   8.356
22826WAT     H268721   3.465   5.925   8.256
22827WAT      O68722   8.030   5.622   2.699
22827WAT     H168723   7.982   5.697   2.653
22827WAT     H268724   8.017   5.538   2.646
22828WAT      O68725   8.269   7.685   0.953
22828WAT     H168726   8.345   7.622   0.936
22828WAT     H268727   8.218   7.655   1.034
22829WAT      O68728   3.996   5.444   7.261
22829WAT     H168729   3.981   5.508   7.336
22829WAT     H268730   3.994   5.350   7.296
22830WAT      O68731   2.132   4.049   5.747
22830WAT     H168732   2.093   3.963   5.716
22830WAT     H268733   2.101   4.124   5.689
22831WAT      O68734   7.234   0.628   2.706
22831WAT     H168735   7.159   0.690   2.726
22831WAT     H268736   7.206   0.534   2.728
22832WAT      O68737   6.471   9.327   7.277
22832WAT     H168738   6.512   9.345   7.367
22832WAT     H268739   6.510   9.243   7.240
22833WAT      O68740   4.310   2.521   9.267
22833WAT     H168741   4.215   2.520   9.235
22833WAT     H268742   4.324   2.596   9.331
22834WAT      O68743   8.167   6.815   2.146
22834WAT     H168744   8.144   6.735   2.090
22834WAT     H268745   8.253   6.799   2.194
22835WAT      O68746   2.545   1.845   4.665
22835WAT     H168747   2.479   1.792   4.612
22835WAT     H268748   2.586   1.915   4.607
22836WAT      O68749   7.244   2.116   6.535
22836WAT     H168750   7.155   2.071   6.539
22836WAT     H268751   7.308   2.071   6.597
22837WAT      O68752   0.052   6.812   4.175
22837WAT     H168753  -0.013   6.793   4.102
22837WAT     H268754   0.029   6.900   4.218
22838WAT      O68755   0.274   9.275   6.593
22838WAT     H168756   0.191   9.311   6.635
22838WAT     H268757   0.319   9.348   6.541
22839WAT      O68758   1.999   4.164   7.476
22839WAT     H168759   1.942   4.081   7.478
22839WAT     H268760   2.094   4.139   7.460
22840WAT      O68761   8.864   0.644   8.185
22840WAT     H168762   8.891   0.734   8.151
22840WAT     H268763   8.775   0.619   8.148
22841WAT      O68764   3.136   8.029   0.469
22841WAT     H168765   3.197   7.972   0.525
22841WAT     H268766   3.046   8.032   0.511
22842WAT      O68767   5.823   2.066   6.335
22842WAT     H168768   5.847   1.978   6.375
22842WAT     H268769   5.907   2.111   6.303
22843WAT      O68770   7.928   8.331   6.362
22843WAT     H168771   7.972   8.286   6.440
22843WAT     H268772   7.932   8.430   6.375
22844WAT      O68773   6.320   9.251   8.888
22844WAT     H168774   6.352   9.171   8.836
22844WAT     H268775   6.274   9.314   8.826
22845WAT      O68776   2.474   2.665   3.696
22845WAT     H168777   2.441   2.757   3.673
22845WAT     H268778   2.417   2.597   3.650
22846WAT      O68779   3.959   7.676   5.252
22846WAT     H168780   3.887   7.645   5.191
22846WAT     H268781   3.986   7.770   5.228
22847WAT      O68782   6.936   3.711   7.070
22847WAT     H168783   6.916   3.731   7.166
22847WAT     H268784   6.881   3.634   7.039
22848WAT      O68785   6.035   7.145   2.694
22848WAT     H168786   5.974   7.224   2.689
22848WAT     H268787   6.029   7.093   2.609
22849WAT      O68788   0.399   8.804   0.119
22849WAT     H168789   0.441   8.803   0.210
22849WAT     H268790   0.470   8.804   0.049
22850WAT      O68791   8.968   2.970   6.634
22850WAT     H168792   8.978   3.068   6.653
22850WAT     H268793   8.906   2.929   6.700
22851WAT      O68794   8.078   7.059   4.486
22851WAT     H168795   8.000   7.120   4.487
22851WAT     H268796   8.149   7.093   4.548
22852WAT      O68797   6.746   4.040   2.297
22852WAT     H168798   6.804   4.054   2.376
22852WAT     H268799   6.725   4.129   2.255
22853WAT      O68800   4.656   5.692   1.774
22853WAT     H168801   4.657   5.606   1.722
22853WAT     H268802   4.688   5.674   1.867
22854WAT      O68803   8.214   6.142   8.189
22854WAT     H168804   8.189   6.199   8.268
22854WAT     H268805   8.268   6.197   8.126
22855WAT      O68806   5.449   8.426   5.482
22855WAT     H168807   5.414   8.339   5.516
22855WAT     H268808   5.464   8.420   5.383
22856WAT      O68809   1.173   1.729   7.646
22856WAT     H168810   1.093   1.740   7.705
22856WAT     H268811   1.235   1.662   7.686
22857WAT      O68812   5.571   6.722   1.493
22857WAT     H168813   5.594   6.671   1.576
22857WAT     H268814   5.526   6.808   1.518
22858WAT      O68815   3.361   6.969   6.338
22858WAT     H168816   3.375   7.019   6.423
22858WAT     H268817   3.450   6.938   6.303
22859WAT      O68818   6.296   8.517   5.410
22859WAT     H168819   6.321   8.421   5.424
22859WAT     H268820   6.379   8.572   5.401
22860WAT      O68821   8.426   3.945   3.889
22860WAT     H168822   8.512   3.997   3.889
22860WAT     H268823   8.447   3.847   3.887
22861WAT      O68824   1.010   7.412   3.472
22861WAT     H168825   0.952   7.331   3.463
22861WAT     H268826   1.057   7.429   3.385
22862WAT      O68827   4.351   3.283   6.951
22862WAT     H168828   4.317   3.375   6.969
22862WAT     H268829   4.394   3.246   7.033
22863WAT      O68830   2.151   1.214   9.277
22863WAT     H168831   2.237   1.173   9.305
22863WAT     H268832   2.166   1.309   9.250
22864WAT      O68833   4.965   1.157   4.430
22864WAT     H168834   4.956   1.181   4.333
22864WAT     H268835   5.022   1.076   4.439
22865WAT      O68836   0.620   2.576   4.506
22865WAT     H168837   0.522   2.592   4.498
22865WAT     H268838   0.636   2.486   4.547
22866WAT      O68839   2.888   0.285   4.261
22866WAT     H168840   2.946   0.363   4.284
22866WAT     H268841   2.817   0.315   4.197
22867WAT      O68842   6.874   1.517   8.741
22867WAT     H168843   6.933   1.577   8.687
22867WAT     H268844   6.835   1.446   8.683
22868WAT      O68845   3.583   7.874   1.936
22868WAT     H168846   3.650   7.868   2.010
22868WAT     H268847   3.603   7.804   1.867
22869WAT      O68848   8.243   8.658   4.386
22869WAT     H168849   8.207   8.717   4.313
22869WAT     H268850   8.303   8.589   4.346
22870WAT      O68851   3.567   8.263   6.560
22870WAT     H168852   3.558   8.165   6.546
22870WAT     H268853   3.607   8.280   6.650
22871WAT      O68854   3.754   7.386   0.980
22871WAT     H168855   3.740   7.393   0.881
22871WAT     H268856   3.672   7.349   1.023
22872WAT      O68857   4.975   4.166   3.738
22872WAT     H168858   5.006   4.137   3.829
22872WAT     H268859   4.947   4.086   3.685
22873WAT      O68860   3.043   2.259   0.507
22873WAT     H168861   3.003   2.169   0.525
22873WAT     H268862   3.082   2.296   0.591
22874WAT      O68863   0.925   2.764   1.561
22874WAT     H168864   0.830   2.744   1.583
22874WAT     H268865   0.929   2.818   1.477
22875WAT      O68866   5.913   2.365   0.013
22875WAT     H168867   5.934   2.333  -0.080
22875WAT     H268868   5.861   2.294   0.061
22876WAT      O68869   8.007   3.817   5.475
22876WAT     H168870   8.014   3.721   5.499
22876WAT     H268871   7.954   3.827   5.390
22877WAT      O68872   8.049   5.883   8.472
22877WAT     H168873   7.959   5.839   8.462
22877WAT     H268874   8.087   5.899   8.381
22878WAT      O68875   4.704   5.180   4.738
22878WAT     H168876   4.609   5.212   4.736
22878WAT     H268877   4.764   5.253   4.707
22879WAT      O68878   2.479   1.236   1.799
22879WAT     H168879   2.453   1.173   1.872
22879WAT     H268880   2.465   1.330   1.830
22880WAT      O68881   2.179   6.767   1.632
22880WAT     H168882   2.120   6.701   1.677
22880WAT     H268883   2.138   6.858   1.636
22881WAT      O68884   1.843   6.036   0.815
22881WAT     H168885   1.930   6.037   0.766
22881WAT     H268886   1.852   5.981   0.898
22882WAT      O68887   7.247   0.380   2.037
22882WAT     H168888   7.159   0.423   2.059
22882WAT     H268889   7.254   0.292   2.085
22883WAT      O68890   8.160   0.268   9.390
22883WAT     H168891   8.168   0.292   9.293
22883WAT     H268892   8.165   0.168   9.400
22884WAT      O68893   2.295   0.159   6.043
22884WAT     H168894   2.381   0.156   6.093
22884WAT     H268895   2.249   0.070   6.050
22885WAT      O68896   5.038   2.745   2.727
22885WAT     H168897   5.114   2.693   2.766
22885WAT     H268898   5.060   2.772   2.634
22886WAT      O68899   9.748   2.083   1.432
22886WAT     H168900   9.811   2.014   1.466
22886WAT     H268901   9.744   2.160   1.496
22887WAT      O68902   2.984   8.645   2.985
22887WAT     H168903   2.912   8.697   2.939
22887WAT     H268904   3.065   8.701   2.996
22888WAT      O68905   1.007   3.709   5.828
22888WAT     H168906   1.098   3.736   5.858
22888WAT     H268907   1.011   3.618   5.785
22889WAT      O68908   3.820   9.667   8.421
22889WAT     H168909   3.725   9.681   8.394
22889WAT     H268910   3.875   9.744   8.389
22890WAT      O68911   7.749   0.525   0.508
22890WAT     H168912   7.847   0.515   0.522
22890WAT     H268913   7.720   0.467   0.432
22891WAT      O68914   6.442   6.560   6.676
22891WAT     H168915   6.357   6.513   6.701
22891WAT     H268916   6.490   6.588   6.759
22892WAT      O68917   9.859   7.114   2.433
22892WAT     H168918   9.934   7.064   2.476
22892WAT     H268919   9.781   7.052   2.420
22893WAT      O68920   1.999   2.611   8.579
22893WAT     H168921   2.011   2.536   8.644
22893WAT     H268922   1.909   2.653   8.592
22894WAT      O68923   1.671   1.899   8.652
22894WAT     H168924   1.719   1.811   8.645
22894WAT     H268925   1.725   1.970   8.606
22895WAT      O68926   7.907   9.702   2.526
22895WAT     H168927   7.979   9.771   2.539
22895WAT     H268928   7.856   9.722   2.442
22896WAT      O68929   3.909   0.098   1.277
22896WAT     H168930   3.979   0.040   1.237
22896WAT     H268931   3.949   0.186   1.304
22897WAT      O68932   2.712   0.286   5.454
22897WAT     H168933   2.649   0.361   5.478
22897WAT     H268934   2.797   0.325   5.418
22898WAT      O68935   5.295   0.959   9.725
22898WAT     H168936   5.219   0.997   9.672
22898WAT     H268937   5.349   0.898   9.668
22899WAT      O68938   4.122   5.933   8.029
22899WAT     H168939   4.152   5.868   7.959
22899WAT     H268940   4.202   5.971   8.075
22900WAT      O68941   2.457   1.132   2.767
22900WAT     H168942   2.436   1.135   2.865
22900WAT     H268943   2.459   1.224   2.730
22901WAT      O68944   1.715   7.582   7.296
22901WAT     H168945   1.629   7.603   7.251
22901WAT     H268946   1.751   7.496   7.261
22902WAT      O68947   6.790   4.250   4.802
22902WAT     H168948   6.814   4.231   4.897
22902WAT     H268949   6.708   4.307   4.798
22903WAT      O68950   9.389   1.743   9.680
22903WAT     H168951   9.367   1.745   9.583
22903WAT     H268952   9.395   1.837   9.715
22904WAT      O68953   3.443   1.304   6.249
22904WAT     H168954   3.462   1.227   6.310
22904WAT     H268955   3.384   1.273   6.174
22905WAT      O68956   5.544   8.087   1.584
22905WAT     H168957   5.594   8.034   1.516
22905WAT     H268958   5.530   8.181   1.550
22906WAT      O68959   3.532   0.181   9.439
22906WAT     H168960   3.574   0.131   9.515
22906WAT     H268961   3.441   0.214   9.467
22907WAT      O68962   1.028   7.830   6.207
22907WAT     H168963   0.981   7.906   6.251
22907WAT     H268964   1.082   7.864   6.130
22908WAT      O68965   9.018   4.968   7.214
22908WAT     H168966   9.093   4.933   7.270
22908WAT     H268967   9.018   5.068   7.216
22909WAT      O68968   7.945   9.494   8.924
22909WAT     H168969   7.931   9.430   9.000
22909WAT     H268970   7.874   9.565   8.928
22910WAT      O68971   8.787   5.848   7.357
22910WAT     H168972   8.836   5.764   7.380
22910WAT     H268973   8.688   5.832   7.367
22911WAT      O68974   5.279   5.998   0.964
22911WAT     H168975   5.280   6.091   0.927
22911WAT     H268976   5.365   5.952   0.941
22912WAT      O68977   1.516   3.476   1.361
22912WAT     H168978   1.473   3.537   1.427
22912WAT     H268979   1.613   3.499   1.352
22913WAT      O68980   1.878   8.639   1.236
22913WAT     H168981   1.974   8.610   1.229
22913WAT     H268982   1.827   8.571   1.288
22914WAT      O68983   0.031   8.144   0.427
22914WAT     H168984   0.003   8.231   0.469
22914WAT     H268985   0.088   8.163   0.348
22915WAT      O68986   9.097   6.279   9.290
22915WAT     H168987   9.006   6.241   9.276
22915WAT     H268988   9.138   6.240   9.372
22916WAT      O68989   6.079   1.263   1.653
22916WAT     H168990   6.172   1.232   1.638
22916WAT     H268991   6.036   1.205   1.722
22917WAT      O68992   7.086   0.854   4.409
22917WAT     H168993   7.123   0.836   4.500
22917WAT     H268994   6.990   0.882   4.417
22918WAT      O68995   1.806   3.183   7.216
22918WAT     H168996   1.743   3.202   7.291
22918WAT     H268997   1.892   3.232   7.232
22919WAT      O68998   8.470   1.015   2.569
22919WAT     H168999   8.559   0.972   2.554
22919WAT     H269000   8.447   1.074   2.492
22920WAT      O69001   7.682   4.711   1.170
22920WAT     H169002   7.745   4.663   1.108
22920WAT     H269003   7.607   4.650   1.195
22921WAT      O69004   3.575   1.863   1.344
22921WAT     H169005   3.499   1.928   1.345
22921WAT     H269006   3.657   1.907   1.381
22922WAT      O69007   1.378   1.058   1.518
22922WAT     H169008   1.475   1.040   1.534
22922WAT     H269009   1.360   1.156   1.528
22923WAT      O69010   0.410   3.345   9.298
22923WAT     H169011   0.473   3.318   9.371
22923WAT     H269012   0.319   3.362   9.337
22924WAT      O69013   3.794   4.385   8.335
22924WAT     H169014   3.860   4.354   8.403
22924WAT     H269015   3.743   4.306   8.300
22925WAT      O69016   8.619   2.760   3.596
22925WAT     H169017   8.583   2.712   3.515
22925WAT     H269018   8.598   2.707   3.678
22926WAT      O69019   5.629   0.760  -0.001
22926WAT     H169020   5.625   0.795   0.093
22926WAT     H269021   5.719   0.721  -0.018
22927WAT      O69022   8.883   0.789   0.669
22927WAT     H169023   8.902   0.880   0.705
22927WAT     H269024   8.834   0.797   0.581
22928WAT      O69025   1.154   3.431   2.618
22928WAT     H169026   1.202   3.508   2.659
22928WAT     H269027   1.086   3.395   2.683
22929WAT      O69028   6.044   4.619   0.040
22929WAT     H169029   6.112   4.663  -0.018
22929WAT     H269030   6.083   4.536   0.079
22930WAT      O69031   1.389   4.164   4.209
22930WAT     H169032   1.462   4.162   4.276
22930WAT     H269033   1.300   4.165   4.256
22931WAT      O69034   1.990   1.416   7.661
22931WAT     H169035   1.979   1.503   7.614
22931WAT     H269036   1.900   1.379   7.685
22932WAT      O69037   2.601   4.058   0.117
22932WAT     H169038   2.582   4.155   0.097
22932WAT     H269039   2.530   4.002   0.074
22933WAT      O69040   1.828   6.918   6.170
22933WAT     H169041   1.915   6.876   6.144
22933WAT     H269042   1.843   7.014   6.191
22934WAT      O69043   6.306   7.820   9.067
22934WAT     H169044   6.311   7.913   9.031
22934WAT     H269045   6.360   7.813   9.150
22935WAT      O69046   6.929   1.408   6.666
22935WAT     H169047   6.924   1.367   6.574
22935WAT     H269048   6.863   1.363   6.726
22936WAT      O69049   1.600   4.902   0.478
22936WAT     H169050   1.637   4.888   0.386
22936WAT     H269051   1.557   4.817   0.510
22937WAT      O69052   5.018   9.744   1.518
22937WAT     H169053   5.058   9.698   1.439
22937WAT     H269054   4.949   9.810   1.487
22938WAT      O69055   8.304   7.146   2.736
22938WAT     H169056   8.399   7.172   2.721
22938WAT     H269057   8.244   7.201   2.678
22939WAT      O69058   0.383   9.007   0.972
22939WAT     H169059   0.360   8.952   0.891
22939WAT     H269060   0.352   9.101   0.959
22940WAT      O69061   1.199   0.010   5.523
22940WAT     H169062   1.214   0.105   5.550
22940WAT     H269063   1.232  -0.050   5.595
22941WAT      O69064   3.660   0.854   3.276
22941WAT     H169065   3.603   0.935   3.285
22941WAT     H269066   3.634   0.804   3.194
22942WAT      O69067   5.332   6.818   9.337
22942WAT     H169068   5.244   6.781   9.367
22942WAT     H269069   5.338   6.816   9.237
22943WAT      O69070   7.846   4.363   7.232
22943WAT     H169071   7.935   4.409   7.226
22943WAT     H269072   7.851   4.274   7.187
22944WAT      O69073   3.377   7.219   1.405
22944WAT     H169074   3.412   7.155   1.336
22944WAT     H269075   3.428   7.304   1.400
22945WAT      O69076   8.535   2.753   9.799
22945WAT     H169077   8.546   2.758   9.898
22945WAT     H269078   8.625   2.764   9.755
22946WAT      O69079   6.507   0.226   2.143
22946WAT     H169080   6.570   0.190   2.073
22946WAT     H269081   6.500   0.161   2.218
22947WAT      O69082   8.817   9.591   9.232
22947WAT     H169083   8.880   9.630   9.299
22947WAT     H269084   8.864   9.521   9.178
22948WAT      O69085   4.665   9.119   9.580
22948WAT     H169086   4.685   9.216   9.569
22948WAT     H269087   4.574   9.099   9.544
22949WAT      O69088   6.549   8.311   3.044
22949WAT     H169089   6.621   8.303   2.975
22949WAT     H269090   6.589   8.314   3.135
22950WAT      O69091   3.841   4.998   6.648
22950WAT     H169092   3.930   4.961   6.674
22950WAT     H269093   3.844   5.032   6.555
22951WAT      O69094   4.108   3.896   9.236
22951WAT     H169095   4.176   3.853   9.296
22951WAT     H269096   4.146   3.981   9.199
22952WAT      O69097   9.559   7.958   1.540
22952WAT     H169098   9.525   8.034   1.596
22952WAT     H269099   9.504   7.952   1.457
22953WAT      O69100   5.194   3.580   7.193
22953WAT     H169101   5.139   3.532   7.125
22953WAT     H269102   5.223   3.516   7.264
22954WAT      O69103   0.567   3.294   3.959
22954WAT     H169104   0.527   3.237   4.031
22954WAT     H269105   0.496   3.352   3.919
22955WAT      O69106   9.461   8.596   3.598
22955WAT     H169107   9.459   8.575   3.695
22955WAT     H269108   9.371   8.629   3.569
22956WAT      O69109   6.715   1.480   1.034
22956WAT     H169110   6.656   1.400   1.019
22956WAT     H269111   6.803   1.465   0.990
22957WAT      O69112   6.751   6.854   6.369
22957WAT     H169113   6.748   6.771   6.425
22957WAT     H269114   6.694   6.925   6.410
22958WAT      O69115   6.687   1.053   9.527
22958WAT     H169116   6.747   1.076   9.451
22958WAT     H269117   6.739   1.004   9.597
22959WAT      O69118   1.582   7.060   9.287
22959WAT     H169119   1.629   7.022   9.207
22959WAT     H269120   1.515   7.128   9.257
22960WAT      O69121   6.716   6.481   6.403
22960WAT     H169122   6.743   6.436   6.488
22960WAT     H269123   6.617   6.492   6.400
22961WAT      O69124   2.605   3.600   8.796
22961WAT     H169125   2.535   3.541   8.754
22961WAT     H269126   2.679   3.543   8.831
22962WAT      O69127   0.697   2.553   0.348
22962WAT     H169128   0.692   2.641   0.301
22962WAT     H269129   0.729   2.483   0.285
22963WAT      O69130   2.929   9.306   7.844
22963WAT     H169131   2.925   9.286   7.942
22963WAT     H269132   2.877   9.238   7.794
22964WAT      O69133   9.721   2.679   2.943
22964WAT     H169134   9.815   2.711   2.949
22964WAT     H269135   9.660   2.757   2.926
22965WAT      O69136   4.072   6.798   5.760
22965WAT     H169137   4.168   6.769   5.760
22965WAT     H269138   4.067   6.897   5.747
22966WAT      O69139   4.331   3.119   7.902
22966WAT     H169140   4.415   3.161   7.869
22966WAT     H269141   4.345   3.081   7.993
22967WAT      O69142   1.034   0.841   5.525
22967WAT     H169143   0.970   0.836   5.448
22967WAT     H269144   0.992   0.800   5.606
22968WAT      O69145   3.879   5.126   1.651
22968WAT     H169146   3.876   5.225   1.666
22968WAT     H269147   3.904   5.080   1.736
22969WAT      O69148   9.655   1.708   4.642
22969WAT     H169149   9.748   1.729   4.613
22969WAT     H269150   9.603   1.674   4.563
22970WAT      O69151   8.917   2.151   0.517
22970WAT     H169152   8.863   2.085   0.465
22970WAT     H269153   8.948   2.224   0.456
22971WAT      O69154   6.680   0.639   8.196
22971WAT     H169155   6.746   0.624   8.271
22971WAT     H269156   6.721   0.700   8.128
22972WAT      O69157   6.275   9.431   8.290
22972WAT     H169158   6.243   9.339   8.264
22972WAT     H269159   6.300   9.431   8.387
22973WAT      O69160   4.301   1.048   6.667
22973WAT     H169161   4.339   0.959   6.690
22973WAT     H269162   4.295   1.057   6.567
22974WAT      O69163   8.628   4.629   7.586
22974WAT     H169164   8.610   4.576   7.503
22974WAT     H269165   8.543   4.675   7.615
22975WAT      O69166   7.957   0.963   5.631
22975WAT     H169167   8.050   0.938   5.659
22975WAT     H269168   7.905   0.880   5.610
22976WAT      O69169   1.031   5.734   6.403
22976WAT     H169170   1.021   5.670   6.479
22976WAT     H269171   1.040   5.827   6.438
22977WAT      O69172   7.793   1.083   7.774
22977WAT     H169173   7.733   1.105   7.851
22977WAT     H269174   7.858   1.158   7.760
22978WAT      O69175   7.184   3.107   3.009
22978WAT     H169176   7.148   3.197   3.032
22978WAT     H269177   7.165   3.043   3.083
22979WAT      O69178   0.668   1.130   6.434
22979WAT     H169179   0.589   1.191   6.436
22979WAT     H269180   0.739   1.164   6.496
22980WAT      O69181   9.849   4.961   3.956
22980WAT     H169182   9.926   4.929   3.901
22980WAT     H269183   9.844   4.908   4.041
22981WAT      O69184   1.379   2.647   5.454
22981WAT     H169185   1.411   2.563   5.409
22981WAT     H269186   1.418   2.654   5.545
22982WAT      O69187   2.994   1.708   0.930
22982WAT     H169188   2.926   1.682   0.863
22982WAT     H269189   2.949   1.745   1.012
22983WAT      O69190   5.264   7.888   1.445
22983WAT     H169191   5.281   7.893   1.544
22983WAT     H269192   5.252   7.980   1.409
22984WAT      O69193   0.201   0.230   6.066
22984WAT     H169194   0.243   0.312   6.105
22984WAT     H269195   0.205   0.155   6.132
22985WAT      O69196   3.076   2.036   7.068
22985WAT     H169197   2.996   2.084   7.105
22985WAT     H269198   3.066   2.027   6.969
22986WAT      O69199   4.957   0.047   4.731
22986WAT     H169200   5.050   0.052   4.694
22986WAT     H269201   4.902  -0.011   4.671
22987WAT      O69202   6.557   0.654   7.568
22987WAT     H169203   6.598   0.745   7.575
22987WAT     H269204   6.522   0.626   7.658
22988WAT      O69205   2.326   6.974   0.086
22988WAT     H169206   2.410   7.020   0.115
22988WAT     H269207   2.347   6.879   0.061
22989WAT      O69208   4.381   6.051   0.775
22989WAT     H169209   4.414   5.958   0.788
22989WAT     H269210   4.443   6.115   0.820
22990WAT      O69211   5.921   1.713   6.250
22990WAT     H169212   5.829   1.691   6.284
22990WAT     H269213   5.972   1.762   6.321
22991WAT      O69214   6.229   4.586   1.530
22991WAT     H169215   6.211   4.499   1.575
22991WAT     H269216   6.293   4.572   1.455
22992WAT      O69217   7.857   8.567   1.090
22992WAT     H169218   7.932   8.607   1.143
22992WAT     H269219   7.774   8.569   1.144
22993WAT      O69220   3.117   4.273   2.041
22993WAT     H169221   3.136   4.283   2.139
22993WAT     H269222   3.025   4.307   2.022
22994WAT      O69223   1.037   2.670   7.618
22994WAT     H169224   0.977   2.616   7.560
22994WAT     H269225   1.083   2.740   7.564
22995WAT      O69226   1.302   2.871   6.693
22995WAT     H169227   1.229   2.809   6.721
22995WAT     H269228   1.266   2.965   6.690
22996WAT      O69229   5.235   2.997   4.531
22996WAT     H169230   5.282   3.001   4.619
22996WAT     H269231   5.140   2.969   4.545
22997WAT      O69232   9.268   7.160   1.718
22997WAT     H169233   9.305   7.209   1.797
22997WAT     H269234   9.334   7.161   1.644
22998WAT      O69235   1.107   5.235   2.717
22998WAT     H169236   1.104   5.332   2.741
22998WAT     H269237   1.035   5.186   2.767
22999WAT      O69238   2.007   5.211   2.055
22999WAT     H169239   2.074   5.172   1.991
22999WAT     H269240   2.033   5.189   2.149
23000WAT      O69241   9.306   3.484   7.166
23000WAT     H169242   9.286   3.473   7.069
23000WAT     H269243   9.238   3.542   7.209
23001WAT      O69244   5.155   0.471   0.664
23001WAT     H169245   5.146   0.554   0.610
23001WAT     H269246   5.237   0.476   0.721
23002WAT      O69247   4.934   5.776   5.073
23002WAT     H169248   4.903   5.800   5.165
23002WAT     H269249   5.033   5.770   5.072
23003WAT      O69250   0.708   5.777   6.895
23003WAT     H169251   0.722   5.784   6.796
23003WAT     H269252   0.700   5.868   6.935
23004WAT      O69253   1.137   0.109   1.325
23004WAT     H169254   1.161   0.174   1.397
23004WAT     H269255   1.069   0.044   1.359
23005WAT      O69256   0.472   8.585   2.322
23005WAT     H169257   0.557   8.575   2.271
23005WAT     H269258   0.407   8.638   2.266
23006WAT      O69259   2.363   9.798   4.425
23006WAT     H169260   2.352   9.895   4.446
23006WAT     H269261   2.299   9.745   4.480
23007WAT      O69262   1.854   0.827   2.837
23007WAT     H169263   1.783   0.826   2.907
23007WAT     H269264   1.912   0.908   2.849
23008WAT      O69265   4.425   0.375   8.214
23008WAT     H169266   4.328   0.375   8.189
23008WAT     H269267   4.478   0.329   8.143
23009WAT      O69268   0.342   2.292   3.586
23009WAT     H169269   0.388   2.292   3.498
23009WAT     H269270   0.311   2.199   3.607
23010WAT      O69271   3.437   0.756   0.409
23010WAT     H169272   3.418   0.785   0.503
23010WAT     H269273   3.407   0.826   0.345
23011WAT      O69274   1.801   6.375   8.286
23011WAT     H169275   1.714   6.360   8.334
23011WAT     H269276   1.873   6.394   8.353
23012WAT      O69277   6.204   3.775   7.943
23012WAT     H169278   6.111   3.811   7.933
23012WAT     H269279   6.200   3.683   7.982
23013WAT      O69280   2.592   8.629   3.873
23013WAT     H169281   2.500   8.591   3.871
23013WAT     H269282   2.658   8.555   3.887
23014WAT      O69283   7.212   7.668   2.571
23014WAT     H169284   7.208   7.731   2.494
23014WAT     H269285   7.257   7.583   2.542
23015WAT      O69286   1.634   9.487   6.803
23015WAT     H169287   1.720   9.500   6.853
23015WAT     H269288   1.559   9.524   6.857
23016WAT      O69289   4.939   8.269   6.559
23016WAT     H169290   4.896   8.179   6.549
23016WAT     H269291   4.873   8.332   6.601
23017WAT      O69292   0.014   0.308   8.987
23017WAT     H169293   0.013   0.321   9.086
23017WAT     H269294  -0.060   0.245   8.961
23018WAT      O69295   9.712   4.900   7.714
23018WAT     H169296   9.733   4.997   7.717
23018WAT     H269297   9.761   4.853   7.787
23019WAT      O69298   7.530   7.701   3.745
23019WAT     H169299   7.574   7.756   3.674
23019WAT     H269300   7.574   7.719   3.833
23020WAT      O69301   1.235   7.822   5.185
23020WAT     H169302   1.308   7.773   5.233
23020WAT     H269303   1.202   7.766   5.108
23021WAT      O69304   8.685   2.222   8.080
23021WAT     H169305   8.752   2.200   8.152
23021WAT     H269306   8.641   2.309   8.101
23022WAT      O69307   3.471   4.790   7.808
23022WAT     H169308   3.510   4.749   7.725
23022WAT     H269309   3.448   4.886   7.790
23023WAT      O69310   1.873   7.168   0.651
23023WAT     H169311   1.781   7.133   0.667
23023WAT     H269312   1.889   7.174   0.552
23024WAT      O69313   0.868   9.823   6.596
23024WAT     H169314   0.789   9.792   6.649
23024WAT     H269315   0.873   9.771   6.510
23025WAT      O69316   4.113   8.674   0.706
23025WAT     H169317   4.120   8.772   0.721
23025WAT     H269318   4.022   8.652   0.671
23026WAT      O69319   7.403   4.462   0.750
23026WAT     H169320   7.346   4.536   0.713
23026WAT     H269321   7.497   4.474   0.718
23027WAT      O69322   7.585   0.790   9.653
23027WAT     H169323   7.614   0.726   9.581
23027WAT     H269324   7.516   0.746   9.710
23028WAT      O69325   0.056   5.221   4.246
23028WAT     H169326   0.030   5.269   4.330
23028WAT     H269327  -0.026   5.191   4.198
23029WAT      O69328   8.467   4.405   5.064
23029WAT     H169329   8.409   4.436   5.139
23029WAT     H269330   8.527   4.479   5.035
23030WAT      O69331   2.840   0.485   6.179
23030WAT     H169332   2.824   0.468   6.276
23030WAT     H269333   2.752   0.500   6.133
23031WAT      O69334   6.588   5.471   8.072
23031WAT     H169335   6.584   5.566   8.102
23031WAT     H269336   6.595   5.411   8.152
23032WAT      O69337   1.133   8.906   7.301
23032WAT     H169338   1.066   8.972   7.335
23032WAT     H269339   1.158   8.928   7.207
23033WAT      O69340   6.661   9.271   4.987
23033WAT     H169341   6.711   9.283   4.901
23033WAT     H269342   6.616   9.182   4.987
23034WAT      O69343   9.879   8.478   6.924
23034WAT     H169344   9.831   8.393   6.901
23034WAT     H269345   9.882   8.537   6.844
23035WAT      O69346   7.224   2.362   8.685
23035WAT     H169347   7.308   2.355   8.739
23035WAT     H269348   7.247   2.373   8.588
23036WAT      O69349   3.488   7.707   8.163
23036WAT     H169350   3.510   7.795   8.122
23036WAT     H269351   3.519   7.633   8.103
23037WAT      O69352   4.638   0.923   5.967
23037WAT     H169353   4.680   0.839   6.000
23037WAT     H269354   4.570   0.955   6.033
23038WAT      O69355   6.378   3.130   0.192
23038WAT     H169356   6.289   3.090   0.172
23038WAT     H269357   6.411   3.182   0.113
23039WAT      O69358   2.589   9.536   1.479
23039WAT     H169359   2.496   9.562   1.503
23039WAT     H269360   2.604   9.439   1.500
23040WAT      O69361   0.657   2.664   1.151
23040WAT     H169362   0.620   2.621   1.070
23040WAT     H269363   0.611   2.752   1.166
23041WAT      O69364   4.660   6.149   7.811
23041WAT     H169365   4.645   6.166   7.909
23041WAT     H269366   4.755   6.124   7.796
23042WAT      O69367   2.552   5.326   4.417
23042WAT     H169368   2.532   5.298   4.323
23042WAT     H269369   2.651   5.335   4.428
23043WAT      O69370   2.203   4.777   4.060
23043WAT     H169371   2.264   4.819   3.993
23043WAT     H269372   2.153   4.701   4.017
23044WAT      O69373   2.941   3.216   2.536
23044WAT     H169374   2.887   3.228   2.619
23044WAT     H269375   3.036   3.242   2.554
23045WAT      O69376   8.671   0.874   8.324
23045WAT     H169377   8.619   0.956   8.301
23045WAT     H269378   8.635   0.796   8.272
23046WAT      O69379   9.700   8.672   0.093
23046WAT     H169380   9.655   8.735   0.156
23046WAT     H269381   9.645   8.589   0.084
23047WAT      O69382   0.980   5.745   4.949
23047WAT     H169383   0.891   5.766   4.909
23047WAT     H269384   1.038   5.700   4.881
23048WAT      O69385   8.942   8.664   1.366
23048WAT     H169386   8.862   8.723   1.376
23048WAT     H269387   9.019   8.703   1.416
23049WAT      O69388   4.137   4.307   5.613
23049WAT     H169389   4.183   4.392   5.638
23049WAT     H269390   4.204   4.234   5.604
23050WAT      O69391   1.290   3.061   0.338
23050WAT     H169392   1.386   3.081   0.355
23050WAT     H269393   1.282   2.981   0.278
23051WAT      O69394   6.263   0.513   8.907
23051WAT     H169395   6.233   0.464   8.825
23051WAT     H269396   6.193   0.579   8.935
23052WAT      O69397   9.130   7.290   2.516
23052WAT     H169398   9.044   7.272   2.468
23052WAT     H269399   9.206   7.290   2.450
23053WAT      O69400   7.195   5.141   8.249
23053WAT     H169401   7.175   5.166   8.154
23053WAT     H269402   7.161   5.049   8.267
23054WAT      O69403   7.970   0.033   5.579
23054WAT     H169404   7.871   0.035   5.568
23054WAT     H269405   8.000  -0.061   5.600
23055WAT      O69406   4.718   6.999   0.332
23055WAT     H169407   4.738   6.903   0.311
23055WAT     H269408   4.772   7.029   0.410
23056WAT      O69409   3.844   9.677   7.803
23056WAT     H169410   3.833   9.695   7.705
23056WAT     H269411   3.768   9.620   7.835
23057WAT      O69412   3.943   2.699   2.043
23057WAT     H169413   3.979   2.621   2.094
23057WAT     H269414   3.866   2.740   2.093
23058WAT      O69415   0.151   3.011   9.875
23058WAT     H169416   0.192   2.927   9.910
23058WAT     H269417   0.176   3.087   9.935
23059WAT      O69418   0.296   2.795   7.182
23059WAT     H169419   0.329   2.855   7.110
23059WAT     H269420   0.199   2.814   7.199
23060WAT      O69421   4.927   3.999   6.569
23060WAT     H169422   5.006   3.985   6.628
23060WAT     H269423   4.941   4.082   6.515
23061WAT      O69424   3.117   1.031   2.158
23061WAT     H169425   3.106   1.105   2.224
23061WAT     H269426   3.162   1.066   2.076
23062WAT      O69427   8.267   7.061   7.580
23062WAT     H169428   8.232   7.137   7.635
23062WAT     H269429   8.221   7.061   7.491
23063WAT      O69430   4.098   4.586   9.846
23063WAT     H169431   4.184   4.609   9.893
23063WAT     H269432   4.058   4.669   9.807
23064WAT      O69433   5.315   5.263   4.994
23064WAT     H169434   5.296   5.294   4.901
23064WAT     H269435   5.318   5.163   4.996
23065WAT      O69436   9.630   4.585   1.900
23065WAT     H169437   9.650   4.617   1.807
23065WAT     H269438   9.644   4.661   1.964
23066WAT      O69439   0.874   7.582   4.388
23066WAT     H169440   0.880   7.678   4.413
23066WAT     H269441   0.803   7.537   4.442
23067WAT      O69442   3.341   5.803   6.672
23067WAT     H169443   3.413   5.783   6.606
23067WAT     H269444   3.253   5.777   6.634
23068WAT      O69445   2.843   8.354   1.707
23068WAT     H169446   2.832   8.453   1.717
23068WAT     H269447   2.768   8.317   1.653
23069WAT      O69448   6.081   8.543   0.164
23069WAT     H169449   6.021   8.470   0.196
23069WAT     H269450   6.041   8.587   0.083
23070WAT      O69451   7.885   5.476   3.016
23070WAT     H169452   7.938   5.447   2.937
23070WAT     H269453   7.789   5.453   3.003
23071WAT      O69454   0.893   0.603   8.680
23071WAT     H169455   0.990   0.620   8.697
23071WAT     H269456   0.872   0.622   8.584
23072WAT      O69457   2.960   2.345   0.061
23072WAT     H169458   2.989   2.288   0.139
23072WAT     H269459   2.955   2.289  -0.021
23073WAT      O69460   1.648   7.719   1.891
23073WAT     H169461   1.670   7.752   1.799
23073WAT     H269462   1.660   7.793   1.957
23074WAT      O69463   3.550   2.456   1.285
23074WAT     H169464   3.454   2.447   1.260
23074WAT     H269465   3.568   2.402   1.367
23075WAT      O69466   8.888   7.065   2.011
23075WAT     H169467   8.924   7.144   2.060
23075WAT     H269468   8.793   7.049   2.039
23076WAT      O69469   9.635   3.994   3.337
23076WAT     H169470   9.648   3.956   3.245
23076WAT     H269471   9.580   3.930   3.391
23077WAT      O69472   0.254   2.002   3.523
23077WAT     H169473   0.162   1.976   3.551
23077WAT     H269474   0.320   1.939   3.562
23078WAT      O69475   1.963   5.250   6.995
23078WAT     H169476   1.912   5.327   6.958
23078WAT     H269477   2.053   5.246   6.952
23079WAT      O69478   0.769   5.116   7.911
23079WAT     H169479   0.708   5.119   7.831
23079WAT     H269480   0.797   5.208   7.935
23080WAT      O69481   3.531   4.570   5.017
23080WAT     H169482   3.448   4.514   5.013
23080WAT     H269483   3.507   4.665   5.036
23081WAT      O69484   6.719   6.117   9.157
23081WAT     H169485   6.751   6.207   9.128
23081WAT     H269486   6.681   6.067   9.079
23082WAT      O69487   1.979   1.988   7.301
23082WAT     H169488   1.896   1.949   7.341
23082WAT     H269489   2.040   2.019   7.374
23083WAT      O69490   4.101   3.347   8.013
23083WAT     H169491   4.021   3.334   8.072
23083WAT     H269492   4.137   3.257   7.986
23084WAT      O69493   4.734   6.631   6.294
23084WAT     H169494   4.784   6.665   6.214
23084WAT     H269495   4.773   6.673   6.377
23085WAT      O69496   1.921   1.663   4.236
23085WAT     H169497   2.014   1.627   4.243
23085WAT     H269498   1.913   1.748   4.287
23086WAT      O69499   9.353   2.954   7.399
23086WAT     H169500   9.254   2.960   7.390
23086WAT     H269501   9.378   2.945   7.496
23087WAT      O69502   5.361   3.866   6.135
23087WAT     H169503   5.446   3.865   6.082
23087WAT     H269504   5.299   3.795   6.101
23088WAT      O69505   1.652   8.643   3.614
23088WAT     H169506   1.657   8.742   3.603
23088WAT     H269507   1.585   8.605   3.550
23089WAT      O69508   3.747   0.018   7.116
23089WAT     H169509   3.726   0.066   7.032
23089WAT     H269510   3.663  -0.014   7.159
23090WAT      O69511   3.874   1.984   3.607
23090WAT     H169512   3.811   1.910   3.631
23090WAT     H269513   3.968   1.955   3.622
23091WAT      O69514   4.288   5.660   5.663
23091WAT     H169515   4.202   5.614   5.683
23091WAT     H269516   4.361   5.592   5.653
23092WAT      O69517   0.910   9.407   5.364
23092WAT     H169518   0.884   9.357   5.281
23092WAT     H269519   0.832   9.412   5.426
23093WAT      O69520   0.400   6.786   4.555
23093WAT     H169521   0.395   6.796   4.455
23093WAT     H269522   0.310   6.758   4.589
23094WAT      O69523   6.035   2.484   3.256
23094WAT     H169524   6.033   2.385   3.270
23094WAT     H269525   5.996   2.529   3.337
23095WAT      O69526   1.096   8.854   8.517
23095WAT     H169527   1.020   8.818   8.571
23095WAT     H269528   1.061   8.919   8.449
23096WAT      O69529   3.272   7.412   9.267
23096WAT     H169530   3.319   7.475   9.204
23096WAT     H269531   3.217   7.347   9.215
23097WAT      O69532   5.468   3.231   0.505
23097WAT     H169533   5.535   3.305   0.513
23097WAT     H269534   5.507   3.147   0.541
23098WAT      O69535   4.242   0.706   8.285
23098WAT     H169536   4.187   0.670   8.210
23098WAT     H269537   4.251   0.636   8.357
23099WAT      O69538   6.646   7.305   2.468
23099WAT     H169539   6.676   7.334   2.559
23099WAT     H269540   6.724   7.271   2.416
23100WAT      O69541   5.027   3.869   8.979
23100WAT     H169542   4.950   3.932   8.971
23100WAT     H269543   5.008   3.802   9.051
23101WAT      O69544   0.269   8.451   6.968
23101WAT     H169545   0.206   8.452   6.891
23101WAT     H269546   0.216   8.457   7.053
23102WAT      O69547   6.534   3.004   6.444
23102WAT     H169548   6.483   3.039   6.366
23102WAT     H269549   6.511   2.907   6.457
23103WAT      O69550   1.125   0.957   8.663
23103WAT     H169551   1.209   0.991   8.621
23103WAT     H269552   1.138   0.861   8.689
23104WAT      O69553   5.233   9.653   3.006
23104WAT     H169554   5.281   9.662   3.093
23104WAT     H269555   5.267   9.573   2.957
23105WAT      O69556   1.301   3.656   4.217
23105WAT     H169557   1.204   3.642   4.238
23105WAT     H269558   1.317   3.753   4.199
23106WAT      O69559   0.427   7.486   7.820
23106WAT     H169560   0.369   7.409   7.844
23106WAT     H269561   0.403   7.518   7.728
23107WAT      O69562   5.122   9.305   1.579
23107WAT     H169563   5.126   9.236   1.651
23107WAT     H269564   5.073   9.386   1.613
23108WAT      O69565   8.670   4.209   2.096
23108WAT     H169566   8.580   4.239   2.063
23108WAT     H269567   8.731   4.193   2.018
23109WAT      O69568   6.433   2.882   4.842
23109WAT     H169569   6.449   2.789   4.874
23109WAT     H269570   6.454   2.887   4.744
23110WAT      O69571   0.592   1.479   1.984
23110WAT     H169572   0.602   1.401   2.046
23110WAT     H269573   0.624   1.453   1.893
23111WAT      O69574   8.261   4.407   9.622
23111WAT     H169575   8.242   4.318   9.663
23111WAT     H269576   8.265   4.398   9.522
23112WAT      O69577   6.052   8.316   1.703
23112WAT     H169578   5.967   8.359   1.733
23112WAT     H269579   6.107   8.292   1.783
23113WAT      O69580   6.067   5.755   9.663
23113WAT     H169581   6.058   5.685   9.734
23113WAT     H269582   6.002   5.829   9.681
23114WAT      O69583   0.405   7.032   8.650
23114WAT     H169584   0.380   6.968   8.579
23114WAT     H269585   0.329   7.042   8.715
23115WAT      O69586   9.205   3.605   9.698
23115WAT     H169587   9.230   3.685   9.644
23115WAT     H269588   9.232   3.521   9.650
23116WAT      O69589   0.172   1.000   9.477
23116WAT     H169590   0.241   1.067   9.506
23116WAT     H269591   0.206   0.950   9.398
23117WAT      O69592   9.820   2.444   8.030
23117WAT     H169593   9.764   2.442   8.113
23117WAT     H269594   9.854   2.352   8.010
23118WAT      O69595   3.406   5.988   1.411
23118WAT     H169596   3.451   5.899   1.425
23118WAT     H269597   3.325   5.994   1.470
23119WAT      O69598   2.994   8.518   1.073
23119WAT     H169599   3.032   8.600   1.029
23119WAT     H269600   2.937   8.545   1.150
23120WAT      O69601   6.759   6.606   5.098
23120WAT     H169602   6.781   6.699   5.129
23120WAT     H269603   6.711   6.611   5.010
23121WAT      O69604   9.485   5.283   5.126
23121WAT     H169605   9.573   5.267   5.081
23121WAT     H269606   9.470   5.381   5.137
23122WAT      O69607   8.007   3.888   3.756
23122WAT     H169608   8.053   3.928   3.835
23122WAT     H269609   8.016   3.949   3.678
23123WAT      O69610   3.418   5.903   2.816
23123WAT     H169611   3.517   5.907   2.803
23123WAT     H269612   3.393   5.815   2.855
23124WAT      O69613   9.739   4.860   2.644
23124WAT     H169614   9.796   4.835   2.566
23124WAT     H269615   9.685   4.781   2.673
23125WAT      O69616   3.577   1.085   6.704
23125WAT     H169617   3.562   1.178   6.738
23125WAT     H269618   3.669   1.055   6.728
23126WAT      O69619   3.197   8.997   8.315
23126WAT     H169620   3.293   8.972   8.304
23126WAT     H269621   3.143   8.916   8.338
23127WAT      O69622   8.215   4.083   7.842
23127WAT     H169623   8.118   4.058   7.838
23127WAT     H269624   8.270   4.004   7.815
23128WAT      O69625   7.875   0.926   4.721
23128WAT     H169626   7.786   0.890   4.752
23128WAT     H269627   7.878   0.926   4.621
23129WAT      O69628   1.860   5.868   0.447
23129WAT     H169629   1.795   5.898   0.516
23129WAT     H269630   1.926   5.806   0.488
23130WAT      O69631   3.944   5.096   9.842
23130WAT     H169632   3.935   5.019   9.905
23130WAT     H269633   4.018   5.156   9.873
23131WAT      O69634   0.571   8.911   7.396
23131WAT     H169635   0.518   8.876   7.473
23131WAT     H269636   0.546   9.006   7.379
23132WAT      O69637   4.093   9.098   9.254
23132WAT     H169638   4.122   9.066   9.164
23132WAT     H269639   4.000   9.065   9.273
23133WAT      O69640   8.831   6.518   8.071
23133WAT     H169641   8.866   6.591   8.012
23133WAT     H269642   8.791   6.558   8.153
23134WAT      O69643   4.159   8.119   7.284
23134WAT     H169644   4.196   8.209   7.304
23134WAT     H269645   4.174   8.097   7.188
23135WAT      O69646   6.475   4.525   2.653
23135WAT     H169647   6.539   4.567   2.718
23135WAT     H269648   6.381   4.547   2.680
23136WAT      O69649   4.087   1.645   4.499
23136WAT     H169650   4.044   1.714   4.558
23136WAT     H269651   4.151   1.690   4.437
23137WAT      O69652   5.158   2.210   6.413
23137WAT     H169653   5.195   2.169   6.497
23137WAT     H269654   5.064   2.179   6.399
23138WAT      O69655   5.193   5.818   6.857
23138WAT     H169656   5.138   5.854   6.933
23138WAT     H269657   5.223   5.725   6.879
23139WAT      O69658   2.106   3.783   7.552
23139WAT     H169659   2.156   3.736   7.479
23139WAT     H269660   2.133   3.879   7.554
23140WAT      O69661   6.086   8.114   0.219
23140WAT     H169662   6.002   8.104   0.272
23140WAT     H269663   6.165   8.091   0.276
23141WAT      O69664   2.635   4.663   7.861
23141WAT     H169665   2.613   4.760   7.853
23141WAT     H269666   2.553   4.614   7.892
23142WAT      O69667   0.486   2.638   7.708
23142WAT     H169668   0.582   2.622   7.729
23142WAT     H269669   0.454   2.568   7.645
23143WAT      O69670   6.820   1.035   2.158
23143WAT     H169671   6.842   0.983   2.076
23143WAT     H269672   6.741   0.994   2.204
23144WAT      O69673   2.188   8.111   4.502
23144WAT     H169674   2.145   8.142   4.586
23144WAT     H269675   2.234   8.023   4.519
23145WAT      O69676   3.956   2.749   3.716
23145WAT     H169677   3.984   2.675   3.777
23145WAT     H269678   3.877   2.796   3.756
23146WAT      O69679   6.105   7.837   8.596
23146WAT     H169680   6.046   7.784   8.657
23146WAT     H269681   6.106   7.795   8.505
23147WAT      O69682   1.022   1.527   6.575
23147WAT     H169683   0.950   1.594   6.557
23147WAT     H269684   1.111   1.570   6.565
23148WAT      O69685   6.648   5.641   7.286
23148WAT     H169686   6.692   5.551   7.288
23148WAT     H269687   6.713   5.708   7.251
23149WAT      O69688   3.338   1.201   8.174
23149WAT     H169689   3.325   1.270   8.103
23149WAT     H269690   3.418   1.225   8.229
23150WAT      O69691   0.786   1.498   7.218
23150WAT     H169692   0.773   1.406   7.257
23150WAT     H269693   0.813   1.491   7.123
23151WAT      O69694   3.666   9.322   9.429
23151WAT     H169695   3.674   9.320   9.329
23151WAT     H269696   3.757   9.337   9.469
23152WAT      O69697   8.895   5.123   1.705
23152WAT     H169698   8.919   5.086   1.615
23152WAT     H269699   8.907   5.052   1.774
23153WAT      O69700   8.105   4.899   4.136
23153WAT     H169701   8.065   4.988   4.116
23153WAT     H269702   8.041   4.845   4.191
23154WAT      O69703   0.150   2.149   6.360
23154WAT     H169704   0.159   2.071   6.299
23154WAT     H269705   0.239   2.194   6.371
23155WAT      O69706   4.920   8.533   2.541
23155WAT     H169707   4.897   8.457   2.602
23155WAT     H269708   4.843   8.551   2.479
23156WAT      O69709   2.562   1.613   7.371
23156WAT     H169710   2.641   1.608   7.432
23156WAT     H269711   2.559   1.704   7.328
23157WAT      O69712   7.888   0.676   3.511
23157WAT     H169713   7.861   0.674   3.414
23157WAT     H269714   7.884   0.584   3.549
23158WAT      O69715   0.832   3.243   8.367
23158WAT     H169716   0.814   3.340   8.355
23158WAT     H269717   0.870   3.226   8.458
23159WAT      O69718   4.377   9.494   0.564
23159WAT     H169719   4.404   9.476   0.659
23159WAT     H269720   4.385   9.409   0.511
23160WAT      O69721   9.142   5.466   4.745
23160WAT     H169722   9.103   5.513   4.666
23160WAT     H269723   9.223   5.515   4.776
23161WAT      O69724   8.819   9.316   5.608
23161WAT     H169725   8.885   9.391   5.598
23161WAT     H269726   8.845   9.242   5.545
23162WAT      O69727   2.954   8.392   0.420
23162WAT     H169728   2.922   8.486   0.431
23162WAT     H269729   2.876   8.330   0.412
23163WAT      O69730   8.627   4.290   2.564
23163WAT     H169731   8.568   4.329   2.493
23163WAT     H269732   8.702   4.239   2.520
23164WAT      O69733   0.463   6.596   6.884
23164WAT     H169734   0.405   6.571   6.962
23164WAT     H269735   0.417   6.667   6.830
23165WAT      O69736   0.371   7.687   4.986
23165WAT     H169737   0.371   7.785   5.005
23165WAT     H269738   0.394   7.637   5.069
23166WAT      O69739   5.716   8.573   5.544
23166WAT     H169740   5.623   8.584   5.577
23166WAT     H269741   5.716   8.572   5.444
23167WAT      O69742   7.865   9.092   6.424
23167WAT     H169743   7.875   9.055   6.517
23167WAT     H269744   7.785   9.152   6.420
23168WAT      O69745   3.670   4.831   5.114
23168WAT     H169746   3.601   4.869   5.053
23168WAT     H269747   3.718   4.905   5.162
23169WAT      O69748   7.512   8.137   1.804
23169WAT     H169749   7.572   8.095   1.736
23169WAT     H269750   7.557   8.218   1.843
23170WAT      O69751   7.949   0.635   8.150
23170WAT     H169752   7.875   0.619   8.215
23170WAT     H269753   7.916   0.618   8.057
23171WAT      O69754   1.186   3.608   2.237
23171WAT     H169755   1.218   3.667   2.311
23171WAT     H269756   1.178   3.662   2.153
23172WAT      O69757   0.166   9.523   6.071
23172WAT     H169758   0.106   9.574   6.009
23172WAT     H269759   0.200   9.441   6.025
23173WAT      O69760   9.229   9.531   2.286
23173WAT     H169761   9.271   9.566   2.203
23173WAT     H269762   9.185   9.606   2.336
23174WAT      O69763   2.795   1.992   7.667
23174WAT     H169764   2.884   2.011   7.709
23174WAT     H269765   2.722   2.024   7.727
23175WAT      O69766   0.919   3.716   6.268
23175WAT     H169767   0.916   3.616   6.262
23175WAT     H269768   1.008   3.748   6.234
23176WAT      O69769   6.516   7.335   6.860
23176WAT     H169770   6.607   7.362   6.827
23176WAT     H269771   6.452   7.332   6.784
23177WAT      O69772   0.697   6.950   0.700
23177WAT     H169773   0.613   6.898   0.711
23177WAT     H269774   0.727   6.946   0.604
23178WAT      O69775   1.677   0.275   6.356
23178WAT     H169776   1.679   0.195   6.295
23178WAT     H269777   1.675   0.244   6.451
23179WAT      O69778   7.685   2.703   1.226
23179WAT     H169779   7.635   2.633   1.278
23179WAT     H269780   7.637   2.721   1.141
23180WAT      O69781   9.652   3.638   6.825
23180WAT     H169782   9.713   3.696   6.771
23180WAT     H269783   9.564   3.629   6.777
23181WAT      O69784   7.698   5.163   3.608
23181WAT     H169785   7.734   5.189   3.518
23181WAT     H269786   7.657   5.072   3.602
23182WAT      O69787   6.572   2.529   4.014
23182WAT     H169788   6.504   2.494   4.079
23182WAT     H269789   6.647   2.572   4.063
23183WAT      O69790   6.263   9.717   2.341
23183WAT     H169791   6.236   9.643   2.403
23183WAT     H269792   6.221   9.803   2.370
23184WAT      O69793   4.531   6.959   2.773
23184WAT     H169794   4.481   7.003   2.848
23184WAT     H269795   4.476   6.961   2.690
23185WAT      O69796   5.276   7.603   1.706
23185WAT     H169797   5.303   7.549   1.786
23185WAT     H269798   5.211   7.673   1.734
23186WAT      O69799   1.430   2.754   9.482
23186WAT     H169800   1.476   2.701   9.411
23186WAT     H269801   1.409   2.846   9.447
23187WAT      O69802   4.132   6.407   0.319
23187WAT     H169803   4.142   6.400   0.220
23187WAT     H269804   4.220   6.431   0.360
23188WAT      O69805   5.768   1.369   1.403
23188WAT     H169806   5.763   1.442   1.335
23188WAT     H269807   5.676   1.348   1.437
23189WAT      O69808   1.353   9.664   2.256
23189WAT     H169809   1.302   9.750   2.249
23189WAT     H269810   1.389   9.640   2.166
23190WAT      O69811   3.519   6.127   3.409
23190WAT     H169812   3.599   6.106   3.353
23190WAT     H269813   3.533   6.093   3.502
23191WAT      O69814   9.647   8.865   8.480
23191WAT     H169815   9.655   8.940   8.415
23191WAT     H269816   9.556   8.823   8.472
23192WAT      O69817   3.457   5.216   6.254
23192WAT     H169818   3.473   5.301   6.305
23192WAT     H269819   3.525   5.148   6.282
23193WAT      O69820   0.398   1.670   9.310
23193WAT     H169821   0.423   1.662   9.406
23193WAT     H269822   0.331   1.743   9.299
23194WAT      O69823   7.360   6.342   1.699
23194WAT     H169824   7.290   6.298   1.643
23194WAT     H269825   7.424   6.273   1.733
23195WAT      O69826   4.218   3.278   8.513
23195WAT     H169827   4.270   3.229   8.443
23195WAT     H269828   4.279   3.339   8.563
23196WAT      O69829   5.690   2.411   3.374
23196WAT     H169830   5.602   2.420   3.419
23196WAT     H269831   5.750   2.486   3.401
23197WAT      O69832   8.762   3.397   8.404
23197WAT     H169833   8.829   3.436   8.341
23197WAT     H269834   8.669   3.417   8.371
23198WAT      O69835   6.069   8.836   4.489
23198WAT     H169836   6.115   8.900   4.551
23198WAT     H269837   5.971   8.837   4.508
23199WAT      O69838   5.928   2.147   0.401
23199WAT     H169839   5.829   2.161   0.404
23199WAT     H269840   5.952   2.070   0.460
23200WAT      O69841   5.452   0.057   8.776
23200WAT     H169842   5.426   0.069   8.680
23200WAT     H269843   5.530   0.116   8.797
23201WAT      O69844   7.760   5.857   4.418
23201WAT     H169845   7.799   5.905   4.339
23201WAT     H269846   7.830   5.846   4.489
23202WAT      O69847   1.811   3.492   8.381
23202WAT     H169848   1.766   3.404   8.395
23202WAT     H269849   1.755   3.565   8.421
23203WAT      O69850   6.098   9.223   5.818
23203WAT     H169851   6.179   9.240   5.874
23203WAT     H269852   6.127   9.203   5.724
23204WAT      O69853   3.800   2.720   9.105
23204WAT     H169854   3.868   2.737   9.177
23204WAT     H269855   3.714   2.690   9.147
23205WAT      O69856   7.723   9.776   5.815
23205WAT     H169857   7.811   9.818   5.840
23205WAT     H269858   7.705   9.793   5.719
23206WAT      O69859   5.400   6.075   9.462
23206WAT     H169860   5.449   6.144   9.409
23206WAT     H269861   5.302   6.082   9.442
23207WAT      O69862   9.777   4.668   8.194
23207WAT     H169863   9.698   4.724   8.217
23207WAT     H269864   9.754   4.571   8.206
23208WAT      O69865   7.885   1.799   5.547
23208WAT     H169866   7.844   1.719   5.592
23208WAT     H269867   7.870   1.793   5.448
23209WAT      O69868   1.541   2.840   8.843
23209WAT     H169869   1.611   2.827   8.773
23209WAT     H269870   1.454   2.802   8.811
23210WAT      O69871   9.417   7.094   7.124
23210WAT     H169872   9.428   6.995   7.129
23210WAT     H269873   9.450   7.136   7.209
23211WAT      O69874   9.136   7.228   4.492
23211WAT     H169875   9.102   7.151   4.439
23211WAT     H269876   9.152   7.306   4.432
23212WAT      O69877   2.271   5.750   3.172
23212WAT     H169878   2.178   5.784   3.187
23212WAT     H269879   2.331   5.827   3.149
23213WAT      O69880   8.850   4.487   3.159
23213WAT     H169881   8.828   4.504   3.255
23213WAT     H269882   8.768   4.458   3.110
23214WAT      O69883   2.620   4.994   1.421
23214WAT     H169884   2.682   5.017   1.346
23214WAT     H269885   2.530   4.970   1.384
23215WAT      O69886   4.590   2.968   7.282
23215WAT     H169887   4.539   3.054   7.277
23215WAT     H269888   4.657   2.965   7.209
23216WAT      O69889   7.248   8.316   2.226
23216WAT     H169890   7.148   8.310   2.226
23216WAT     H269891   7.284   8.272   2.144
23217WAT      O69892   6.559   4.049   0.823
23217WAT     H169893   6.474   4.016   0.782
23217WAT     H269894   6.537   4.109   0.900
23218WAT      O69895   7.562   6.994   4.419
23218WAT     H169896   7.582   6.924   4.488
23218WAT     H269897   7.479   6.970   4.370
23219WAT      O69898   8.174   2.493   3.608
23219WAT     H169899   8.221   2.487   3.520
23219WAT     H269900   8.106   2.419   3.614
23220WAT      O69901   2.105   4.675   1.134
23220WAT     H169902   2.047   4.642   1.060
23220WAT     H269903   2.053   4.679   1.219
23221WAT      O69904   0.323   7.865   8.598
23221WAT     H169905   0.357   7.771   8.602
23221WAT     H269906   0.225   7.865   8.582
23222WAT      O69907   7.938   5.576   3.266
23222WAT     H169908   7.917   5.523   3.183
23222WAT     H269909   7.853   5.615   3.303
23223WAT      O69910   1.409   4.416   2.079
23223WAT     H169911   1.477   4.407   2.152
23223WAT     H269912   1.454   4.403   1.991
23224WAT      O69913   5.832   9.406   0.162
23224WAT     H169914   5.770   9.352   0.104
23224WAT     H269915   5.896   9.457   0.104
23225WAT      O69916   2.052   7.265   9.522
23225WAT     H169917   2.003   7.289   9.606
23225WAT     H269918   1.987   7.229   9.455
23226WAT      O69919   2.511   1.515   9.585
23226WAT     H169920   2.512   1.433   9.643
23226WAT     H269921   2.602   1.557   9.585
23227WAT      O69922   6.934   9.001   4.748
23227WAT     H169923   6.863   9.045   4.693
23227WAT     H269924   6.891   8.958   4.828
23228WAT      O69925   5.510   3.510   2.729
23228WAT     H169926   5.495   3.413   2.745
23228WAT     H269927   5.583   3.543   2.787
23229WAT      O69928   4.513   4.272   3.585
23229WAT     H169929   4.508   4.302   3.490
23229WAT     H269930   4.421   4.269   3.624
23230WAT      O69931   3.592   0.707   3.486
23230WAT     H169932   3.610   0.747   3.396
23230WAT     H269933   3.597   0.779   3.555
23231WAT      O69934   2.757   9.723   3.278
23231WAT     H169935   2.669   9.681   3.301
23231WAT     H269936   2.748   9.822   3.283
23232WAT      O69937   5.140   5.143   4.335
23232WAT     H169938   5.086   5.063   4.309
23232WAT     H269939   5.223   5.146   4.280
23233WAT      O69940   3.035   3.837   3.291
23233WAT     H169941   3.038   3.740   3.267
23233WAT     H269942   3.053   3.892   3.209
23234WAT      O69943   5.346   9.655   2.181
23234WAT     H169944   5.360   9.712   2.100
23234WAT     H269945   5.325   9.561   2.152
23235WAT      O69946   9.803   2.843   8.673
23235WAT     H169947   9.819   2.846   8.772
23235WAT     H269948   9.744   2.764   8.652
23236WAT      O69949   7.173   7.467   4.128
23236WAT     H169950   7.251   7.528   4.141
23236WAT     H269951   7.118   7.465   4.212
23237WAT      O69952   4.224   5.307   6.101
23237WAT     H169953   4.309   5.256   6.088
23237WAT     H269954   4.237   5.401   6.071
23238WAT      O69955   4.349   9.531   3.643
23238WAT     H169956   4.276   9.462   3.641
23238WAT     H269957   4.359   9.566   3.736
23239WAT      O69958   7.156   7.499   4.888
23239WAT     H169959   7.248   7.461   4.881
23239WAT     H269960   7.148   7.555   4.970
23240WAT      O69961   6.532   2.445   7.885
23240WAT     H169962   6.518   2.383   7.808
23240WAT     H269963   6.445   2.489   7.908
23241WAT      O69964   1.668   5.884   3.689
23241WAT     H169965   1.722   5.959   3.727
23241WAT     H269966   1.634   5.910   3.599
23242WAT      O69967   5.788   9.309   6.714
23242WAT     H169968   5.873   9.284   6.669
23242WAT     H269969   5.732   9.227   6.726
23243WAT      O69970   7.622   4.146   1.544
23243WAT     H169971   7.610   4.051   1.573
23243WAT     H269972   7.614   4.152   1.445
23244WAT      O69973   2.439   3.741   1.252
23244WAT     H169974   2.461   3.811   1.183
23244WAT     H269975   2.504   3.665   1.243
23245WAT      O69976   4.428   2.309   8.558
23245WAT     H169977   4.481   2.287   8.477
23245WAT     H269978   4.478   2.279   8.640
23246WAT      O69979   6.933   8.428   7.374
23246WAT     H169980   6.886   8.395   7.456
23246WAT     H269981   7.031   8.409   7.381
23247WAT      O69982   7.158   8.454   8.636
23247WAT     H169983   7.213   8.400   8.700
23247WAT     H269984   7.210   8.471   8.553
23248WAT      O69985   4.077   9.302   1.822
23248WAT     H169986   4.041   9.223   1.872
23248WAT     H269987   4.049   9.386   1.868
23249WAT      O69988   8.749   0.157   5.700
23249WAT     H169989   8.660   0.192   5.671
23249WAT     H269990   8.809   0.233   5.723
23250WAT      O69991   9.317   1.930   1.888
23250WAT     H169992   9.314   1.916   1.987
23250WAT     H269993   9.279   1.850   1.842
23251WAT      O69994   1.774   8.163   9.486
23251WAT     H169995   1.790   8.064   9.494
23251WAT     H269996   1.849   8.204   9.435
23252WAT      O69997   3.661   0.016   3.220
23252WAT     H169998   3.592   0.009   3.148
23252WAT     H269999   3.746   0.054   3.181
23253WAT      O70000   3.392   9.557   6.943
23253WAT     H170001   3.317   9.529   6.883
23253WAT     H270002   3.478   9.553   6.892
23254WAT      O70003   7.824   6.594   3.908
23254WAT     H170004   7.811   6.523   3.978
23254WAT     H270005   7.781   6.679   3.939
23255WAT      O70006   7.760   3.015   1.063
23255WAT     H170007   7.831   3.074   1.103
23255WAT     H270008   7.795   2.974   0.978
23256WAT      O70009   1.090   8.320   5.760
23256WAT     H170010   1.174   8.284   5.720
23256WAT     H270011   1.090   8.420   5.753
23257WAT      O70012   5.888   8.266   7.541
23257WAT     H170013   5.872   8.187   7.600
23257WAT     H270014   5.986   8.276   7.523
23258WAT      O70015   5.404   1.554   4.301
23258WAT     H170016   5.424   1.641   4.255
23258WAT     H270017   5.487   1.521   4.347
23259WAT      O70018   2.764   2.969   7.734
23259WAT     H170019   2.674   2.936   7.764
23259WAT     H270020   2.768   3.068   7.746
23260WAT      O70021   5.876   2.628   9.389
23260WAT     H170022   5.884   2.673   9.300
23260WAT     H270023   5.964   2.634   9.437
23261WAT      O70024   7.203   1.747   8.013
23261WAT     H170025   7.300   1.750   7.988
23261WAT     H270026   7.195   1.760   8.112
23262WAT      O70027   0.234   4.681   7.767
23262WAT     H170028   0.215   4.779   7.762
23262WAT     H270029   0.317   4.666   7.820
23263WAT      O70030   7.038   3.463   9.299
23263WAT     H170031   6.945   3.433   9.318
23263WAT     H270032   7.066   3.532   9.366
23264WAT      O70033   5.244   9.466   7.668
23264WAT     H170034   5.238   9.459   7.768
23264WAT     H270035   5.166   9.421   7.626
23265WAT      O70036   6.409   0.644   8.539
23265WAT     H170037   6.380   0.662   8.445
23265WAT     H270038   6.380   0.721   8.597
23266WAT      O70039   0.423   4.315   2.407
23266WAT     H170040   0.482   4.236   2.388
23266WAT     H270041   0.368   4.335   2.325
23267WAT      O70042   5.315   6.110   1.790
23267WAT     H170043   5.220   6.139   1.801
23267WAT     H270044   5.360   6.167   1.721
23268WAT      O70045   4.232   6.313   3.637
23268WAT     H170046   4.194   6.347   3.723
23268WAT     H270047   4.220   6.382   3.565
23269WAT      O70048   0.992   0.232   0.700
23269WAT     H170049   0.902   0.273   0.710
23269WAT     H270050   1.061   0.304   0.698
23270WAT      O70051   8.311   0.206   4.126
23270WAT     H170052   8.345   0.217   4.220
23270WAT     H270053   8.226   0.154   4.127
23271WAT      O70054   9.162   8.100   7.825
23271WAT     H170055   9.232   8.045   7.779
23271WAT     H270056   9.090   8.123   7.759
23272WAT      O70057   1.671   2.339   2.157
23272WAT     H170058   1.698   2.275   2.086
23272WAT     H270059   1.692   2.433   2.128
23273WAT      O70060   3.145   2.492   6.470
23273WAT     H170061   3.168   2.448   6.557
23273WAT     H270062   3.163   2.429   6.395
23274WAT      O70063   5.478   2.649   5.795
23274WAT     H170064   5.541   2.726   5.799
23274WAT     H270065   5.516   2.572   5.847
23275WAT      O70066   4.819   8.700   6.107
23275WAT     H170067   4.870   8.617   6.132
23275WAT     H270068   4.882   8.778   6.103
23276WAT      O70069   9.388   1.090   5.447
23276WAT     H170070   9.475   1.044   5.467
23276WAT     H270071   9.379   1.102   5.348
23277WAT      O70072   8.386   3.073   4.274
23277WAT     H170073   8.369   3.030   4.362
23277WAT     H270074   8.380   3.005   4.201
23278WAT      O70075   4.981   5.593   7.856
23278WAT     H170076   5.042   5.525   7.815
23278WAT     H270077   5.025   5.683   7.851
23279WAT      O70078   4.311   5.422   9.837
23279WAT     H170079   4.257   5.497   9.797
23279WAT     H270080   4.398   5.458   9.869
23280WAT      O70081   4.095   4.219   9.305
23280WAT     H170082   4.113   4.162   9.224
23280WAT     H270083   4.006   4.194   9.344
23281WAT      O70084   0.444   7.870   6.863
23281WAT     H170085   0.488   7.958   6.842
23281WAT     H270086   0.412   7.828   6.779
23282WAT      O70087   9.288   4.137   2.094
23282WAT     H170088   9.387   4.152   2.098
23282WAT     H270089   9.247   4.156   2.183
23283WAT      O70090   8.318   8.357   3.942
23283WAT     H170091   8.377   8.288   3.899
23283WAT     H270092   8.371   8.439   3.960
23284WAT      O70093   4.783   3.563   0.130
23284WAT     H170094   4.795   3.487   0.066
23284WAT     H270095   4.836   3.642   0.098
23285WAT      O70096   3.050   8.273   5.342
23285WAT     H170097   3.147   8.255   5.357
23285WAT     H270098   3.038   8.362   5.299
23286WAT      O70099   0.935   7.055   9.549
23286WAT     H170100   0.903   6.970   9.590
23286WAT     H270101   0.925   7.130   9.614
23287WAT      O70102   6.362   4.612   1.931
23287WAT     H170103   6.302   4.536   1.906
23287WAT     H270104   6.455   4.594   1.899
23288WAT      O70105   6.233   0.317   9.288
23288WAT     H170106   6.278   0.241   9.240
23288WAT     H270107   6.154   0.282   9.338
23289WAT      O70108   2.022   4.007   6.441
23289WAT     H170109   2.034   3.942   6.516
23289WAT     H270110   1.930   4.046   6.445
23290WAT      O70111   3.113   5.443   9.482
23290WAT     H170112   3.123   5.515   9.414
23290WAT     H270113   3.201   5.401   9.500
23291WAT      O70114   7.853   5.529   4.383
23291WAT     H170115   7.819   5.556   4.473
23291WAT     H270116   7.779   5.535   4.316
23292WAT      O70117   5.125   6.970   4.872
23292WAT     H170118   5.037   6.976   4.919
23292WAT     H270119   5.120   6.900   4.801
23293WAT      O70120   4.691   2.935   4.522
23293WAT     H170121   4.648   2.908   4.435
23293WAT     H270122   4.661   3.027   4.546
23294WAT      O70123   3.615   6.379   6.150
23294WAT     H170124   3.521   6.412   6.138
23294WAT     H270125   3.617   6.279   6.145
23295WAT      O70126   9.280   7.428   7.895
23295WAT     H170127   9.340   7.349   7.888
23295WAT     H270128   9.203   7.406   7.955
23296WAT      O70129   1.633   9.280   3.447
23296WAT     H170130   1.622   9.233   3.360
23296WAT     H270131   1.714   9.338   3.444
23297WAT      O70132   1.224   8.818   0.997
23297WAT     H170133   1.198   8.849   0.906
23297WAT     H270134   1.186   8.727   1.014
23298WAT      O70135   1.370   3.911   4.117
23298WAT     H170136   1.456   3.878   4.078
23298WAT     H270137   1.383   4.003   4.153
23299WAT      O70138   4.539   8.209   9.054
23299WAT     H170139   4.448   8.208   9.096
23299WAT     H270140   4.605   8.168   9.117
23300WAT      O70141   3.424   7.028   3.473
23300WAT     H170142   3.486   6.958   3.511
23300WAT     H270143   3.331   6.992   3.471
23301WAT      O70144   7.996   2.770   9.799
23301WAT     H170145   8.062   2.708   9.839
23301WAT     H270146   8.027   2.864   9.810
23302WAT      O70147   4.409   0.191   8.714
23302WAT     H170148   4.452   0.106   8.745
23302WAT     H270149   4.389   0.185   8.616
23303WAT      O70150   8.649   0.522   2.031
23303WAT     H170151   8.641   0.616   2.064
23303WAT     H270152   8.713   0.519   1.954
23304WAT      O70153   8.324   9.413   9.145
23304WAT     H170154   8.268   9.439   9.224
23304WAT     H270155   8.276   9.436   9.061
23305WAT      O70156   5.045   0.647   7.819
23305WAT     H170157   5.102   0.729   7.819
23305WAT     H270158   4.949   0.673   7.806
23306WAT      O70159   5.652   6.690   3.208
23306WAT     H170160   5.655   6.758   3.134
23306WAT     H270161   5.712   6.720   3.282
23307WAT      O70162   6.529   1.040   0.269
23307WAT     H170163   6.587   1.004   0.197
23307WAT     H270164   6.439   1.063   0.231
23308WAT      O70165   0.550   5.156   4.681
23308WAT     H170166   0.478   5.087   4.676
23308WAT     H270167   0.614   5.133   4.754
23309WAT      O70168   3.934   1.308   5.527
23309WAT     H170169   3.914   1.292   5.430
23309WAT     H270170   3.977   1.228   5.566
23310WAT      O70171   5.842   8.625   0.401
23310WAT     H170172   5.935   8.622   0.437
23310WAT     H270173   5.821   8.538   0.356
23311WAT      O70174   0.994   9.079   5.508
23311WAT     H170175   1.061   9.114   5.574
23311WAT     H270176   1.007   9.126   5.420
23312WAT      O70177   7.123   2.578   2.625
23312WAT     H170178   7.108   2.541   2.716
23312WAT     H270179   7.035   2.586   2.577
23313WAT      O70180   5.202   0.146   4.604
23313WAT     H170181   5.285   0.095   4.581
23313WAT     H270182   5.225   0.242   4.618
23314WAT      O70183   5.717   1.584   1.181
23314WAT     H170184   5.720   1.558   1.085
23314WAT     H270185   5.792   1.647   1.201
23315WAT      O70186   8.765   9.099   8.311
23315WAT     H170187   8.755   9.192   8.346
23315WAT     H270188   8.755   9.099   8.212
23316WAT      O70189   7.221   5.522   8.029
23316WAT     H170190   7.197   5.616   8.002
23316WAT     H270191   7.284   5.525   8.107
23317WAT      O70192   1.359   2.063   0.266
23317WAT     H170193   1.436   2.068   0.204
23317WAT     H270194   1.383   2.104   0.354
23318WAT      O70195   5.639   1.449   4.055
23318WAT     H170196   5.598   1.526   4.006
23318WAT     H270197   5.568   1.383   4.079
23319WAT      O70198   7.502   9.501   6.903
23319WAT     H170199   7.457   9.424   6.858
23319WAT     H270200   7.458   9.517   6.992
23320WAT      O70201   1.783   8.719   8.871
23320WAT     H170202   1.749   8.648   8.810
23320WAT     H270203   1.717   8.794   8.874
23321WAT      O70204   4.111   0.135   9.872
23321WAT     H170205   4.124   0.189   9.955
23321WAT     H270206   4.199   0.101   9.840
23322WAT      O70207   7.201   6.667   9.157
23322WAT     H170208   7.249   6.581   9.175
23322WAT     H270209   7.250   6.743   9.199
23323WAT      O70210   2.741   7.019   5.398
23323WAT     H170211   2.707   7.096   5.451
23323WAT     H270212   2.840   7.011   5.410
23324WAT      O70213   1.114   2.031   8.786
23324WAT     H170214   1.048   2.070   8.851
23324WAT     H270215   1.195   2.000   8.836
23325WAT      O70216   0.169   5.017   5.539
23325WAT     H170217   0.238   5.088   5.523
23325WAT     H270218   0.161   4.960   5.458
23326WAT      O70219   4.523   0.945   2.366
23326WAT     H170220   4.514   0.902   2.456
23326WAT     H270221   4.620   0.958   2.345
23327WAT      O70222   0.525   6.796   5.295
23327WAT     H170223   0.528   6.746   5.381
23327WAT     H270224   0.469   6.745   5.229
23328WAT      O70225   6.924   9.439   6.719
23328WAT     H170226   6.971   9.354   6.694
23328WAT     H270227   6.825   9.427   6.709
23329WAT      O70228   8.507   3.413   6.334
23329WAT     H170229   8.576   3.381   6.268
23329WAT     H270230   8.550   3.475   6.399
23330WAT      O70231   4.876   9.561   4.956
23330WAT     H170232   4.962   9.608   4.975
23330WAT     H270233   4.826   9.546   5.041
23331WAT      O70234   9.837   7.881   1.850
23331WAT     H170235   9.850   7.979   1.836
23331WAT     H270236   9.833   7.862   1.948
23332WAT      O70237   7.637   1.217   0.704
23332WAT     H170238   7.542   1.238   0.678
23332WAT     H270239   7.698   1.245   0.629
23333WAT      O70240   2.434   5.904   2.549
23333WAT     H170241   2.443   5.814   2.506
23333WAT     H270242   2.433   5.974   2.478
23334WAT      O70243   4.498   6.613   6.757
23334WAT     H170244   4.417   6.643   6.807
23334WAT     H270245   4.494   6.514   6.743
23335WAT      O70246   8.706   3.228   8.614
23335WAT     H170247   8.727   3.277   8.529
23335WAT     H270248   8.789   3.219   8.669
23336WAT      O70249   6.307   7.819   6.122
23336WAT     H170250   6.386   7.820   6.061
23336WAT     H270251   6.291   7.910   6.158
23337WAT      O70252   8.353   2.831   2.535
23337WAT     H170253   8.417   2.832   2.459
23337WAT     H270254   8.356   2.742   2.581
23338WAT      O70255   1.405   6.851   4.751
23338WAT     H170256   1.439   6.885   4.664
23338WAT     H270257   1.370   6.928   4.805
23339WAT      O70258   3.939   9.296   3.393
23339WAT     H170259   3.953   9.225   3.462
23339WAT     H270260   4.011   9.289   3.323
23340WAT      O70261   1.035   6.880   8.035
23340WAT     H170262   0.945   6.875   8.079
23340WAT     H270263   1.034   6.952   7.966
23341WAT      O70264   8.618   5.432   3.751
23341WAT     H170265   8.667   5.472   3.829
23341WAT     H270266   8.520   5.440   3.767
23342WAT      O70267   1.608   9.104   1.670
23342WAT     H170268   1.573   9.141   1.584
23342WAT     H270269   1.662   9.022   1.651
23343WAT      O70270   3.314   2.193   7.707
23343WAT     H170271   3.241   2.198   7.639
23343WAT     H270272   3.397   2.157   7.665
23344WAT      O70273   3.266   9.675   2.016
23344WAT     H170274   3.181   9.725   2.030
23344WAT     H270275   3.248   9.576   2.023
23345WAT      O70276   8.187   9.547   7.538
23345WAT     H170277   8.120   9.542   7.465
23345WAT     H270278   8.193   9.459   7.585
23346WAT      O70279   9.423   2.910   1.544
23346WAT     H170280   9.352   2.877   1.606
23346WAT     H270281   9.513   2.887   1.582
23347WAT      O70282   2.364   9.163   3.999
23347WAT     H170283   2.268   9.180   3.979
23347WAT     H270284   2.394   9.081   3.951
23348WAT      O70285   1.653   2.061   7.009
23348WAT     H170286   1.746   2.078   6.976
23348WAT     H270287   1.631   1.964   6.997
23349WAT      O70288   8.136   8.446   3.693
23349WAT     H170289   8.177   8.411   3.777
23349WAT     H270290   8.209   8.483   3.635
23350WAT      O70291   6.840   8.514   1.050
23350WAT     H170292   6.862   8.591   1.110
23350WAT     H270293   6.871   8.429   1.093
23351WAT      O70294   0.404   3.891   2.301
23351WAT     H170295   0.452   3.810   2.266
23351WAT     H270296   0.306   3.883   2.281
23352WAT      O70297   9.500   4.198   3.506
23352WAT     H170298   9.414   4.159   3.540
23352WAT     H270299   9.562   4.124   3.481
23353WAT      O70300   5.021   1.355   4.824
23353WAT     H170301   5.069   1.417   4.886
23353WAT     H270302   4.925   1.381   4.818
23354WAT      O70303   1.233   8.455   3.413
23354WAT     H170304   1.269   8.365   3.439
23354WAT     H270305   1.146   8.470   3.458
23355WAT      O70306   8.938   9.423   7.876
23355WAT     H170307   8.987   9.499   7.919
23355WAT     H270308   8.958   9.421   7.778
23356WAT      O70309   4.133   2.542   6.063
23356WAT     H170310   4.154   2.451   6.026
23356WAT     H270311   4.162   2.612   5.999
23357WAT      O70312   5.088   3.430   4.182
23357WAT     H170313   5.183   3.445   4.206
23357WAT     H270314   5.048   3.514   4.146
23358WAT      O70315   2.452   8.074   1.510
23358WAT     H170316   2.374   8.113   1.559
23358WAT     H270317   2.422   7.995   1.456
23359WAT      O70318   7.433   6.468   8.273
23359WAT     H170319   7.505   6.498   8.210
23359WAT     H270320   7.456   6.495   8.366
23360WAT      O70321   4.035   2.930   3.214
23360WAT     H170322   4.034   2.841   3.169
23360WAT     H270323   4.010   3.001   3.148
23361WAT      O70324   2.617   4.354   0.793
23361WAT     H170325   2.654   4.333   0.702
23361WAT     H270326   2.543   4.290   0.814
23362WAT      O70327   3.074   7.143   3.139
23362WAT     H170328   3.010   7.125   3.213
23362WAT     H270329   3.167   7.148   3.175
23363WAT      O70330   3.463   2.374   3.511
23363WAT     H170331   3.448   2.329   3.423
23363WAT     H270332   3.556   2.355   3.543
23364WAT      O70333   5.792   0.024   3.739
23364WAT     H170334   5.831   0.116   3.735
23364WAT     H270335   5.696   0.026   3.713
23365WAT      O70336   2.737   1.392   4.370
23365WAT     H170337   2.733   1.295   4.345
23365WAT     H270338   2.721   1.401   4.469
23366WAT      O70339   8.046   5.047   0.524
23366WAT     H170340   8.091   4.993   0.595
23366WAT     H270341   8.059   5.145   0.544
23367WAT      O70342   2.502   5.805   0.316
23367WAT     H170343   2.505   5.754   0.402
23367WAT     H270344   2.508   5.903   0.335
23368WAT      O70345   6.273   6.138   2.820
23368WAT     H170346   6.305   6.122   2.913
23368WAT     H270347   6.264   6.236   2.804
23369WAT      O70348   6.409   6.364   6.935
23369WAT     H170349   6.376   6.356   7.028
23369WAT     H270350   6.406   6.274   6.891
23370WAT      O70351   2.506   3.833   2.244
23370WAT     H170352   2.456   3.917   2.266
23370WAT     H270353   2.600   3.841   2.276
23371WAT      O70354   9.337   4.490   6.123
23371WAT     H170355   9.289   4.577   6.117
23371WAT     H270356   9.288   4.421   6.070
23372WAT      O70357   1.698   8.924   9.294
23372WAT     H170358   1.758   8.854   9.255
23372WAT     H270359   1.674   8.991   9.224
23373WAT      O70360   9.208   2.170   6.456
23373WAT     H170361   9.182   2.108   6.382
23373WAT     H270362   9.227   2.118   6.539
23374WAT      O70363   0.922   1.088   0.202
23374WAT     H170364   0.980   1.076   0.122
23374WAT     H270365   0.916   1.001   0.251
23375WAT      O70366   8.628   8.391   4.656
23375WAT     H170367   8.686   8.383   4.575
23375WAT     H270368   8.579   8.305   4.671
23376WAT      O70369   2.757   7.438   2.346
23376WAT     H170370   2.659   7.423   2.356
23376WAT     H270371   2.795   7.370   2.283
23377WAT      O70372   8.475   4.295   4.387
23377WAT     H170373   8.438   4.231   4.454
23377WAT     H270374   8.542   4.355   4.431
23378WAT      O70375   7.638   3.409   7.998
23378WAT     H170376   7.705   3.340   8.025
23378WAT     H270377   7.548   3.367   7.987
23379WAT      O70378   3.681   5.636   4.073
23379WAT     H170379   3.661   5.542   4.047
23379WAT     H270380   3.635   5.698   4.009
23380WAT      O70381   7.611   2.702   1.640
23380WAT     H170382   7.682   2.764   1.672
23380WAT     H270383   7.625   2.680   1.544
23381WAT      O70384   7.407   0.541   3.803
23381WAT     H170385   7.335   0.472   3.803
23381WAT     H270386   7.492   0.501   3.838
23382WAT      O70387   6.783   8.810   6.801
23382WAT     H170388   6.774   8.826   6.899
23382WAT     H270389   6.755   8.717   6.779
23383WAT      O70390   4.232   1.306   4.471
23383WAT     H170391   4.147   1.265   4.439
23383WAT     H270392   4.268   1.368   4.402
23384WAT      O70393   1.152   5.477   9.025
23384WAT     H170394   1.160   5.388   8.981
23384WAT     H270395   1.075   5.477   9.088
23385WAT      O70396   8.310   4.779   2.964
23385WAT     H170397   8.270   4.713   2.900
23385WAT     H270398   8.370   4.731   3.027
23386WAT      O70399   2.812   3.699   1.265
23386WAT     H170400   2.898   3.668   1.306
23386WAT     H270401   2.742   3.629   1.277
23387WAT      O70402   8.525   7.140   0.177
23387WAT     H170403   8.623   7.158   0.189
23387WAT     H270404   8.507   7.118   0.081
23388WAT      O70405   0.341   1.226   8.628
23388WAT     H170406   0.413   1.158   8.636
23388WAT     H270407   0.255   1.182   8.604
23389WAT      O70408   0.212   5.600   1.163
23389WAT     H170409   0.269   5.540   1.107
23389WAT     H270410   0.121   5.561   1.172
23390WAT      O70411   7.525   9.649   3.442
23390WAT     H170412   7.464   9.729   3.447
23390WAT     H270413   7.471   9.567   3.424
23391WAT      O70414   0.916   8.781   3.052
23391WAT     H170415   0.918   8.725   3.135
23391WAT     H270416   0.837   8.755   2.997
23392WAT      O70417   0.706   8.706   2.104
23392WAT     H170418   0.780   8.709   2.037
23392WAT     H270419   0.639   8.777   2.082
23393WAT      O70420   0.500   5.517   8.853
23393WAT     H170421   0.405   5.531   8.881
23393WAT     H270422   0.510   5.542   8.757
23394WAT      O70423   2.333   4.705   5.212
23394WAT     H170424   2.291   4.628   5.165
23394WAT     H270425   2.395   4.671   5.283
23395WAT      O70426   6.692   0.208   7.986
23395WAT     H170427   6.663   0.119   8.022
23395WAT     H270428   6.633   0.280   8.024
23396WAT      O70429   2.019   7.344   8.906
23396WAT     H170430   2.063   7.279   8.844
23396WAT     H270431   2.077   7.357   8.987
23397WAT      O70432   6.716   8.768   0.569
23397WAT     H170433   6.717   8.694   0.636
23397WAT     H270434   6.787   8.753   0.501
23398WAT      O70435   9.341   1.144   0.361
23398WAT     H170436   9.349   1.092   0.276
23398WAT     H270437   9.250   1.186   0.366
23399WAT      O70438   6.411   4.935   7.098
23399WAT     H170439   6.363   4.912   7.182
23399WAT     H270440   6.474   5.011   7.115
23400WAT      O70441   7.682   4.704   6.558
23400WAT     H170442   7.757   4.638   6.564
23400WAT     H270443   7.715   4.788   6.516
23401WAT      O70444   7.483   0.135   4.971
23401WAT     H170445   7.536   0.147   4.886
23401WAT     H270446   7.400   0.082   4.951
23402WAT      O70447   1.668   9.186   4.888
23402WAT     H170448   1.576   9.211   4.857
23402WAT     H270449   1.735   9.221   4.823
23403WAT      O70450   1.705   9.505   6.562
23403WAT     H170451   1.665   9.476   6.649
23403WAT     H270452   1.803   9.517   6.572
23404WAT      O70453   7.943   4.983   8.566
23404WAT     H170454   8.009   4.988   8.641
23404WAT     H270455   7.986   5.012   8.481
23405WAT      O70456   9.441   9.828   6.011
23405WAT     H170457   9.441   9.920   5.970
23405WAT     H270458   9.483   9.832   6.102
23406WAT      O70459   0.252   4.579   1.852
23406WAT     H170460   0.330   4.579   1.915
23406WAT     H270461   0.279   4.622   1.766
23407WAT      O70462   6.183   8.439   8.552
23407WAT     H170463   6.089   8.457   8.582
23407WAT     H270464   6.199   8.482   8.464
23408WAT      O70465   6.452   0.418   6.368
23408WAT     H170466   6.429   0.362   6.288
23408WAT     H270467   6.470   0.359   6.446
23409WAT      O70468   3.543   4.480   0.040
23409WAT     H170469   3.571   4.392   0.080
23409WAT     H270470   3.625   4.534   0.020
23410WAT      O70471   8.347   6.673   5.958
23410WAT     H170472   8.435   6.712   5.985
23410WAT     H270473   8.273   6.724   6.001
23411WAT      O70474   4.554   6.628   3.777
23411WAT     H170475   4.624   6.582   3.723
23411WAT     H270476   4.581   6.629   3.873
23412WAT      O70477   5.946   7.732   2.741
23412WAT     H170478   5.906   7.705   2.653
23412WAT     H270479   6.012   7.664   2.770
23413WAT      O70480   7.379   1.570   8.635
23413WAT     H170481   7.296   1.616   8.667
23413WAT     H270482   7.384   1.574   8.535
23414WAT      O70483   9.272   6.245   4.238
23414WAT     H170484   9.203   6.307   4.201
23414WAT     H270485   9.321   6.201   4.163
23415WAT      O70486   6.666   7.926   4.300
23415WAT     H170487   6.754   7.878   4.295
23415WAT     H270488   6.655   7.965   4.392
23416WAT      O70489   8.442   9.133   5.571
23416WAT     H170490   8.392   9.205   5.523
23416WAT     H270491   8.408   9.127   5.665
23417WAT      O70492   7.359   1.287   1.821
23417WAT     H170493   7.391   1.359   1.759
23417WAT     H270494   7.261   1.272   1.806
23418WAT      O70495   6.630   3.462   2.785
23418WAT     H170496   6.607   3.368   2.757
23418WAT     H270497   6.664   3.513   2.706
23419WAT      O70498   2.320   4.871   5.865
23419WAT     H170499   2.399   4.881   5.926
23419WAT     H270500   2.265   4.955   5.867
23420WAT      O70501   8.088   0.119   1.886
23420WAT     H170502   8.118   0.027   1.910
23420WAT     H270503   7.989   0.122   1.878
23421WAT      O70504   2.902   4.806   1.893
23421WAT     H170505   2.931   4.901   1.892
23421WAT     H270506   2.887   4.776   1.987
23422WAT      O70507   3.621   5.141   1.967
23422WAT     H170508   3.559   5.101   2.034
23422WAT     H270509   3.656   5.228   2.001
23423WAT      O70510   1.184   3.658   7.358
23423WAT     H170511   1.273   3.629   7.395
23423WAT     H270512   1.171   3.615   7.268
23424WAT      O70513   1.073   2.233   6.678
23424WAT     H170514   1.161   2.280   6.690
23424WAT     H270515   1.024   2.274   6.601
23425WAT      O70516   5.258   3.636   0.921
23425WAT     H170517   5.162   3.629   0.949
23425WAT     H270518   5.306   3.552   0.946
23426WAT      O70519   9.215   2.183   3.507
23426WAT     H170520   9.300   2.231   3.529
23426WAT     H270521   9.213   2.162   3.410
23427WAT      O70522   4.693   8.456   2.868
23427WAT     H170523   4.645   8.524   2.813
23427WAT     H270524   4.626   8.391   2.906
23428WAT      O70525   6.349   3.018   7.331
23428WAT     H170526   6.304   2.962   7.262
23428WAT     H270527   6.347   3.114   7.304
23429WAT      O70528   6.110   7.657   7.199
23429WAT     H170529   6.101   7.607   7.113
23429WAT     H270530   6.069   7.604   7.274
23430WAT      O70531   1.002   0.065   4.489
23430WAT     H170532   0.952  -0.017   4.462
23430WAT     H270533   0.943   0.145   4.477
23431WAT      O70534   2.104   3.028   6.129
23431WAT     H170535   2.090   3.109   6.186
23431WAT     H270536   2.152   2.959   6.182
23432WAT      O70537   3.421   9.816   2.618
23432WAT     H170538   3.340   9.873   2.629
23432WAT     H270539   3.436   9.763   2.702
23433WAT      O70540   6.220   1.229   1.062
23433WAT     H170541   6.233   1.167   1.139
23433WAT     H270542   6.214   1.177   0.977
23434WAT      O70543   5.792   4.032   7.675
23434WAT     H170544   5.804   4.131   7.679
23434WAT     H270545   5.809   4.000   7.582
23435WAT      O70546   8.245   7.021   7.274
23435WAT     H170547   8.219   6.924   7.275
23435WAT     H270548   8.272   7.047   7.182
23436WAT      O70549   9.841   8.716   9.765
23436WAT     H170550   9.792   8.708   9.852
23436WAT     H270551   9.911   8.646   9.759
23437WAT      O70552   6.619   1.678   1.970
23437WAT     H170553   6.690   1.634   1.914
23437WAT     H270554   6.628   1.777   1.964
23438WAT      O70555   9.690   8.080   9.092
23438WAT     H170556   9.709   8.131   9.176
23438WAT     H270557   9.681   8.144   9.016
23439WAT      O70558   0.403   2.018   2.587
23439WAT     H170559   0.410   2.117   2.573
23439WAT     H270560   0.428   1.971   2.503
23440WAT      O70561   1.860   3.183   9.534
23440WAT     H170562   1.927   3.123   9.578
23440WAT     H270563   1.847   3.154   9.439
23441WAT      O70564   1.563   6.928   0.912
23441WAT     H170565   1.616   6.856   0.958
23441WAT     H270566   1.465   6.911   0.925
23442WAT      O70567   1.602   6.821   5.014
23442WAT     H170568   1.553   6.823   4.926
23442WAT     H270569   1.549   6.871   5.082
23443WAT      O70570   6.282   4.920   7.648
23443WAT     H170571   6.263   5.018   7.642
23443WAT     H270572   6.337   4.893   7.569
23444WAT      O70573   8.831   1.191   0.168
23444WAT     H170574   8.801   1.240   0.087
23444WAT     H270575   8.852   1.256   0.241
23445WAT      O70576   7.883   9.574   4.043
23445WAT     H170577   7.828   9.521   3.978
23445WAT     H270578   7.956   9.621   3.994
23446WAT      O70579   8.254   0.039   3.792
23446WAT     H170580   8.326   0.005   3.733
23446WAT     H270581   8.285   0.123   3.837
23447WAT      O70582   0.470   9.784   4.619
23447WAT     H170583   0.479   9.841   4.700
23447WAT     H270584   0.421   9.834   4.548
23448WAT      O70585   0.229   9.099   4.034
23448WAT     H170586   0.151   9.058   4.082
23448WAT     H270587   0.208   9.195   4.013
23449WAT      O70588   9.107   4.250   0.375
23449WAT     H170589   9.059   4.165   0.394
23449WAT     H270590   9.043   4.319   0.342
23450WAT      O70591   9.437   6.643   4.208
23450WAT     H170592   9.509   6.574   4.204
23450WAT     H270593   9.364   6.618   4.144
23451WAT      O70594   8.617   2.648   4.406
23451WAT     H170595   8.684   2.722   4.408
23451WAT     H270596   8.530   2.682   4.370
23452WAT      O70597   8.781   9.163   3.546
23452WAT     H170598   8.876   9.190   3.561
23452WAT     H270599   8.747   9.114   3.627
23453WAT      O70600   2.478   7.657   0.564
23453WAT     H170601   2.395   7.614   0.601
23453WAT     H270602   2.493   7.744   0.609
23454WAT      O70603   6.923   1.740   6.242
23454WAT     H170604   6.976   1.683   6.305
23454WAT     H270605   6.898   1.685   6.162
23455WAT      O70606   5.035   8.853   6.083
23455WAT     H170607   5.089   8.852   6.168
23455WAT     H270608   5.096   8.841   6.005
23456WAT      O70609   0.211   7.943   3.409
23456WAT     H170610   0.176   7.976   3.321
23456WAT     H270611   0.296   7.893   3.395
23457WAT      O70612   0.252   0.242   0.055
23457WAT     H170613   0.275   0.154   0.014
23457WAT     H270614   0.220   0.305  -0.016
23458WAT      O70615   3.902   5.152   9.582
23458WAT     H170616   3.933   5.134   9.675
23458WAT     H270617   3.805   5.129   9.574
23459WAT      O70618   0.893   1.098   9.580
23459WAT     H170619   0.936   1.138   9.499
23459WAT     H270620   0.794   1.109   9.573
23460WAT      O70621   4.718   6.540   0.668
23460WAT     H170622   4.705   6.442   0.652
23460WAT     H270623   4.790   6.553   0.737
23461WAT      O70624   3.927   9.730   2.170
23461WAT     H170625   3.852   9.755   2.110
23461WAT     H270626   3.890   9.691   2.255
23462WAT      O70627   3.109   9.491   9.044
23462WAT     H170628   3.193   9.542   9.063
23462WAT     H270629   3.039   9.516   9.111
23463WAT      O70630   7.931   5.684   2.337
23463WAT     H170631   7.911   5.712   2.430
23463WAT     H270632   7.944   5.765   2.279
23464WAT      O70633   4.536   1.604   7.883
23464WAT     H170634   4.635   1.593   7.890
23464WAT     H270635   4.505   1.577   7.792
23465WAT      O70636   8.299   7.087   5.835
23465WAT     H170637   8.374   7.043   5.885
23465WAT     H270638   8.329   7.174   5.799
23466WAT      O70639   8.094   4.254   8.864
23466WAT     H170640   8.161   4.323   8.892
23466WAT     H270641   8.112   4.227   8.770
23467WAT      O70642   1.225   2.400   0.476
23467WAT     H170643   1.196   2.472   0.538
23467WAT     H270644   1.300   2.432   0.419
23468WAT      O70645   5.488   6.263   8.890
23468WAT     H170646   5.436   6.187   8.849
23468WAT     H270647   5.460   6.274   8.985
23469WAT      O70648   5.381   2.824   6.004
23469WAT     H170649   5.382   2.914   6.049
23469WAT     H270650   5.379   2.752   6.074
23470WAT      O70651   3.326   1.702   3.312
23470WAT     H170652   3.313   1.791   3.355
23470WAT     H270653   3.243   1.676   3.262
23471WAT      O70654   3.613   4.467   8.547
23471WAT     H170655   3.650   4.435   8.460
23471WAT     H270656   3.513   4.472   8.541
23472WAT      O70657   8.447   7.934   0.026
23472WAT     H170658   8.476   7.885   0.108
23472WAT     H270659   8.349   7.951   0.030
23473WAT      O70660   7.946   0.977   5.254
23473WAT     H170661   7.936   0.960   5.156
23473WAT     H270662   7.929   0.893   5.305
23474WAT      O70663   3.890   5.447   6.284
23474WAT     H170664   3.896   5.456   6.184
23474WAT     H270665   3.798   5.470   6.314
23475WAT      O70666   7.409   5.799   3.395
23475WAT     H170667   7.358   5.858   3.458
23475WAT     H270668   7.396   5.832   3.301
23476WAT      O70669   4.386   6.850   7.576
23476WAT     H170670   4.438   6.927   7.614
23476WAT     H270671   4.291   6.879   7.559
23477WAT      O70672   8.363   2.190   0.105
23477WAT     H170673   8.386   2.212   0.199
23477WAT     H270674   8.420   2.245   0.043
23478WAT      O70675   8.490   3.312   8.754
23478WAT     H170676   8.522   3.393   8.803
23478WAT     H270677   8.568   3.266   8.711
23479WAT      O70678   0.562   6.679   5.546
23479WAT     H170679   0.629   6.605   5.534
23479WAT     H270680   0.568   6.713   5.639
23480WAT      O70681   9.743   3.453   1.594
23480WAT     H170682   9.757   3.358   1.623
23480WAT     H270683   9.737   3.512   1.675
23481WAT      O70684   4.808   8.657   9.852
23481WAT     H170685   4.751   8.739   9.841
23481WAT     H270686   4.845   8.654   9.945
23482WAT      O70687   4.749   1.933   9.540
23482WAT     H170688   4.720   2.028   9.550
23482WAT     H270689   4.792   1.901   9.625
23483WAT      O70690   5.129   6.207   0.269
23483WAT     H170691   5.113   6.279   0.201
23483WAT     H270692   5.227   6.188   0.275
23484WAT      O70693   3.445   6.430   1.356
23484WAT     H170694   3.424   6.498   1.286
23484WAT     H270695   3.439   6.474   1.446
23485WAT      O70696   7.300   4.780   7.235
23485WAT     H170697   7.224   4.734   7.188
23485WAT     H270698   7.341   4.717   7.301
23486WAT      O70699   5.205   4.826   1.377
23486WAT     H170700   5.160   4.877   1.304
23486WAT     H270701   5.286   4.876   1.408
23487WAT      O70702   7.436   0.362   8.653
23487WAT     H170703   7.500   0.285   8.663
23487WAT     H270704   7.356   0.333   8.602
23488WAT      O70705   8.235   6.593   2.397
23488WAT     H170706   8.312   6.628   2.344
23488WAT     H270707   8.193   6.667   2.448
23489WAT      O70708   8.639   6.839   7.787
23489WAT     H170709   8.686   6.874   7.706
23489WAT     H270710   8.540   6.836   7.770
23490WAT      O70711   1.221   0.404   2.080
23490WAT     H170712   1.240   0.349   1.999
23490WAT     H270713   1.274   0.488   2.077
23491WAT      O70714   7.579   5.579   6.100
23491WAT     H170715   7.592   5.612   6.193
23491WAT     H270716   7.512   5.505   6.100
23492WAT      O70717   6.049   3.511   5.277
23492WAT     H170718   5.987   3.582   5.244
23492WAT     H270719   6.046   3.432   5.215
23493WAT      O70720   3.733   5.777   7.389
23493WAT     H170721   3.744   5.874   7.412
23493WAT     H270722   3.814   5.726   7.417
23494WAT      O70723   1.937   5.168   7.280
23494WAT     H170724   1.915   5.172   7.182
23494WAT     H270725   2.019   5.223   7.297
23495WAT      O70726   0.660   1.481   0.907
23495WAT     H170727   0.722   1.438   0.972
23495WAT     H270728   0.622   1.411   0.846
23496WAT      O70729   6.466   1.074   8.169
23496WAT     H170730   6.526   1.145   8.207
23496WAT     H270731   6.472   0.992   8.225
23497WAT      O70732   7.630   6.502   5.556
23497WAT     H170733   7.566   6.576   5.535
23497WAT     H270734   7.663   6.512   5.650
23498WAT      O70735   1.988   9.551   9.733
23498WAT     H170736   2.041   9.635   9.729
23498WAT     H270737   2.031   9.487   9.796
23499WAT      O70738   0.537   5.136   1.624
23499WAT     H170739   0.582   5.184   1.549
23499WAT     H270740   0.441   5.161   1.628
23500WAT      O70741   8.353   3.123   7.207
23500WAT     H170742   8.310   3.113   7.117
23500WAT     H270743   8.346   3.219   7.236
23501WAT      O70744   4.215   5.568   4.234
23501WAT     H170745   4.133   5.511   4.229
23501WAT     H270746   4.201   5.639   4.303
23502WAT      O70747   1.673   2.272   0.778
23502WAT     H170748   1.574   2.280   0.769
23502WAT     H270749   1.697   2.181   0.811
23503WAT      O70750   7.826   7.563   7.446
23503WAT     H170751   7.810   7.566   7.545
23503WAT     H270752   7.899   7.497   7.426
23504WAT      O70753   6.667   2.942   8.092
23504WAT     H170754   6.731   2.895   8.032
23504WAT     H270755   6.626   3.019   8.042
23505WAT      O70756   0.134   4.442   7.257
23505WAT     H170757   0.055   4.503   7.256
23505WAT     H270758   0.106   4.352   7.291
23506WAT      O70759   0.743   3.197   9.022
23506WAT     H170760   0.760   3.133   9.096
23506WAT     H270761   0.783   3.162   8.937
23507WAT      O70762   7.417   5.596   9.054
23507WAT     H170763   7.382   5.506   9.082
23507WAT     H270764   7.513   5.604   9.080
23508WAT      O70765   9.642   0.480   2.449
23508WAT     H170766   9.596   0.556   2.403
23508WAT     H270767   9.595   0.460   2.535
23509WAT      O70768   6.053   1.103   9.114
23509WAT     H170769   6.002   1.022   9.141
23509WAT     H270770   6.111   1.133   9.190
23510WAT      O70771   8.182   3.085   1.831
23510WAT     H170772   8.253   3.021   1.862
23510WAT     H270773   8.098   3.070   1.883
23511WAT      O70774   2.294   9.518   2.696
23511WAT     H170775   2.275   9.422   2.715
23511WAT     H270776   2.286   9.535   2.598
23512WAT      O70777   8.930   3.274   8.037
23512WAT     H170778   8.906   3.369   8.021
23512WAT     H270779   8.908   3.249   8.132
23513WAT      O70780   8.799   3.588   6.348
23513WAT     H170781   8.805   3.631   6.258
23513WAT     H270782   8.847   3.500   6.345
23514WAT      O70783   5.455   6.733   5.881
23514WAT     H170784   5.510   6.709   5.802
23514WAT     H270785   5.461   6.660   5.950
23515WAT      O70786   8.953   1.042   0.769
23515WAT     H170787   9.043   1.010   0.799
23515WAT     H270788   8.897   1.064   0.849
23516WAT      O70789   4.246   4.946   8.874
23516WAT     H170790   4.169   4.895   8.911
23516WAT     H270791   4.243   5.040   8.907
23517WAT      O70792   8.294   4.898   5.625
23517WAT     H170793   8.357   4.953   5.569
23517WAT     H270794   8.346   4.836   5.683
23518WAT      O70795   2.054   5.330   2.990
23518WAT     H170796   2.121   5.366   3.054
23518WAT     H270797   2.064   5.231   2.982
23519WAT      O70798   0.512   1.730   7.987
23519WAT     H170799   0.518   1.750   8.085
23519WAT     H270800   0.443   1.659   7.971
23520WAT      O70801   6.937   0.292   8.100
23520WAT     H170802   7.007   0.237   8.054
23520WAT     H270803   6.848   0.275   8.058
23521WAT      O70804   7.819   3.021   9.056
23521WAT     H170805   7.860   2.935   9.086
23521WAT     H270806   7.881   3.097   9.077
23522WAT      O70807   2.363   8.091   6.813
23522WAT     H170808   2.361   8.179   6.764
23522WAT     H270809   2.457   8.069   6.836
23523WAT      O70810   3.069   1.351   1.836
23523WAT     H170811   3.014   1.330   1.756
23523WAT     H270812   3.142   1.415   1.811
23524WAT      O70813   6.152   8.911   5.394
23524WAT     H170814   6.092   8.991   5.405
23524WAT     H270815   6.182   8.880   5.484
23525WAT      O70816   0.129   0.002   7.606
23525WAT     H170817   0.074   0.085   7.603
23525WAT     H270818   0.188  -0.002   7.525
23526WAT      O70819   2.275   8.961   6.702
23526WAT     H170820   2.276   9.009   6.790
23526WAT     H270821   2.188   8.913   6.692
23527WAT      O70822   3.281   9.139   3.572
23527WAT     H170823   3.206   9.074   3.582
23527WAT     H270824   3.244   9.232   3.569
23528WAT      O70825   6.782   7.854   9.424
23528WAT     H170826   6.841   7.925   9.462
23528WAT     H270827   6.693   7.893   9.402
23529WAT      O70828   9.684   6.183   4.834
23529WAT     H170829   9.692   6.269   4.783
23529WAT     H270830   9.727   6.194   4.924
23530WAT      O70831   0.590   6.685   3.162
23530WAT     H170832   0.498   6.652   3.139
23530WAT     H270833   0.648   6.606   3.184
23531WAT      O70834   9.285   0.608   3.383
23531WAT     H170835   9.323   0.563   3.465
23531WAT     H270836   9.191   0.637   3.402
23532WAT      O70837   6.529   7.305   1.716
23532WAT     H170838   6.488   7.312   1.808
23532WAT     H270839   6.457   7.291   1.649
23533WAT      O70840   2.824   6.333   3.094
23533WAT     H170841   2.751   6.385   3.138
23533WAT     H270842   2.897   6.396   3.066
23534WAT      O70843   3.983   5.714   3.601
23534WAT     H170844   4.052   5.713   3.529
23534WAT     H270845   3.973   5.808   3.635
23535WAT      O70846   5.241   2.328   1.645
23535WAT     H170847   5.301   2.249   1.656
23535WAT     H270848   5.289   2.411   1.674
23536WAT      O70849   0.519   2.516   0.948
23536WAT     H170850   0.432   2.535   0.993
23536WAT     H270851   0.523   2.420   0.921
23537WAT      O70852   9.368   7.590   7.125
23537WAT     H170853   9.417   7.537   7.194
23537WAT     H270854   9.383   7.687   7.140
23538WAT      O70855   9.275   9.249   0.159
23538WAT     H170856   9.369   9.271   0.185
23538WAT     H270857   9.276   9.179   0.089
23539WAT      O70858   3.079   5.861   2.762
23539WAT     H170859   3.178   5.866   2.779
23539WAT     H270860   3.063   5.810   2.678
23540WAT      O70861   1.898   0.396   6.853
23540WAT     H170862   1.848   0.311   6.870
23540WAT     H270863   1.994   0.377   6.839
23541WAT      O70864   0.120   8.061   3.658
23541WAT     H170865   0.170   8.030   3.739
23541WAT     H270866   0.155   8.013   3.577
23542WAT      O70867   5.702   4.300   5.324
23542WAT     H170868   5.616   4.350   5.321
23542WAT     H270869   5.769   4.350   5.379
23543WAT      O70870   9.740   3.301   5.935
23543WAT     H170871   9.792   3.380   5.967
23543WAT     H270872   9.753   3.289   5.837
23544WAT      O70873   5.310   4.732   6.150
23544WAT     H170874   5.265   4.668   6.212
23544WAT     H270875   5.399   4.758   6.187
23545WAT      O70876   8.850   1.653   2.103
23545WAT     H170877   8.765   1.682   2.058
23545WAT     H270878   8.829   1.585   2.172
23546WAT      O70879   9.565   8.261   3.588
23546WAT     H170880   9.519   8.350   3.578
23546WAT     H270881   9.527   8.196   3.522
23547WAT      O70882   7.506   7.443   3.097
23547WAT     H170883   7.407   7.448   3.083
23547WAT     H270884   7.553   7.477   3.015
23548WAT      O70885   7.766   4.551   4.168
23548WAT     H170886   7.671   4.546   4.138
23548WAT     H270887   7.827   4.542   4.089
23549WAT      O70888   9.341   2.042   2.973
23549WAT     H170889   9.387   1.982   2.908
23549WAT     H270890   9.331   2.133   2.934
23550WAT      O70891   4.245   4.611   7.703
23550WAT     H170892   4.289   4.609   7.613
23550WAT     H270893   4.151   4.578   7.694
23551WAT      O70894   9.561   0.366   4.941
23551WAT     H170895   9.553   0.293   5.009
23551WAT     H270896   9.618   0.440   4.978
23552WAT      O70897   1.662   4.689   3.782
23552WAT     H170898   1.597   4.647   3.719
23552WAT     H270899   1.657   4.643   3.871
23553WAT      O70900   2.854   1.705   1.492
23553WAT     H170901   2.802   1.790   1.505
23553WAT     H270902   2.951   1.727   1.480
23554WAT      O70903   1.708   5.992   2.075
23554WAT     H170904   1.675   5.975   1.982
23554WAT     H270905   1.679   6.083   2.104
23555WAT      O70906   2.015   0.404   0.770
23555WAT     H170907   1.939   0.466   0.754
23555WAT     H270908   2.062   0.386   0.684
23556WAT      O70909   7.455   9.294   1.033
23556WAT     H170910   7.499   9.257   1.115
23556WAT     H270911   7.422   9.219   0.976
23557WAT      O70912   1.075   7.180   6.335
23557WAT     H170913   1.015   7.100   6.330
23557WAT     H270914   1.020   7.263   6.336
23558WAT      O70915   2.308   8.748   1.406
23558WAT     H170916   2.390   8.731   1.462
23558WAT     H270917   2.330   8.814   1.335
23559WAT      O70918   6.544   4.704   6.427
23559WAT     H170919   6.449   4.736   6.418
23559WAT     H270920   6.606   4.776   6.396
23560WAT      O70921   5.650   8.828   8.870
23560WAT     H170922   5.676   8.872   8.956
23560WAT     H270923   5.554   8.848   8.850
23561WAT      O70924   8.314   4.772   4.330
23561WAT     H170925   8.220   4.745   4.310
23561WAT     H270926   8.318   4.815   4.420
23562WAT      O70927   7.017   6.494   5.378
23562WAT     H170928   7.049   6.419   5.435
23562WAT     H270929   6.918   6.486   5.364
23563WAT      O70930   3.448   3.514   2.005
23563WAT     H170931   3.394   3.445   1.957
23563WAT     H270932   3.434   3.504   2.104
23564WAT      O70933   6.059   9.387   3.216
23564WAT     H170934   6.049   9.297   3.259
23564WAT     H270935   6.097   9.451   3.283
23565WAT      O70936   1.800   1.837   1.146
23565WAT     H170937   1.853   1.869   1.067
23565WAT     H270938   1.844   1.756   1.185
23566WAT      O70939   9.094   3.034   3.492
23566WAT     H170940   9.089   3.067   3.586
23566WAT     H270941   9.015   3.069   3.440
23567WAT      O70942   3.745   1.141   8.996
23567WAT     H170943   3.671   1.142   8.930
23567WAT     H270944   3.833   1.135   8.948
23568WAT      O70945   4.435   0.317   7.811
23568WAT     H170946   4.497   0.374   7.758
23568WAT     H270947   4.485   0.272   7.885
23569WAT      O70948   0.745   3.799   4.244
23569WAT     H170949   0.733   3.885   4.293
23569WAT     H270950   0.676   3.733   4.274
23570WAT      O70951   6.452   3.135   3.475
23570WAT     H170952   6.505   3.219   3.468
23570WAT     H270953   6.433   3.116   3.571
23571WAT      O70954   7.578   6.295   2.594
23571WAT     H170955   7.673   6.316   2.573
23571WAT     H270956   7.526   6.287   2.509
23572WAT      O70957   4.546   5.055   6.982
23572WAT     H170958   4.580   5.149   6.982
23572WAT     H270959   4.448   5.054   7.003
23573WAT      O70960   0.338   8.008   2.968
23573WAT     H170961   0.435   8.008   2.995
23573WAT     H270962   0.327   8.059   2.883
23574WAT      O70963   5.414   7.452   3.403
23574WAT     H170964   5.442   7.403   3.321
23574WAT     H270965   5.438   7.549   3.394
23575WAT      O70966   5.924   3.300   1.953
23575WAT     H170967   5.903   3.231   2.022
23575WAT     H270968   5.869   3.282   1.871
23576WAT      O70969   0.925   2.119   0.183
23576WAT     H170970   0.998   2.067   0.140
23576WAT     H270971   0.959   2.161   0.267
23577WAT      O70972   4.308   7.594   1.247
23577WAT     H170973   4.217   7.555   1.261
23577WAT     H270974   4.351   7.610   1.336
23578WAT      O70975   4.442   5.567   5.904
23578WAT     H170976   4.413   5.661   5.885
23578WAT     H270977   4.431   5.549   6.002
23579WAT      O70978   7.006   1.022   2.544
23579WAT     H170979   7.072   1.083   2.587
23579WAT     H270980   7.051   0.965   2.476
23580WAT      O70981   7.894   3.013   1.608
23580WAT     H170982   7.990   2.984   1.607
23580WAT     H270983   7.847   2.973   1.529
23581WAT      O70984   1.666   8.327   0.996
23581WAT     H170985   1.566   8.317   0.997
23581WAT     H270986   1.692   8.388   0.921
23582WAT      O70987   6.977   1.293   7.477
23582WAT     H170988   6.969   1.372   7.417
23582WAT     H270989   6.925   1.217   7.439
23583WAT      O70990   8.801   6.803   4.072
23583WAT     H170991   8.864   6.764   4.139
23583WAT     H270992   8.714   6.825   4.116
23584WAT      O70993   9.401   2.300   3.819
23584WAT     H170994   9.381   2.397   3.832
23584WAT     H270995   9.421   2.282   3.723
23585WAT      O70996   2.571   0.917   1.669
23585WAT     H170997   2.610   0.833   1.632
23585WAT     H270998   2.476   0.927   1.638
23586WAT      O70999   5.813   7.561   6.768
23586WAT     H171000   5.890   7.598   6.821
23586WAT     H271001   5.844   7.537   6.676
23587WAT      O71002   0.033   2.600   6.304
23587WAT     H171003   0.030   2.687   6.353
23587WAT     H271004  -0.047   2.594   6.244
23588WAT      O71005   8.853   3.759   8.745
23588WAT     H171006   8.926   3.762   8.813
23588WAT     H271007   8.848   3.847   8.697
23589WAT      O71008   3.125   4.441   9.771
23589WAT     H171009   3.113   4.367   9.837
23589WAT     H271010   3.171   4.518   9.815
23590WAT      O71011   3.994   7.003   5.013
23590WAT     H171012   4.093   7.012   5.005
23590WAT     H271013   3.973   6.944   5.091
23591WAT      O71014   6.025   1.604   8.566
23591WAT     H171015   6.111   1.655   8.564
23591WAT     H271016   6.044   1.508   8.583
23592WAT      O71017   9.717   6.899   5.483
23592WAT     H171018   9.648   6.927   5.416
23592WAT     H271019   9.685   6.817   5.531
23593WAT      O71020   0.545   4.310   7.013
23593WAT     H171021   0.563   4.293   7.110
23593WAT     H271022   0.449   4.293   6.992
23594WAT      O71023   3.994   8.964   8.666
23594WAT     H171024   4.092   8.980   8.654
23594WAT     H271025   3.949   8.962   8.577
23595WAT      O71026   8.447   6.489   0.598
23595WAT     H171027   8.367   6.458   0.546
23595WAT     H271028   8.498   6.556   0.545
23596WAT      O71029   0.481   0.544   8.270
23596WAT     H171030   0.394   0.589   8.291
23596WAT     H271031   0.498   0.473   8.338
23597WAT      O71032   2.133   0.905   2.728
23597WAT     H171033   2.091   0.815   2.721
23597WAT     H271034   2.232   0.895   2.740
23598WAT      O71035   2.605   2.112   2.195
23598WAT     H171036   2.614   2.197   2.142
23598WAT     H271037   2.687   2.100   2.252
23599WAT      O71038   8.703   7.182   4.434
23599WAT     H171039   8.746   7.249   4.373
23599WAT     H271040   8.658   7.230   4.509
23600WAT      O71041   5.775   0.676   1.350
23600WAT     H171042   5.777   0.631   1.439
23600WAT     H271043   5.839   0.631   1.288
23601WAT      O71044   5.287   2.861   1.285
23601WAT     H171045   5.266   2.951   1.246
23601WAT     H271046   5.247   2.855   1.377
23602WAT      O71047   7.481   5.220   1.380
23602WAT     H171048   7.581   5.221   1.381
23602WAT     H271049   7.448   5.152   1.445
23603WAT      O71050   4.005   5.909   7.611
23603WAT     H171051   3.986   5.938   7.517
23603WAT     H271052   3.981   5.812   7.621
23604WAT      O71053   3.740   0.667   4.846
23604WAT     H171054   3.824   0.615   4.861
23604WAT     H271055   3.738   0.747   4.906
23605WAT      O71056   9.674   4.080   0.607
23605WAT     H171057   9.692   4.043   0.516
23605WAT     H271058   9.738   4.041   0.672
23606WAT      O71059   1.702   4.452   0.494
23606WAT     H171060   1.724   4.525   0.558
23606WAT     H271061   1.668   4.372   0.543
23607WAT      O71062   8.720   4.974   5.187
23607WAT     H171063   8.725   5.073   5.174
23607WAT     H271064   8.625   4.945   5.186
23608WAT      O71065   0.427   0.454   5.534
23608WAT     H171066   0.421   0.507   5.449
23608WAT     H271067   0.470   0.366   5.516
23609WAT      O71068   5.284   0.068   2.890
23609WAT     H171069   5.286  -0.022   2.933
23609WAT     H271070   5.224   0.065   2.810
23610WAT      O71071   1.779   9.288   1.786
23610WAT     H171072   1.723   9.236   1.722
23610WAT     H271073   1.875   9.276   1.763
23611WAT      O71074   2.758   1.867   4.292
23611WAT     H171075   2.713   1.778   4.277
23611WAT     H271076   2.700   1.923   4.351
23612WAT      O71077   6.105   4.877   2.879
23612WAT     H171078   6.118   4.976   2.879
23612WAT     H271079   6.008   4.856   2.863
23613WAT      O71080   6.027   1.407   2.007
23613WAT     H171081   6.004   1.315   1.975
23613WAT     H271082   6.022   1.409   2.107
23614WAT      O71083   7.468   6.464   0.173
23614WAT     H171084   7.451   6.511   0.259
23614WAT     H271085   7.400   6.392   0.160
23615WAT      O71086   3.576   2.056   3.397
23615WAT     H171087   3.539   2.090   3.311
23615WAT     H271088   3.595   2.132   3.459
23616WAT      O71089   0.616   3.505   8.864
23616WAT     H171090   0.537   3.545   8.911
23616WAT     H271091   0.682   3.473   8.932
23617WAT      O71092   5.684   9.483   0.380
23617WAT     H171093   5.598   9.433   0.386
23617WAT     H271094   5.732   9.458   0.296
23618WAT      O71095   9.474   4.373   3.253
23618WAT     H171096   9.545   4.330   3.309
23618WAT     H271097   9.432   4.304   3.194
23619WAT      O71098   4.428   1.426   0.758
23619WAT     H171099   4.525   1.448   0.761
23619WAT     H271100   4.379   1.499   0.711
23620WAT      O71101   4.587   1.473   0.319
23620WAT     H171102   4.528   1.413   0.373
23620WAT     H271103   4.573   1.456   0.222
23621WAT      O71104   7.045   5.231   0.297
23621WAT     H171105   7.111   5.284   0.350
23621WAT     H271106   6.958   5.227   0.347
23622WAT      O71107   2.805   7.619   1.800
23622WAT     H171108   2.786   7.522   1.782
23622WAT     H271109   2.817   7.668   1.713
23623WAT      O71110   2.149   0.340   7.156
23623WAT     H171111   2.155   0.305   7.250
23623WAT     H271112   2.067   0.396   7.147
23624WAT      O71113   8.156   5.148   6.322
23624WAT     H171114   8.111   5.209   6.256
23624WAT     H271115   8.254   5.144   6.301
23625WAT      O71116   3.581   3.133   6.438
23625WAT     H171117   3.621   3.207   6.492
23625WAT     H271118   3.628   3.127   6.349
23626WAT      O71119   6.139   7.850   4.945
23626WAT     H171120   6.123   7.794   5.026
23626WAT     H271121   6.111   7.944   4.963
23627WAT      O71122   9.775   4.320   4.259
23627WAT     H171123   9.767   4.270   4.345
23627WAT     H271124   9.790   4.417   4.277
23628WAT      O71125   0.233   5.865   4.005
23628WAT     H171126   0.134   5.859   4.010
23628WAT     H271127   0.265   5.943   4.060
23629WAT      O71128   1.186   6.488   1.390
23629WAT     H171129   1.200   6.389   1.388
23629WAT     H271130   1.091   6.509   1.367
23630WAT      O71131   5.509   9.065   7.839
23630WAT     H171132   5.448   9.106   7.907
23630WAT     H271133   5.588   9.125   7.824
23631WAT      O71134   5.354   1.014   3.401
23631WAT     H171135   5.345   1.089   3.467
23631WAT     H271136   5.406   1.046   3.322
23632WAT      O71137   3.117   0.889   9.620
23632WAT     H171138   3.179   0.896   9.541
23632WAT     H271139   3.041   0.829   9.596
23633WAT      O71140   4.905   2.203   3.552
23633WAT     H171141   4.954   2.191   3.466
23633WAT     H271142   4.921   2.295   3.587
23634WAT      O71143   8.865   8.460   3.255
23634WAT     H171144   8.890   8.496   3.165
23634WAT     H271145   8.908   8.371   3.269
23635WAT      O71146   6.856   8.308   5.829
23635WAT     H171147   6.910   8.371   5.773
23635WAT     H271148   6.786   8.264   5.773
23636WAT      O71149   3.242   2.360   6.702
23636WAT     H171150   3.195   2.273   6.687
23636WAT     H271151   3.267   2.369   6.798
23637WAT      O71152   3.894   6.573   7.273
23637WAT     H171153   3.977   6.583   7.328
23637WAT     H271154   3.829   6.645   7.297
23638WAT      O71155   3.332   7.948   9.562
23638WAT     H171156   3.241   7.989   9.562
23638WAT     H271157   3.399   8.015   9.594
23639WAT      O71158   3.197   4.421   7.273
23639WAT     H171159   3.174   4.363   7.351
23639WAT     H271160   3.200   4.517   7.302
23640WAT      O71161   6.403   4.792   7.853
23640WAT     H171162   6.358   4.861   7.796
23640WAT     H271163   6.421   4.710   7.798
23641WAT      O71164   9.251   7.807   3.585
23641WAT     H171165   9.341   7.793   3.627
23641WAT     H271166   9.228   7.727   3.529
23642WAT      O71167   8.803   9.564   1.457
23642WAT     H171168   8.719   9.511   1.466
23642WAT     H271169   8.850   9.568   1.545
23643WAT      O71170   9.702   7.500   2.847
23643WAT     H171171   9.716   7.515   2.945
23643WAT     H271172   9.668   7.407   2.832
23644WAT      O71173   8.231   0.236   5.275
23644WAT     H171174   8.184   0.265   5.358
23644WAT     H271175   8.275   0.147   5.291
23645WAT      O71176   9.167   2.538   9.560
23645WAT     H171177   9.090   2.490   9.601
23645WAT     H271178   9.210   2.597   9.628
23646WAT      O71179   7.888   8.652   6.619
23646WAT     H171180   7.919   8.642   6.524
23646WAT     H271181   7.963   8.685   6.676
23647WAT      O71182   9.343   4.656   4.995
23647WAT     H171183   9.407   4.580   4.986
23647WAT     H271184   9.284   4.641   5.074
23648WAT      O71185   8.667   1.991   5.969
23648WAT     H171186   8.629   1.902   5.944
23648WAT     H271187   8.593   2.054   5.993
23649WAT      O71188   3.510   9.141   9.568
23649WAT     H171189   3.494   9.044   9.548
23649WAT     H271190   3.546   9.186   9.487
23650WAT      O71191   8.947   0.588   4.509
23650WAT     H171192   9.039   0.626   4.518
23650WAT     H271193   8.915   0.600   4.415
23651WAT      O71194   3.460   4.621   9.685
23651WAT     H171195   3.535   4.612   9.620
23651WAT     H271196   3.467   4.549   9.754
23652WAT      O71197   1.435   4.025   6.260
23652WAT     H171198   1.351   4.025   6.314
23652WAT     H271199   1.416   4.064   6.170
23653WAT      O71200   6.509   4.707   6.781
23653WAT     H171201   6.521   4.628   6.720
23653WAT     H271202   6.547   4.686   6.871
23654WAT      O71203   3.338   1.339   3.288
23654WAT     H171204   3.253   1.326   3.238
23654WAT     H271205   3.416   1.334   3.225
23655WAT      O71206   7.790   1.685   7.126
23655WAT     H171207   7.848   1.653   7.051
23655WAT     H271208   7.703   1.637   7.124
23656WAT      O71209   3.025   6.620   2.478
23656WAT     H171210   3.107   6.585   2.433
23656WAT     H271211   3.031   6.600   2.576
23657WAT      O71212   8.743   4.373   4.958
23657WAT     H171213   8.808   4.352   4.885
23657WAT     H271214   8.722   4.470   4.957
23658WAT      O71215   6.917   7.774   4.294
23658WAT     H171216   6.946   7.721   4.214
23658WAT     H271217   6.897   7.712   4.369
23659WAT      O71218   1.058   9.490   5.688
23659WAT     H171219   1.101   9.460   5.603
23659WAT     H271220   1.110   9.567   5.726
23660WAT      O71221   0.335   1.232   0.488
23660WAT     H171222   0.287   1.220   0.574
23660WAT     H271223   0.410   1.166   0.483
23661WAT      O71224   0.080   8.971   5.364
23661WAT     H171225   0.150   9.028   5.407
23661WAT     H271226   0.012   8.943   5.432
23662WAT      O71227   4.555   0.220   2.306
23662WAT     H171228   4.494   0.190   2.233
23662WAT     H271229   4.611   0.143   2.336
23663WAT      O71230   6.968   0.477   0.210
23663WAT     H171231   6.915   0.404   0.164
23663WAT     H271232   7.036   0.435   0.270
23664WAT      O71233   5.389   4.892   1.691
23664WAT     H171234   5.375   4.956   1.766
23664WAT     H271235   5.357   4.801   1.718
23665WAT      O71236   0.263   7.385   9.559
23665WAT     H171237   0.241   7.310   9.621
23665WAT     H271238   0.187   7.399   9.496
23666WAT      O71239   6.967   0.466   3.986
23666WAT     H171240   6.937   0.420   3.902
23666WAT     H271241   6.888   0.507   4.031
23667WAT      O71242   2.700   6.706   0.669
23667WAT     H171243   2.696   6.750   0.758
23667WAT     H271244   2.616   6.727   0.618
23668WAT      O71245   9.490   3.892   0.920
23668WAT     H171246   9.452   3.968   0.867
23668WAT     H271247   9.556   3.928   0.987
23669WAT      O71248   7.614   0.652   6.069
23669WAT     H171249   7.603   0.592   6.148
23669WAT     H271250   7.660   0.736   6.097
23670WAT      O71251   7.121   6.147   1.862
23670WAT     H171252   7.112   6.156   1.763
23670WAT     H271253   7.042   6.098   1.898
23671WAT      O71254   2.486   7.546   4.647
23671WAT     H171255   2.582   7.559   4.623
23671WAT     H271256   2.429   7.556   4.566
23672WAT      O71257   0.121   3.591   7.004
23672WAT     H171258   0.214   3.558   7.019
23672WAT     H271259   0.114   3.686   7.034
23673WAT      O71260   1.139   7.669   4.986
23673WAT     H171261   1.054   7.621   4.965
23673WAT     H271262   1.213   7.632   4.930
23674WAT      O71263   1.695   5.481   1.194
23674WAT     H171264   1.655   5.546   1.258
23674WAT     H271265   1.633   5.403   1.182
23675WAT      O71266   9.335   9.108   2.052
23675WAT     H171267   9.251   9.150   2.017
23675WAT     H271268   9.339   9.120   2.151
23676WAT      O71269   3.475   6.659   4.652
23676WAT     H171270   3.461   6.650   4.553
23676WAT     H271271   3.398   6.708   4.692
23677WAT      O71272   9.834   7.400   9.852
23677WAT     H171273   9.831   7.342   9.771
23677WAT     H271274   9.878   7.487   9.830
23678WAT      O71275   1.536   3.210   1.339
23678WAT     H171276   1.505   3.301   1.367
23678WAT     H271277   1.625   3.190   1.382
23679WAT      O71278   1.302   4.679   5.777
23679WAT     H171279   1.308   4.700   5.679
23679WAT     H271280   1.300   4.764   5.830
23680WAT      O71281   0.017   2.849   7.205
23680WAT     H171282  -0.074   2.883   7.179
23680WAT     H271283   0.009   2.754   7.235
23681WAT      O71284   0.469   7.215   2.972
23681WAT     H171285   0.555   7.260   2.997
23681WAT     H271286   0.435   7.161   3.049
23682WAT      O71287   3.881   2.453   9.711
23682WAT     H171288   3.823   2.459   9.630
23682WAT     H271289   3.830   2.486   9.791
23683WAT      O71290   9.110   2.130   7.190
23683WAT     H171291   9.176   2.061   7.162
23683WAT     H271292   9.150   2.221   7.178
23684WAT      O71293   8.068   7.480   4.200
23684WAT     H171294   8.050   7.574   4.172
23684WAT     H271295   8.053   7.472   4.299
23685WAT      O71296   9.431   5.842   5.755
23685WAT     H171297   9.362   5.770   5.748
23685WAT     H271298   9.505   5.825   5.690
23686WAT      O71299   9.236   6.764   7.705
23686WAT     H171300   9.183   6.680   7.714
23686WAT     H271301   9.294   6.758   7.624
23687WAT      O71302   8.295   8.791   8.806
23687WAT     H171303   8.335   8.872   8.850
23687WAT     H271304   8.255   8.818   8.718
23688WAT      O71305   6.563   4.502   6.610
23688WAT     H171306   6.544   4.581   6.552
23688WAT     H271307   6.595   4.426   6.554
23689WAT      O71308   5.005   0.348   7.491
23689WAT     H171309   4.945   0.381   7.418
23689WAT     H271310   4.952   0.338   7.575
23690WAT      O71311   8.433   9.765   1.742
23690WAT     H171312   8.465   9.797   1.652
23690WAT     H271313   8.507   9.714   1.786
23691WAT      O71314   0.549   9.248   1.326
23691WAT     H171315   0.547   9.163   1.379
23691WAT     H271316   0.536   9.325   1.388
23692WAT      O71317   6.069   3.247   6.238
23692WAT     H171318   6.097   3.305   6.314
23692WAT     H271319   6.147   3.195   6.205
23693WAT      O71320   6.200   1.446   0.198
23693WAT     H171321   6.293   1.483   0.199
23693WAT     H271322   6.158   1.462   0.109
23694WAT      O71323   9.599   7.895   2.325
23694WAT     H171324   9.692   7.867   2.347
23694WAT     H271325   9.549   7.913   2.409
23695WAT      O71326   0.049   9.563   8.196
23695WAT     H171327   0.063   9.647   8.143
23695WAT     H271328   0.122   9.554   8.264
23696WAT      O71329   3.518   8.954   5.795
23696WAT     H171330   3.457   8.907   5.858
23696WAT     H271331   3.489   9.049   5.784
23697WAT      O71332   6.296   2.041   5.117
23697WAT     H171333   6.207   2.078   5.091
23697WAT     H271334   6.309   2.051   5.215
23698WAT      O71335   8.906   4.586   7.482
23698WAT     H171336   8.834   4.577   7.550
23698WAT     H271337   8.984   4.529   7.508
23699WAT      O71338   2.289   4.777   6.250
23699WAT     H171339   2.236   4.722   6.315
23699WAT     H271340   2.245   4.865   6.236
23700WAT      O71341   8.020   8.028   5.401
23700WAT     H171342   8.097   7.969   5.374
23700WAT     H271343   7.937   7.973   5.404
23701WAT      O71344   9.509   1.675   4.950
23701WAT     H171345   9.499   1.598   4.886
23701WAT     H271346   9.435   1.672   5.017
23702WAT      O71347   4.088   3.030   6.893
23702WAT     H171348   4.111   3.078   6.809
23702WAT     H271349   4.082   3.096   6.968
23703WAT      O71350   4.089   8.673   2.099
23703WAT     H171351   4.048   8.583   2.115
23703WAT     H271352   4.186   8.669   2.122
23704WAT      O71353   5.799   9.705   6.570
23704WAT     H171354   5.752   9.617   6.558
23704WAT     H271355   5.738   9.769   6.615
23705WAT      O71356   1.764   3.418   7.602
23705WAT     H171357   1.675   3.444   7.639
23705WAT     H271358   1.827   3.397   7.678
23706WAT      O71359   7.769   3.959   2.394
23706WAT     H171360   7.793   4.055   2.379
23706WAT     H271361   7.835   3.918   2.457
23707WAT      O71362   0.845   1.403   1.342
23707WAT     H171363   0.891   1.330   1.394
23707WAT     H271364   0.872   1.492   1.379
23708WAT      O71365   7.101   8.834   0.158
23708WAT     H171366   7.025   8.895   0.184
23708WAT     H271367   7.124   8.774   0.235
23709WAT      O71368   5.976   7.354   2.282
23709WAT     H171369   5.924   7.299   2.347
23709WAT     H271370   6.043   7.409   2.331
23710WAT      O71371   7.017   9.755   4.044
23710WAT     H171372   7.090   9.731   4.107
23710WAT     H271373   6.979   9.672   4.003
23711WAT      O71374   3.963   5.489   8.576
23711WAT     H171375   4.003   5.452   8.492
23711WAT     H271376   3.963   5.418   8.647
23712WAT      O71377   5.062   3.859   1.385
23712WAT     H171378   5.143   3.893   1.433
23712WAT     H271379   5.054   3.905   1.296
23713WAT      O71380   4.401   1.525   7.653
23713WAT     H171381   4.368   1.488   7.566
23713WAT     H271382   4.323   1.547   7.712
23714WAT      O71383   5.243   4.044   4.193
23714WAT     H171384   5.317   4.110   4.181
23714WAT     H271385   5.158   4.092   4.214
23715WAT      O71386   7.943   7.101   8.478
23715WAT     H171387   7.876   7.074   8.547
23715WAT     H271388   7.896   7.127   8.394
23716WAT      O71389   4.341   4.876   7.453
23716WAT     H171390   4.431   4.907   7.485
23716WAT     H271391   4.336   4.777   7.458
23717WAT      O71392   1.208   6.920   2.055
23717WAT     H171393   1.139   6.900   1.985
23717WAT     H271394   1.258   7.003   2.030
23718WAT      O71395   6.151   2.785   2.197
23718WAT     H171396   6.126   2.848   2.123
23718WAT     H271397   6.148   2.834   2.284
23719WAT      O71398   1.634   2.869   2.799
23719WAT     H171399   1.568   2.876   2.723
23719WAT     H271400   1.676   2.959   2.813
23720WAT      O71401   6.802   3.977   2.882
23720WAT     H171402   6.729   3.952   2.818
23720WAT     H271403   6.778   3.946   2.974
23721WAT      O71404   5.027   5.058   4.931
23721WAT     H171405   4.986   5.149   4.938
23721WAT     H271406   5.067   5.046   4.840
23722WAT      O71407   4.249   3.288   7.477
23722WAT     H171408   4.317   3.257   7.543
23722WAT     H271409   4.194   3.210   7.447
23723WAT      O71410   1.083   9.129   0.894
23723WAT     H171411   1.169   9.157   0.851
23723WAT     H271412   1.091   9.139   0.993
23724WAT      O71413   0.382   9.475   3.072
23724WAT     H171414   0.462   9.437   3.025
23724WAT     H271415   0.412   9.523   3.155
23725WAT      O71416   4.832   8.321   9.351
23725WAT     H171417   4.928   8.295   9.345
23725WAT     H271418   4.775   8.249   9.312
23726WAT      O71419   3.066   2.978   1.019
23726WAT     H171420   3.153   3.026   1.025
23726WAT     H271421   3.026   2.992   0.929
23727WAT      O71422   9.502   6.129   6.348
23727WAT     H171423   9.487   6.194   6.422
23727WAT     H271424   9.556   6.173   6.276
23728WAT      O71425   4.702   4.929   1.050
23728WAT     H171426   4.726   5.025   1.066
23728WAT     H271427   4.604   4.916   1.065
23729WAT      O71428   8.911   2.413   9.055
23729WAT     H171429   8.908   2.343   9.126
23729WAT     H271430   8.824   2.415   9.006
23730WAT      O71431   9.542   4.719   8.724
23730WAT     H171432   9.562   4.646   8.658
23730WAT     H271433   9.487   4.682   8.799
23731WAT      O71434   2.481   6.225   3.763
23731WAT     H171435   2.393   6.179   3.752
23731WAT     H271436   2.502   6.233   3.861
23732WAT      O71437   2.703   4.677   2.859
23732WAT     H171438   2.679   4.678   2.762
23732WAT     H271439   2.753   4.593   2.880
23733WAT      O71440   5.159   8.398   8.322
23733WAT     H171441   5.207   8.370   8.405
23733WAT     H271442   5.158   8.322   8.257
23734WAT      O71443   1.775   5.350   3.102
23734WAT     H171444   1.778   5.283   3.175
23734WAT     H271445   1.865   5.359   3.060
23735WAT      O71446   6.631   4.095   0.490
23735WAT     H171447   6.684   4.165   0.443
23735WAT     H271448   6.608   4.127   0.582
23736WAT      O71449   4.359   1.251   3.461
23736WAT     H171450   4.288   1.211   3.518
23736WAT     H271451   4.432   1.289   3.519
23737WAT      O71452   4.414   7.420   8.888
23737WAT     H171453   4.484   7.420   8.958
23737WAT     H271454   4.324   7.417   8.931
23738WAT      O71455   8.640   5.710   2.426
23738WAT     H171456   8.554   5.762   2.428
23738WAT     H271457   8.709   5.762   2.376
23739WAT      O71458   1.464   9.446   3.630
23739WAT     H171459   1.560   9.467   3.649
23739WAT     H271460   1.450   9.347   3.633
23740WAT      O71461   4.273   4.428   9.251
23740WAT     H171462   4.287   4.499   9.321
23740WAT     H271463   4.191   4.376   9.273
23741WAT      O71464   3.120   1.824   0.562
23741WAT     H171465   3.122   1.726   0.539
23741WAT     H271466   3.198   1.870   0.521
23742WAT      O71467   6.046   1.734   0.367
23742WAT     H171468   6.090   1.649   0.394
23742WAT     H271469   5.984   1.717   0.291
23743WAT      O71470   8.697   3.993   3.872
23743WAT     H171471   8.753   3.919   3.836
23743WAT     H271472   8.714   4.077   3.821
23744WAT      O71473   8.064   1.551   2.141
23744WAT     H171474   7.993   1.587   2.081
23744WAT     H271475   8.023   1.491   2.209
23745WAT      O71476   7.020   2.552   5.345
23745WAT     H171477   6.926   2.551   5.310
23745WAT     H271478   7.021   2.593   5.437
23746WAT      O71479   3.941   7.887   0.594
23746WAT     H171480   3.916   7.790   0.598
23746WAT     H271481   3.920   7.923   0.503
23747WAT      O71482   2.548   1.771   5.785
23747WAT     H171483   2.498   1.839   5.731
23747WAT     H271484   2.573   1.694   5.727
23748WAT      O71485   6.333   5.375   9.040
23748WAT     H171486   6.414   5.331   9.001
23748WAT     H271487   6.257   5.368   8.976
23749WAT      O71488   8.764   3.975   1.380
23749WAT     H171489   8.815   4.061   1.375
23749WAT     H271490   8.670   3.993   1.407
23750WAT      O71491   7.782   0.157   3.807
23750WAT     H171492   7.830   0.171   3.893
23750WAT     H271493   7.815   0.072   3.765
23751WAT      O71494   4.344   6.514   8.619
23751WAT     H171495   4.371   6.597   8.668
23751WAT     H271496   4.292   6.454   8.680
23752WAT      O71497   1.955   6.059   4.723
23752WAT     H171498   1.870   6.111   4.719
23752WAT     H271499   1.963   6.001   4.642
23753WAT      O71500   7.657   4.411   6.790
23753WAT     H171501   7.618   4.346   6.856
23753WAT     H271502   7.670   4.364   6.702
23754WAT      O71503   7.982   8.412   7.102
23754WAT     H171504   8.016   8.500   7.066
23754WAT     H271505   7.989   8.412   7.201
23755WAT      O71506   7.854   1.569   1.939
23755WAT     H171507   7.868   1.659   1.898
23755WAT     H271508   7.762   1.537   1.918
23756WAT      O71509   4.080   5.961   5.335
23756WAT     H171510   4.174   5.977   5.367
23756WAT     H271511   4.041   5.883   5.385
23757WAT      O71512   9.658   2.950   8.311
23757WAT     H171513   9.714   2.989   8.384
23757WAT     H271514   9.643   2.853   8.329
23758WAT      O71515   0.664   5.881   3.821
23758WAT     H171516   0.700   5.901   3.913
23758WAT     H271517   0.689   5.955   3.759
23759WAT      O71518   7.736   8.743   0.230
23759WAT     H171519   7.740   8.738   0.330
23759WAT     H271520   7.680   8.821   0.203
23760WAT      O71521   2.675   6.442   6.378
23760WAT     H171522   2.617   6.523   6.388
23760WAT     H271523   2.769   6.466   6.400
23761WAT      O71524   2.505   6.076   9.145
23761WAT     H171525   2.592   6.125   9.135
23761WAT     H271526   2.485   6.061   9.242
23762WAT      O71527   5.182   8.463   4.396
23762WAT     H171528   5.190   8.388   4.461
23762WAT     H271529   5.226   8.545   4.433
23763WAT      O71530   3.137   0.283   3.604
23763WAT     H171531   3.210   0.224   3.639
23763WAT     H271532   3.176   0.372   3.580
23764WAT      O71533   7.180   9.769   6.005
23764WAT     H171534   7.178   9.725   5.915
23764WAT     H271535   7.178   9.868   5.993
23765WAT      O71536   0.071   3.657   3.645
23765WAT     H171537   0.135   3.626   3.576
23765WAT     H271538   0.050   3.754   3.630
23766WAT      O71539   0.922   7.978   7.610
23766WAT     H171540   0.930   7.922   7.693
23766WAT     H271541   0.909   8.074   7.636
23767WAT      O71542   2.091   1.081   2.512
23767WAT     H171543   2.141   1.023   2.447
23767WAT     H271544   2.085   1.035   2.600
23768WAT      O71545   6.813   5.267   5.425
23768WAT     H171546   6.907   5.303   5.420
23768WAT     H271547   6.752   5.329   5.376
23769WAT      O71548   5.729   5.684   8.378
23769WAT     H171549   5.748   5.733   8.463
23769WAT     H271550   5.690   5.747   8.311
23770WAT      O71551   0.855   3.864   1.510
23770WAT     H171552   0.899   3.920   1.581
23770WAT     H271553   0.762   3.897   1.494
23771WAT      O71554   7.343   4.849   2.675
23771WAT     H171555   7.255   4.867   2.720
23771WAT     H271556   7.351   4.752   2.654
23772WAT      O71557   0.872   0.493   2.695
23772WAT     H171558   0.935   0.459   2.626
23772WAT     H271559   0.864   0.426   2.769
23773WAT      O71560   2.750   3.043   3.620
23773WAT     H171561   2.679   2.975   3.637
23773WAT     H271562   2.838   2.997   3.607
23774WAT      O71563   4.401   4.648   9.682
23774WAT     H171564   4.456   4.729   9.664
23774WAT     H271565   4.365   4.651   9.775
23775WAT      O71566   1.334   7.282   7.204
23775WAT     H171567   1.400   7.304   7.277
23775WAT     H271568   1.270   7.358   7.193
23776WAT      O71569   7.240   8.372   4.046
23776WAT     H171570   7.331   8.404   4.020
23776WAT     H271571   7.199   8.321   3.970
23777WAT      O71572   3.841   4.056   1.403
23777WAT     H171573   3.797   3.971   1.433
23777WAT     H271574   3.876   4.045   1.310
23778WAT      O71575   8.764   1.533   5.916
23778WAT     H171576   8.835   1.571   5.975
23778WAT     H271577   8.806   1.468   5.852
23779WAT      O71578   6.956   1.061   1.041
23779WAT     H171579   7.031   0.994   1.041
23779WAT     H271580   6.912   1.062   1.131
23780WAT      O71581   3.750   5.249   8.573
23780WAT     H171582   3.818   5.292   8.633
23780WAT     H271583   3.708   5.318   8.516
23781WAT      O71584   4.504   0.241   5.057
23781WAT     H171585   4.574   0.179   5.091
23781WAT     H271586   4.512   0.252   4.958
23782WAT      O71587   1.884   0.105   4.511
23782WAT     H171588   1.840   0.075   4.426
23782WAT     H271589   1.895   0.027   4.572
23783WAT      O71590   7.053   8.597   2.042
23783WAT     H171591   7.063   8.630   1.948
23783WAT     H271592   7.081   8.502   2.047
23784WAT      O71593   8.950   1.561   0.173
23784WAT     H171594   9.000   1.564   0.260
23784WAT     H271595   8.870   1.620   0.179
23785WAT      O71596   1.592   0.272   4.752
23785WAT     H171597   1.674   0.321   4.721
23785WAT     H271598   1.620   0.184   4.792
23786WAT      O71599   9.385   1.825   6.341
23786WAT     H171600   9.473   1.873   6.335
23786WAT     H271601   9.391   1.740   6.289
23787WAT      O71602   2.797   4.726   4.002
23787WAT     H171603   2.841   4.787   3.936
23787WAT     H271604   2.805   4.632   3.971
23788WAT      O71605   6.186   0.736   2.458
23788WAT     H171606   6.161   0.644   2.490
23788WAT     H271607   6.257   0.774   2.517
23789WAT      O71608   9.028   9.365   3.865
23789WAT     H171609   9.105   9.429   3.857
23789WAT     H271610   8.942   9.416   3.853
23790WAT      O71611   0.541   1.876   5.246
23790WAT     H171612   0.589   1.909   5.165
23790WAT     H271613   0.467   1.815   5.219
23791WAT      O71614   3.976   6.125   0.574
23791WAT     H171615   3.922   6.146   0.655
23791WAT     H271616   3.948   6.037   0.537
23792WAT      O71617   2.511   9.607   1.219
23792WAT     H171618   2.484   9.703   1.233
23792WAT     H271619   2.547   9.569   1.304
23793WAT      O71620   7.719   9.363   4.774
23793WAT     H171621   7.684   9.338   4.684
23793WAT     H271622   7.643   9.391   4.833
23794WAT      O71623   3.306   6.971   5.325
23794WAT     H171624   3.277   6.902   5.391
23794WAT     H271625   3.255   6.959   5.240
23795WAT      O71626   0.447   7.485   8.895
23795WAT     H171627   0.361   7.472   8.845
23795WAT     H271628   0.460   7.410   8.959
23796WAT      O71629   2.345   9.466   6.218
23796WAT     H171630   2.340   9.552   6.167
23796WAT     H271631   2.423   9.469   6.281
23797WAT      O71632   4.463   4.183   4.044
23797WAT     H171633   4.543   4.180   3.984
23797WAT     H271634   4.480   4.127   4.125
23798WAT      O71635   3.755   5.767   6.383
23798WAT     H171636   3.817   5.841   6.409
23798WAT     H271637   3.768   5.690   6.444
23799WAT      O71638   9.584   2.283   7.223
23799WAT     H171639   9.543   2.198   7.189
23799WAT     H271640   9.671   2.263   7.268
23800WAT      O71641   1.554   6.014   0.975
23800WAT     H171642   1.536   5.937   0.914
23800WAT     H271643   1.490   6.011   1.052
23801WAT      O71644   6.892   6.172   5.640
23801WAT     H171645   6.809   6.121   5.619
23801WAT     H271646   6.868   6.261   5.680
23802WAT      O71647   8.933   8.783   2.678
23802WAT     H171648   8.847   8.771   2.627
23802WAT     H271649   8.915   8.774   2.776
23803WAT      O71650   3.814   0.627   9.090
23803WAT     H171651   3.780   0.536   9.066
23803WAT     H271652   3.755   0.697   9.050
23804WAT      O71653   5.139   7.967   2.915
23804WAT     H171654   5.154   7.869   2.907
23804WAT     H271655   5.191   8.015   2.845
23805WAT      O71656   9.781   1.260   9.449
23805WAT     H171657   9.767   1.268   9.351
23805WAT     H271658   9.790   1.164   9.474
23806WAT      O71659   0.305   9.294   0.920
23806WAT     H171660   0.220   9.321   0.964
23806WAT     H271661   0.382   9.315   0.980
23807WAT      O71662   6.503   8.836   4.343
23807WAT     H171663   6.472   8.841   4.248
23807WAT     H271664   6.578   8.901   4.357
23808WAT      O71665   2.551   7.833   5.037
23808WAT     H171666   2.485   7.837   4.962
23808WAT     H271667   2.541   7.914   5.095
23809WAT      O71668   4.166   2.742   5.888
23809WAT     H171669   4.207   2.713   5.802
23809WAT     H271670   4.174   2.841   5.897
23810WAT      O71671   8.937   7.219   9.373
23810WAT     H171672   9.017   7.217   9.314
23810WAT     H271673   8.855   7.203   9.319
23811WAT      O71674   7.596   4.747   4.730
23811WAT     H171675   7.577   4.727   4.826
23811WAT     H271676   7.613   4.845   4.719
23812WAT      O71677   6.889   5.087   8.879
23812WAT     H171678   6.796   5.057   8.859
23812WAT     H271679   6.885   5.168   8.937
23813WAT      O71680   6.037   3.796   5.587
23813WAT     H171681   5.940   3.804   5.565
23813WAT     H271682   6.078   3.724   5.531
23814WAT      O71683   4.206   1.195   2.781
23814WAT     H171684   4.160   1.276   2.816
23814WAT     H271685   4.279   1.168   2.844
23815WAT      O71686   0.258   5.661   5.903
23815WAT     H171687   0.304   5.674   5.991
23815WAT     H271688   0.224   5.749   5.869
23816WAT      O71689   2.657   9.594   4.526
23816WAT     H171690   2.660   9.617   4.429
23816WAT     H271691   2.589   9.523   4.542
23817WAT      O71692   0.093   1.341   4.021
23817WAT     H171693   0.008   1.300   4.056
23817WAT     H271694   0.122   1.291   3.939
23818WAT      O71695   4.755   3.045   1.904
23818WAT     H171696   4.724   3.026   1.997
23818WAT     H271697   4.676   3.062   1.845
23819WAT      O71698   5.856   4.903   6.244
23819WAT     H171699   5.940   4.882   6.293
23819WAT     H271700   5.839   5.002   6.247
23820WAT      O71701   0.882   7.202   9.784
23820WAT     H171702   0.814   7.189   9.856
23820WAT     H271703   0.929   7.290   9.797
23821WAT      O71704   4.385   5.657   2.804
23821WAT     H171705   4.353   5.688   2.714
23821WAT     H271706   4.381   5.732   2.869
23822WAT      O71707   0.815   3.421   3.970
23822WAT     H171708   0.752   3.345   3.985
23822WAT     H271709   0.764   3.501   3.937
23823WAT      O71710   1.288   2.823   0.203
23823WAT     H171711   1.192   2.795   0.199
23823WAT     H271712   1.342   2.760   0.146
23824WAT      O71713   8.354   4.370   5.491
23824WAT     H171714   8.445   4.409   5.478
23824WAT     H271715   8.350   4.323   5.579
23825WAT      O71716   4.582   7.559   0.809
23825WAT     H171717   4.576   7.471   0.762
23825WAT     H271718   4.661   7.610   0.774
23826WAT      O71719   8.105   1.335   8.546
23826WAT     H171720   8.119   1.299   8.454
23826WAT     H271721   8.022   1.391   8.547
23827WAT      O71722   7.250   9.282   6.492
23827WAT     H171723   7.254   9.212   6.421
23827WAT     H271724   7.320   9.264   6.561
23828WAT      O71725   2.805   3.449   0.656
23828WAT     H171726   2.796   3.494   0.568
23828WAT     H271727   2.768   3.508   0.728
23829WAT      O71728   2.758   5.573   0.208
23829WAT     H171729   2.738   5.662   0.169
23829WAT     H271730   2.732   5.572   0.305
23830WAT      O71731   2.474   4.115   7.579
23830WAT     H171732   2.528   4.043   7.622
23830WAT     H271733   2.530   4.162   7.511
23831WAT      O71734   0.650   6.635   4.478
23831WAT     H171735   0.613   6.722   4.444
23831WAT     H271736   0.731   6.652   4.533
23832WAT      O71737   5.040   1.510   1.558
23832WAT     H171738   4.955   1.518   1.609
23832WAT     H271739   5.105   1.454   1.610
23833WAT      O71740   0.353   9.590   7.414
23833WAT     H171741   0.264   9.544   7.412
23833WAT     H271742   0.399   9.579   7.326
23834WAT      O71743   6.870   3.711   0.476
23834WAT     H171744   6.838   3.704   0.381
23834WAT     H271745   6.966   3.687   0.481
23835WAT      O71746   6.226   9.392   1.982
23835WAT     H171747   6.179   9.310   2.014
23835WAT     H271748   6.167   9.441   1.917
23836WAT      O71749   9.186   0.116   7.679
23836WAT     H171750   9.100   0.164   7.664
23836WAT     H271751   9.176   0.020   7.653
23837WAT      O71752   6.653   7.091   5.290
23837WAT     H171753   6.603   7.103   5.376
23837WAT     H271754   6.638   7.170   5.231
23838WAT      O71755   6.299   4.510   5.695
23838WAT     H171756   6.287   4.411   5.687
23838WAT     H271757   6.286   4.538   5.790
23839WAT      O71758   0.886   5.152   7.609
23839WAT     H171759   0.841   5.129   7.523
23839WAT     H271760   0.885   5.073   7.669
23840WAT      O71761   1.644   7.922   0.329
23840WAT     H171762   1.739   7.951   0.326
23840WAT     H271763   1.598   7.947   0.244
23841WAT      O71764   5.231   4.681   7.417
23841WAT     H171765   5.274   4.727   7.496
23841WAT     H271766   5.195   4.750   7.354
23842WAT      O71767   7.036   7.319   1.935
23842WAT     H171768   6.955   7.346   1.883
23842WAT     H271769   7.076   7.399   1.979
23843WAT      O71770   0.367   2.711   0.297
23843WAT     H171771   0.407   2.625   0.265
23843WAT     H271772   0.439   2.778   0.311
23844WAT      O71773   2.700   6.412   1.128
23844WAT     H171774   2.690   6.482   1.199
23844WAT     H271775   2.657   6.327   1.158
23845WAT      O71776   7.951   0.781   0.643
23845WAT     H171777   8.015   0.707   0.623
23845WAT     H271778   7.959   0.807   0.739
23846WAT      O71779   9.188   9.691   8.977
23846WAT     H171780   9.171   9.613   9.038
23846WAT     H271781   9.128   9.767   9.003
23847WAT      O71782   3.829   3.814   5.655
23847WAT     H171783   3.768   3.820   5.575
23847WAT     H271784   3.877   3.901   5.666
23848WAT      O71785   4.965   9.079   5.075
23848WAT     H171786   4.991   9.024   5.154
23848WAT     H271787   5.048   9.114   5.030
23849WAT      O71788   2.904   3.001   1.761
23849WAT     H171789   2.968   3.075   1.741
23849WAT     H271790   2.914   2.973   1.856
23850WAT      O71791   7.886   5.656   3.919
23850WAT     H171792   7.912   5.701   4.004
23850WAT     H271793   7.880   5.557   3.933
23851WAT      O71794   5.418   9.606   3.195
23851WAT     H171795   5.482   9.535   3.223
23851WAT     H271796   5.468   9.690   3.174
23852WAT      O71797   2.647   3.378   6.868
23852WAT     H171798   2.580   3.330   6.812
23852WAT     H271799   2.735   3.380   6.820
23853WAT      O71800   1.079   6.149   0.927
23853WAT     H171801   1.141   6.197   0.989
23853WAT     H271802   1.093   6.180   0.833
23854WAT      O71803   2.049   7.532   3.364
23854WAT     H171804   2.080   7.525   3.269
23854WAT     H271805   1.970   7.472   3.377
23855WAT      O71806   1.022   4.805   8.628
23855WAT     H171807   1.004   4.734   8.697
23855WAT     H271808   0.935   4.834   8.588
23856WAT      O71809   9.673   0.268   9.569
23856WAT     H171810   9.724   0.184   9.585
23856WAT     H271811   9.710   0.341   9.626
23857WAT      O71812   1.015   4.432   6.543
23857WAT     H171813   1.085   4.500   6.521
23857WAT     H271814   0.950   4.424   6.467
23858WAT      O71815   5.321   1.955   7.108
23858WAT     H171816   5.352   1.866   7.074
23858WAT     H271817   5.265   1.941   7.190
23859WAT      O71818   4.656   0.026   1.595
23859WAT     H171819   4.601   0.106   1.573
23859WAT     H271820   4.726   0.051   1.662
23860WAT      O71821   2.261   0.858   8.358
23860WAT     H171822   2.336   0.923   8.369
23860WAT     H271823   2.256   0.828   8.263
23861WAT      O71824   0.418   0.709   4.648
23861WAT     H171825   0.354   0.632   4.639
23861WAT     H271826   0.508   0.674   4.673
23862WAT      O71827   4.242   5.918   7.017
23862WAT     H171828   4.199   5.834   6.984
23862WAT     H271829   4.175   5.992   7.018
23863WAT      O71830   8.204   2.078   4.074
23863WAT     H171831   8.189   2.037   3.984
23863WAT     H271832   8.200   2.177   4.067
23864WAT      O71833   2.416   5.592   6.394
23864WAT     H171834   2.360   5.512   6.376
23864WAT     H271835   2.491   5.567   6.456
23865WAT      O71836   5.838   6.459   5.094
23865WAT     H171837   5.889   6.418   5.169
23865WAT     H271838   5.746   6.419   5.089
23866WAT      O71839   8.730   6.265   5.473
23866WAT     H171840   8.738   6.175   5.514
23866WAT     H271841   8.750   6.335   5.542
23867WAT      O71842   5.700   2.869   8.386
23867WAT     H171843   5.766   2.903   8.454
23867WAT     H271844   5.664   2.946   8.334
23868WAT      O71845   2.868   0.921   0.450
23868WAT     H171846   2.837   1.006   0.409
23868WAT     H271847   2.793   0.879   0.501
23869WAT      O71848   2.676   5.948   6.556
23869WAT     H171849   2.656   6.027   6.499
23869WAT     H271850   2.604   5.937   6.624
23870WAT      O71851   7.916   9.282   0.481
23870WAT     H171852   7.851   9.357   0.490
23870WAT     H271853   8.004   9.317   0.451
23871WAT      O71854   2.092   3.370   0.026
23871WAT     H171855   2.158   3.300   0.054
23871WAT     H271856   2.119   3.458   0.066
23872WAT      O71857   4.659   7.185   4.722
23872WAT     H171858   4.679   7.163   4.626
23872WAT     H271859   4.671   7.283   4.737
23873WAT      O71860   5.423   9.351   6.814
23873WAT     H171861   5.511   9.377   6.853
23873WAT     H271862   5.352   9.414   6.846
23874WAT      O71863   1.912   6.128   7.160
23874WAT     H171864   1.844   6.064   7.197
23874WAT     H271865   1.933   6.197   7.229
23875WAT      O71866   8.069   5.298   5.687
23875WAT     H171867   7.976   5.262   5.673
23875WAT     H271868   8.101   5.342   5.604
23876WAT      O71869   3.689   0.936   1.064
23876WAT     H171870   3.597   0.916   1.097
23876WAT     H271871   3.714   1.029   1.090
23877WAT      O71872   7.812   9.405   3.193
23877WAT     H171873   7.731   9.348   3.186
23877WAT     H271874   7.809   9.458   3.277
23878WAT      O71875   1.231   2.847   3.701
23878WAT     H171876   1.276   2.871   3.787
23878WAT     H271877   1.265   2.908   3.629
23879WAT      O71878   2.863   5.283   8.371
23879WAT     H171879   2.888   5.190   8.396
23879WAT     H271880   2.764   5.292   8.370
23880WAT      O71881   2.399   8.348   8.526
23880WAT     H171882   2.427   8.438   8.560
23880WAT     H271883   2.480   8.289   8.516
23881WAT      O71884   2.699   3.846   8.644
23881WAT     H171885   2.709   3.775   8.713
23881WAT     H271886   2.656   3.926   8.686
23882WAT      O71887   6.942   3.126   7.678
23882WAT     H171888   6.982   3.185   7.748
23882WAT     H271889   6.891   3.182   7.612
23883WAT      O71890   9.340   2.826   1.827
23883WAT     H171891   9.348   2.919   1.863
23883WAT     H271892   9.255   2.818   1.776
23884WAT      O71893   3.815   1.072   3.894
23884WAT     H171894   3.833   1.104   3.987
23884WAT     H271895   3.720   1.043   3.887
23885WAT      O71896   4.559   8.310   7.016
23885WAT     H171897   4.564   8.290   7.114
23885WAT     H271898   4.464   8.308   6.987
23886WAT      O71899   8.101   2.977   2.534
23886WAT     H171900   8.189   2.949   2.497
23886WAT     H271901   8.105   3.072   2.563
23887WAT      O71902   7.861   9.563   1.317
23887WAT     H171903   7.875   9.633   1.387
23887WAT     H271904   7.885   9.473   1.355
23888WAT      O71905   9.588   2.124   0.374
23888WAT     H171906   9.519   2.076   0.320
23888WAT     H271907   9.577   2.222   0.362
23889WAT      O71908   7.156   7.173   8.813
23889WAT     H171909   7.189   7.102   8.751
23889WAT     H271910   7.070   7.211   8.778
23890WAT      O71911   0.419   2.661   7.385
23890WAT     H171912   0.388   2.566   7.377
23890WAT     H271913   0.375   2.717   7.314
23891WAT      O71914   1.705   7.080   7.483
23891WAT     H171915   1.755   6.993   7.473
23891WAT     H271916   1.711   7.111   7.578
23892WAT      O71917   5.644   9.180   5.785
23892WAT     H171918   5.731   9.228   5.777
23892WAT     H271919   5.607   9.163   5.694
23893WAT      O71920   3.852   5.192   5.437
23893WAT     H171921   3.767   5.241   5.418
23893WAT     H271922   3.891   5.223   5.524
23894WAT      O71923   7.972   7.537   2.168
23894WAT     H171924   8.017   7.521   2.256
23894WAT     H271925   7.892   7.478   2.161
23895WAT      O71926   1.628   8.373   5.643
23895WAT     H171927   1.584   8.460   5.621
23895WAT     H271928   1.573   8.325   5.711
23896WAT      O71929   0.754   0.080   1.667
23896WAT     H171930   0.716  -0.012   1.678
23896WAT     H271931   0.850   0.079   1.694
23897WAT      O71932   5.008   7.151   7.454
23897WAT     H171933   4.919   7.159   7.410
23897WAT     H271934   4.999   7.169   7.552
23898WAT      O71935   0.889   0.651   3.804
23898WAT     H171936   0.834   0.570   3.781
23898WAT     H271937   0.907   0.703   3.721
23899WAT      O71938   0.644   8.857   8.935
23899WAT     H171939   0.636   8.852   9.034
23899WAT     H271940   0.717   8.922   8.911
23900WAT      O71941   1.736   8.718   0.444
23900WAT     H171942   1.763   8.814   0.451
23900WAT     H271943   1.810   8.666   0.401
23901WAT      O71944   9.118   8.241   6.856
23901WAT     H171945   9.143   8.250   6.759
23901WAT     H271946   9.066   8.157   6.869
23902WAT      O71947   1.810   7.112   4.698
23902WAT     H171948   1.755   7.109   4.615
23902WAT     H271949   1.862   7.027   4.707
23903WAT      O71950   9.257   2.649   1.340
23903WAT     H171951   9.168   2.694   1.338
23903WAT     H271952   9.329   2.714   1.316
23904WAT      O71953   2.265   3.358   7.439
23904WAT     H171954   2.252   3.369   7.537
23904WAT     H271955   2.279   3.261   7.417
23905WAT      O71956   1.191   0.359   8.716
23905WAT     H171957   1.179   0.342   8.618
23905WAT     H271958   1.208   0.456   8.731
23906WAT      O71959   2.954   1.129   4.722
23906WAT     H171960   2.974   1.055   4.787
23906WAT     H271961   2.888   1.095   4.654
23907WAT      O71962   5.793   3.646   3.502
23907WAT     H171963   5.708   3.595   3.487
23907WAT     H271964   5.782   3.706   3.581
23908WAT      O71965   2.168   3.663   1.913
23908WAT     H171966   2.114   3.580   1.933
23908WAT     H271967   2.147   3.695   1.821
23909WAT      O71968   2.235   0.134   6.977
23909WAT     H171969   2.206   0.208   7.038
23909WAT     H271970   2.243   0.169   6.884
23910WAT      O71971   5.617   1.464   3.632
23910WAT     H171972   5.668   1.401   3.690
23910WAT     H271973   5.644   1.452   3.537
23911WAT      O71974   5.347   3.079   3.183
23911WAT     H171975   5.427   3.063   3.125
23911WAT     H271976   5.376   3.113   3.272
23912WAT      O71977   5.772   6.080   4.512
23912WAT     H171978   5.674   6.094   4.529
23912WAT     H271979   5.817   6.169   4.506
23913WAT      O71980   9.553   7.156   2.014
23913WAT     H171981   9.641   7.201   1.995
23913WAT     H271982   9.479   7.222   2.003
23914WAT      O71983   8.587   9.698   6.634
23914WAT     H171984   8.563   9.779   6.582
23914WAT     H271985   8.506   9.662   6.680
23915WAT      O71986   4.808   8.029   0.875
23915WAT     H171987   4.851   7.970   0.944
23915WAT     H271988   4.756   7.972   0.811
23916WAT      O71989   3.863   4.788   1.286
23916WAT     H171990   3.887   4.846   1.208
23916WAT     H271991   3.786   4.729   1.261
23917WAT      O71992   4.063   7.681   2.286
23917WAT     H171993   4.140   7.737   2.315
23917WAT     H271994   4.068   7.665   2.187
23918WAT      O71995   3.922   9.130   0.860
23918WAT     H171996   3.897   9.220   0.894
23918WAT     H271997   3.857   9.101   0.790
23919WAT      O71998   0.896   5.395   3.491
23919WAT     H171999   0.885   5.462   3.565
23919WAT     H272000   0.933   5.310   3.528
23920WAT      O72001   7.533   0.529   2.923
23920WAT     H172002   7.567   0.599   2.859
23920WAT     H272003   7.567   0.439   2.895
23921WAT      O72004   4.793   4.574   8.484
23921WAT     H172005   4.737   4.653   8.460
23921WAT     H272006   4.839   4.591   8.572
23922WAT      O72007   5.279   4.637   9.428
23922WAT     H172008   5.308   4.727   9.394
23922WAT     H272009   5.194   4.646   9.478
23923WAT      O72010   7.778   7.539   4.440
23923WAT     H172011   7.695   7.534   4.497
23923WAT     H272012   7.850   7.587   4.491
23924WAT      O72013   9.620   5.457   4.377
23924WAT     H172014   9.610   5.455   4.477
23924WAT     H272015   9.716   5.441   4.353
23925WAT      O72016   7.895   6.345   8.702
23925WAT     H172017   7.892   6.303   8.792
23925WAT     H272018   7.860   6.280   8.634
23926WAT      O72019   7.599   4.295   0.458
23926WAT     H172020   7.687   4.249   0.448
23926WAT     H272021   7.571   4.333   0.370
23927WAT      O72022   4.574   7.429   5.065
23927WAT     H172023   4.596   7.343   5.111
23927WAT     H272024   4.588   7.420   4.967
23928WAT      O72025   2.013   5.408   1.872
23928WAT     H172026   2.026   5.336   1.939
23928WAT     H272027   2.089   5.408   1.807
23929WAT      O72028   8.950   6.855   7.218
23929WAT     H172029   8.993   6.876   7.306
23929WAT     H272030   9.018   6.816   7.156
23930WAT      O72031   5.365   7.330   4.869
23930WAT     H172032   5.291   7.395   4.886
23930WAT     H272033   5.451   7.365   4.906
23931WAT      O72034   7.533   9.192   2.684
23931WAT     H172035   7.583   9.276   2.662
23931WAT     H272036   7.486   9.158   2.603
23932WAT      O72037   5.092   9.756   7.451
23932WAT     H172038   5.061   9.669   7.412
23932WAT     H272039   5.055   9.765   7.544
23933WAT      O72040   4.044   7.300   4.235
23933WAT     H172041   4.054   7.395   4.266
23933WAT     H272042   4.046   7.239   4.315
23934WAT      O72043   8.720   2.622   7.624
23934WAT     H172044   8.803   2.665   7.661
23934WAT     H272045   8.740   2.528   7.596
23935WAT      O72046   3.040   9.783   2.132
23935WAT     H172047   3.034   9.882   2.142
23935WAT     H272048   3.076   9.743   2.217
23936WAT      O72049   1.402   9.171   2.924
23936WAT     H172050   1.385   9.073   2.913
23936WAT     H272051   1.500   9.187   2.939
23937WAT      O72052   7.436   6.307   6.826
23937WAT     H172053   7.431   6.349   6.735
23937WAT     H272054   7.347   6.267   6.849
23938WAT      O72055   4.438   4.778   8.279
23938WAT     H172056   4.355   4.772   8.334
23938WAT     H272057   4.449   4.694   8.226
23939WAT      O72058   5.330   6.344   6.093
23939WAT     H172059   5.260   6.303   6.151
23939WAT     H272060   5.328   6.301   6.003
23940WAT      O72061   7.397   9.747   9.042
23940WAT     H172062   7.457   9.682   9.088
23940WAT     H272063   7.452   9.819   9.000
23941WAT      O72064   2.811   9.558   6.279
23941WAT     H172065   2.884   9.533   6.216
23941WAT     H272066   2.851   9.605   6.358
23942WAT      O72067   9.018   6.797   4.859
23942WAT     H172068   9.098   6.767   4.808
23942WAT     H272069   9.040   6.801   4.957
23943WAT      O72070   8.920   0.990   8.962
23943WAT     H172071   8.854   1.051   8.918
23943WAT     H272072   8.902   0.896   8.935
23944WAT      O72073   0.854   5.820   5.324
23944WAT     H172074   0.852   5.819   5.424
23944WAT     H272075   0.774   5.772   5.288
23945WAT      O72076   1.205   6.288   1.137
23945WAT     H172077   1.212   6.381   1.100
23945WAT     H272078   1.278   6.274   1.204
23946WAT      O72079   2.542   4.497   6.162
23946WAT     H172080   2.446   4.521   6.149
23946WAT     H272081   2.570   4.520   6.256
23947WAT      O72082   6.083   8.779   8.146
23947WAT     H172083   6.088   8.802   8.244
23947WAT     H272084   6.022   8.843   8.100
23948WAT      O72085   9.111   6.045   1.231
23948WAT     H172086   9.057   6.036   1.147
23948WAT     H272087   9.050   6.037   1.310
23949WAT      O72088   6.422   8.869   4.074
23949WAT     H172089   6.346   8.824   4.028
23949WAT     H272090   6.500   8.875   4.012
23950WAT      O72091   4.990   3.357   2.853
23950WAT     H172092   5.073   3.302   2.845
23950WAT     H272093   4.998   3.438   2.795
23951WAT      O72094   4.144   6.773   3.179
23951WAT     H172095   4.211   6.753   3.250
23951WAT     H272096   4.066   6.822   3.218
23952WAT      O72097   8.575   5.216   1.030
23952WAT     H172098   8.565   5.315   1.017
23952WAT     H272099   8.631   5.199   1.111
23953WAT      O72100   6.979   3.149   4.355
23953WAT     H172101   7.073   3.115   4.354
23953WAT     H272102   6.976   3.241   4.316
23954WAT      O72103   9.285   1.226   7.966
23954WAT     H172104   9.253   1.167   8.040
23954WAT     H272105   9.363   1.182   7.920
23955WAT      O72106   7.725   1.506   6.231
23955WAT     H172107   7.701   1.597   6.265
23955WAT     H272108   7.771   1.513   6.143
23956WAT      O72109   8.542   1.419   5.135
23956WAT     H172110   8.623   1.387   5.086
23956WAT     H272111   8.559   1.415   5.233
23957WAT      O72112   1.431   3.263   8.203
23957WAT     H172113   1.390   3.268   8.294
23957WAT     H272114   1.360   3.256   8.134
23958WAT      O72115   4.775   2.438   1.579
23958WAT     H172116   4.705   2.503   1.549
23958WAT     H272117   4.749   2.345   1.550
23959WAT      O72118   6.429   2.874   4.434
23959WAT     H172119   6.419   2.867   4.334
23959WAT     H272120   6.400   2.788   4.476
23960WAT      O72121   6.966   0.719   2.793
23960WAT     H172122   6.887   0.758   2.745
23960WAT     H272123   6.947   0.624   2.816
23961WAT      O72124   2.728   7.644   3.749
23961WAT     H172125   2.714   7.559   3.800
23961WAT     H272126   2.768   7.713   3.809
23962WAT      O72127   0.960   0.700   9.228
23962WAT     H172128   0.899   0.646   9.169
23962WAT     H272129   1.054   0.665   9.218
23963WAT      O72130   5.151   2.143   6.963
23963WAT     H172131   5.083   2.108   6.899
23963WAT     H272132   5.213   2.070   6.990
23964WAT      O72133   2.545   3.128   3.430
23964WAT     H172134   2.627   3.085   3.470
23964WAT     H272135   2.504   3.190   3.497
23965WAT      O72136   5.076   1.660   4.764
23965WAT     H172137   5.155   1.643   4.707
23965WAT     H272138   5.104   1.668   4.860
23966WAT      O72139   1.306   9.733   1.561
23966WAT     H172140   1.332   9.726   1.465
23966WAT     H272141   1.206   9.735   1.569
23967WAT      O72142   2.797   2.816   1.353
23967WAT     H172143   2.812   2.884   1.281
23967WAT     H272144   2.712   2.766   1.336
23968WAT      O72145   9.408   5.914   5.289
23968WAT     H172146   9.460   5.856   5.227
23968WAT     H272147   9.324   5.868   5.317
23969WAT      O72148   6.233   7.126   9.555
23969WAT     H172149   6.300   7.165   9.492
23969WAT     H272150   6.176   7.059   9.507
23970WAT      O72151   9.798   4.069   0.093
23970WAT     H172152   9.837   4.106   0.008
23970WAT     H272153   9.801   4.139   0.164
23971WAT      O72154   3.652   6.143   4.281
23971WAT     H172155   3.619   6.052   4.254
23971WAT     H272156   3.751   6.139   4.297
23972WAT      O72157   6.336   1.898   7.886
23972WAT     H172158   6.398   1.843   7.830
23972WAT     H272159   6.329   1.858   7.977
23973WAT      O72160   5.592   7.257   4.578
23973WAT     H172161   5.495   7.240   4.592
23973WAT     H272162   5.631   7.298   4.660
23974WAT      O72163   8.840   7.117   9.815
23974WAT     H172164   8.809   7.131   9.909
23974WAT     H272165   8.938   7.136   9.810
23975WAT      O72166   3.217   4.044   5.036
23975WAT     H172167   3.208   3.951   5.000
23975WAT     H272168   3.314   4.069   5.036
23976WAT      O72169   4.653   8.370   3.563
23976WAT     H172170   4.735   8.371   3.506
23976WAT     H272171   4.680   8.368   3.659
23977WAT      O72172   9.039   1.356   8.326
23977WAT     H172173   9.106   1.430   8.335
23977WAT     H272174   9.010   1.348   8.231
23978WAT      O72175   4.082   1.799   0.745
23978WAT     H172176   4.096   1.730   0.816
23978WAT     H272177   4.143   1.876   0.762
23979WAT      O72178   6.905   7.811   1.629
23979WAT     H172179   6.930   7.907   1.644
23979WAT     H272180   6.966   7.752   1.681
23980WAT      O72181   6.462   2.948   0.792
23980WAT     H172182   6.476   3.033   0.741
23980WAT     H272183   6.540   2.931   0.852
23981WAT      O72184   0.934   4.042   7.108
23981WAT     H172185   0.883   4.014   7.189
23981WAT     H272186   1.019   4.087   7.136
23982WAT      O72187   4.223   2.538   3.814
23982WAT     H172188   4.178   2.465   3.764
23982WAT     H272189   4.178   2.551   3.902
23983WAT      O72190   2.290   0.450   2.596
23983WAT     H172191   2.218   0.409   2.540
23983WAT     H272192   2.327   0.382   2.659
23984WAT      O72193   1.814   8.005   7.412
23984WAT     H172194   1.859   8.063   7.481
23984WAT     H272195   1.810   8.055   7.326
23985WAT      O72196   2.173   4.006   1.058
23985WAT     H172197   2.144   4.102   1.061
23985WAT     H272198   2.271   4.002   1.039
23986WAT      O72199   3.228   0.979   3.316
23986WAT     H172200   3.276   0.920   3.250
23986WAT     H272201   3.132   0.952   3.319
23987WAT      O72202   1.878   1.557   4.626
23987WAT     H172203   1.873   1.528   4.721
23987WAT     H272204   1.855   1.480   4.566
23988WAT      O72205   4.915   4.605   2.507
23988WAT     H172206   4.900   4.519   2.556
23988WAT     H272207   4.827   4.644   2.480
23989WAT      O72208   5.724   1.325   3.858
23989WAT     H172209   5.710   1.382   3.939
23989WAT     H272210   5.813   1.280   3.864
23990WAT      O72211   6.014   1.103   5.775
23990WAT     H172212   6.002   1.123   5.677
23990WAT     H272213   5.995   1.185   5.828
23991WAT      O72214   0.845   7.701   0.728
23991WAT     H172215   0.920   7.750   0.772
23991WAT     H272216   0.875   7.665   0.639
23992WAT      O72217   5.024   3.155   1.566
23992WAT     H172218   5.051   3.060   1.583
23992WAT     H272219   5.017   3.203   1.653
23993WAT      O72220   6.717   0.612   1.762
23993WAT     H172221   6.618   0.597   1.759
23993WAT     H272222   6.759   0.577   1.679
23994WAT      O72223   5.017   6.166   9.838
23994WAT     H172224   5.069   6.153   9.754
23994WAT     H272225   4.977   6.079   9.867
23995WAT      O72226   1.030   7.412   1.080
23995WAT     H172227   1.003   7.497   1.125
23995WAT     H272228   1.079   7.354   1.146
23996WAT      O72229   1.042   4.750   8.176
23996WAT     H172230   0.975   4.804   8.228
23996WAT     H272231   1.092   4.809   8.114
23997WAT      O72232   4.946   9.653   5.524
23997WAT     H172233   5.013   9.648   5.598
23997WAT     H272234   4.981   9.606   5.443
23998WAT      O72235   0.889   4.802   6.685
23998WAT     H172236   0.919   4.877   6.627
23998WAT     H272237   0.843   4.733   6.629
23999WAT      O72238   2.103   5.151   3.513
23999WAT     H172239   2.053   5.071   3.545
23999WAT     H272240   2.169   5.123   3.444
24000WAT      O72241   4.933   0.698   2.489
24000WAT     H172242   4.902   0.791   2.469
24000WAT     H272243   4.877   0.633   2.437
24001WAT      O72244   9.107   8.017   9.242
24001WAT     H172245   9.150   7.997   9.154
24001WAT     H272246   9.042   8.093   9.231
24002WAT      O72247   7.590   2.821   8.378
24002WAT     H172248   7.511   2.762   8.358
24002WAT     H272249   7.669   2.763   8.399
24003WAT      O72250   6.702   8.790   9.552
24003WAT     H172251   6.620   8.831   9.592
24003WAT     H272252   6.746   8.856   9.491
24004WAT      O72253   5.226   3.252   1.973
24004WAT     H172254   5.156   3.190   2.008
24004WAT     H272255   5.274   3.209   1.896
24005WAT      O72256   2.537   2.625   7.639
24005WAT     H172257   2.491   2.563   7.702
24005WAT     H272258   2.480   2.640   7.558
24006WAT      O72259   0.234   6.528   7.035
24006WAT     H172260   0.153   6.480   7.001
24006WAT     H272261   0.214   6.568   7.124
24007WAT      O72262   8.466   2.102   2.302
24007WAT     H172263   8.554   2.149   2.299
24007WAT     H272264   8.401   2.158   2.354
24008WAT      O72265   2.270   5.730   9.461
24008WAT     H172266   2.236   5.702   9.371
24008WAT     H272267   2.274   5.650   9.521
24009WAT      O72268   8.145   6.545   5.166
24009WAT     H172269   8.111   6.478   5.099
24009WAT     H272270   8.245   6.545   5.165
24010WAT      O72271   9.234   7.670   5.240
24010WAT     H172272   9.259   7.645   5.333
24010WAT     H272273   9.167   7.744   5.242
24011WAT      O72274   5.732   0.588   4.399
24011WAT     H172275   5.757   0.527   4.474
24011WAT     H272276   5.720   0.534   4.315
24012WAT      O72277   0.107   3.869   1.856
24012WAT     H172278   0.165   3.794   1.825
24012WAT     H272279   0.019   3.864   1.810
24013WAT      O72280   3.958   5.978   3.666
24013WAT     H172281   3.898   6.017   3.736
24013WAT     H272282   3.923   6.001   3.576
24014WAT      O72283   0.018   5.522   4.805
24014WAT     H172284   0.079   5.482   4.874
24014WAT     H272285   0.046   5.616   4.787
24015WAT      O72286   5.479   6.813   9.832
24015WAT     H172287   5.569   6.773   9.849
24015WAT     H272288   5.476   6.906   9.869
24016WAT      O72289   4.217   5.636   7.421
24016WAT     H172290   4.278   5.693   7.365
24016WAT     H272291   4.261   5.617   7.509
24017WAT      O72292   0.291   9.039   3.772
24017WAT     H172293   0.286   9.051   3.872
24017WAT     H272294   0.367   8.979   3.749
24018WAT      O72295   2.821   8.645   3.313
24018WAT     H172296   2.906   8.698   3.315
24018WAT     H272297   2.751   8.693   3.366
24019WAT      O72298   1.902   0.043   9.630
24019WAT     H172299   1.829   0.035   9.697
24019WAT     H272300   1.882   0.117   9.566
24020WAT      O72301   5.510   0.672   4.031
24020WAT     H172302   5.458   0.756   4.045
24020WAT     H272303   5.516   0.652   3.933
24021WAT      O72304   7.629   0.806   4.811
24021WAT     H172305   7.596   0.847   4.897
24021WAT     H272306   7.557   0.814   4.742
24022WAT      O72307   0.514   6.761   9.622
24022WAT     H172308   0.552   6.732   9.534
24022WAT     H272309   0.581   6.820   9.669
24023WAT      O72310   9.416   8.869   7.534
24023WAT     H172311   9.335   8.810   7.538
24023WAT     H272312   9.428   8.916   7.621
24024WAT      O72313   5.306   3.335   7.302
24024WAT     H172314   5.387   3.344   7.360
24024WAT     H272315   5.332   3.297   7.213
24025WAT      O72316   6.353   9.536   0.586
24025WAT     H172317   6.314   9.605   0.525
24025WAT     H272318   6.415   9.580   0.651
24026WAT      O72319   5.058   9.048   4.628
24026WAT     H172320   5.104   9.128   4.667
24026WAT     H272321   5.012   9.075   4.543
24027WAT      O72322   3.358   3.314   6.448
24027WAT     H172323   3.442   3.260   6.444
24027WAT     H272324   3.280   3.257   6.424
24028WAT      O72325   1.819   0.391   4.928
24028WAT     H172326   1.871   0.420   4.849
24028WAT     H272327   1.844   0.446   5.008
24029WAT      O72328   5.524   1.884   9.633
24029WAT     H172329   5.496   1.923   9.545
24029WAT     H272330   5.574   1.799   9.617
24030WAT      O72331   2.482   9.241   4.843
24030WAT     H172332   2.415   9.249   4.770
24030WAT     H272333   2.436   9.238   4.931
24031WAT      O72334   9.616   0.006   3.934
24031WAT     H172335   9.617   0.085   3.995
24031WAT     H272336   9.667   0.028   3.851
24032WAT      O72337   9.726   0.072   3.264
24032WAT     H172338   9.777   0.131   3.201
24032WAT     H272339   9.717  -0.019   3.224
24033WAT      O72340   1.646   3.454   2.068
24033WAT     H172341   1.668   3.454   1.970
24033WAT     H272342   1.552   3.423   2.081
24034WAT      O72343   8.265   9.275   0.244
24034WAT     H172344   8.355   9.247   0.278
24034WAT     H272345   8.203   9.196   0.243
24035WAT      O72346   2.209   6.686   7.890
24035WAT     H172347   2.192   6.741   7.972
24035WAT     H272348   2.161   6.599   7.898
24036WAT      O72349   5.229   1.898   7.824
24036WAT     H172350   5.217   1.997   7.830
24036WAT     H272351   5.221   1.869   7.728
24037WAT      O72352   1.931   8.142   7.624
24037WAT     H172353   1.909   8.235   7.656
24037WAT     H272354   1.920   8.078   7.700
24038WAT      O72355   0.133   9.004   7.324
24038WAT     H172356   0.077   8.953   7.389
24038WAT     H272357   0.175   8.939   7.260
24039WAT      O72358   9.662   9.586   6.338
24039WAT     H172359   9.742   9.525   6.336
24039WAT     H272360   9.581   9.533   6.361
24040WAT      O72361   5.559   9.596   5.637
24040WAT     H172362   5.582   9.582   5.734
24040WAT     H272363   5.643   9.608   5.585
24041WAT      O72364   1.362   6.850   9.464
24041WAT     H172365   1.281   6.838   9.407
24041WAT     H272366   1.438   6.880   9.406
24042WAT      O72367   7.045   9.158   7.261
24042WAT     H172368   7.008   9.164   7.354
24042WAT     H272369   7.128   9.213   7.255
24043WAT      O72370   6.718   8.686   8.244
24043WAT     H172371   6.768   8.736   8.173
24043WAT     H272372   6.748   8.718   8.334
24044WAT      O72373   4.109   2.551   9.602
24044WAT     H172374   4.163   2.475   9.567
24044WAT     H272375   4.025   2.516   9.643
24045WAT      O72376   7.771   8.747   9.247
24045WAT     H172377   7.715   8.822   9.212
24045WAT     H272378   7.761   8.668   9.186
24046WAT      O72379   9.473   5.187   5.856
24046WAT     H172380   9.555   5.189   5.798
24046WAT     H272381   9.495   5.226   5.945
24047WAT      O72382   8.989   2.795   0.946
24047WAT     H172383   9.080   2.755   0.937
24047WAT     H272384   8.953   2.775   1.037
24048WAT      O72385   9.086   3.842   1.550
24048WAT     H172386   8.990   3.825   1.572
24048WAT     H272387   9.098   3.848   1.451
24049WAT      O72388   1.767   4.585   1.887
24049WAT     H172389   1.767   4.528   1.804
24049WAT     H272390   1.770   4.526   1.968
24050WAT      O72391   8.084   5.151   1.522
24050WAT     H172392   8.116   5.151   1.427
24050WAT     H272393   8.048   5.241   1.545
24051WAT      O72394   2.673   7.003   9.539
24051WAT     H172395   2.574   7.004   9.548
24051WAT     H272396   2.713   6.948   9.613
24052WAT      O72397   0.803   0.900   6.489
24052WAT     H172398   0.879   0.897   6.425
24052WAT     H272399   0.742   0.976   6.465
24053WAT      O72400   4.827   7.033   0.960
24053WAT     H172401   4.876   7.080   0.886
24053WAT     H272402   4.801   7.099   1.030
24054WAT      O72403   7.016   0.526   2.083
24054WAT     H172404   7.035   0.621   2.059
24054WAT     H272405   6.930   0.497   2.040
24055WAT      O72406   9.602   7.626   6.933
24055WAT     H172407   9.675   7.668   6.987
24055WAT     H272408   9.530   7.592   6.994
24056WAT      O72409   1.434   0.328   0.144
24056WAT     H172410   1.345   0.305   0.106
24056WAT     H272411   1.485   0.383   0.078
24057WAT      O72412   8.114   0.862   4.810
24057WAT     H172413   8.160   0.942   4.849
24057WAT     H272414   8.019   0.884   4.789
24058WAT      O72415   9.307   4.662   1.455
24058WAT     H172416   9.281   4.749   1.412
24058WAT     H272417   9.231   4.627   1.508
24059WAT      O72418   6.855   9.176   3.173
24059WAT     H172419   6.954   9.179   3.177
24059WAT     H272420   6.817   9.191   3.264
24060WAT      O72421   1.965   7.832   0.194
24060WAT     H172422   1.962   7.745   0.243
24060WAT     H272423   1.967   7.815   0.095
24061WAT      O72424   7.331   9.645   6.174
24061WAT     H172425   7.265   9.701   6.125
24061WAT     H272426   7.373   9.699   6.247
24062WAT      O72427   9.444   8.957   9.285
24062WAT     H172428   9.538   8.931   9.309
24062WAT     H272429   9.437   8.967   9.186
24063WAT      O72430   5.172   2.475   6.061
24063WAT     H172431   5.255   2.489   6.115
24063WAT     H272432   5.129   2.563   6.041
24064WAT      O72433   6.953   8.584   7.877
24064WAT     H172434   6.946   8.537   7.789
24064WAT     H272435   7.047   8.582   7.909
24065WAT      O72436   7.011   6.022   2.977
24065WAT     H172437   6.950   6.084   2.929
24065WAT     H272438   6.997   5.928   2.944
24066WAT      O72439   2.632   8.272   1.559
24066WAT     H172440   2.551   8.216   1.542
24066WAT     H272441   2.604   8.359   1.600
24067WAT      O72442   3.897   8.912   7.434
24067WAT     H172443   3.922   9.006   7.411
24067WAT     H272444   3.817   8.884   7.379
24068WAT      O72445   7.008   3.487   9.837
24068WAT     H172446   7.058   3.520   9.917
24068WAT     H272447   7.036   3.393   9.816
24069WAT      O72448   3.656   8.166   7.346
24069WAT     H172449   3.743   8.116   7.343
24069WAT     H272450   3.649   8.226   7.266
24070WAT      O72451   7.574   0.237   7.643
24070WAT     H172452   7.603   0.199   7.555
24070WAT     H272453   7.475   0.250   7.642
24071WAT      O72454   7.583   7.782   0.868
24071WAT     H172455   7.508   7.716   0.870
24071WAT     H272456   7.604   7.808   0.774
24072WAT      O72457   0.173   8.275   9.096
24072WAT     H172458   0.183   8.187   9.142
24072WAT     H272459   0.256   8.296   9.044
24073WAT      O72460   5.411   7.512   4.213
24073WAT     H172461   5.379   7.498   4.119
24073WAT     H272462   5.480   7.443   4.236
24074WAT      O72463   1.248   9.689   5.771
24074WAT     H172464   1.260   9.723   5.864
24074WAT     H272465   1.316   9.618   5.752
24075WAT      O72466   2.258   3.949   3.534
24075WAT     H172467   2.158   3.956   3.545
24075WAT     H272468   2.290   3.865   3.576
24076WAT      O72469   9.496   5.046   3.174
24076WAT     H172470   9.540   5.076   3.089
24076WAT     H272471   9.539   5.092   3.251
24077WAT      O72472   3.685   0.886   0.104
24077WAT     H172473   3.746   0.953   0.061
24077WAT     H272474   3.639   0.929   0.181
24078WAT      O72475   6.757   8.992   4.338
24078WAT     H172476   6.746   9.015   4.241
24078WAT     H272477   6.847   9.023   4.369
24079WAT      O72478   5.035   6.844   0.808
24079WAT     H172479   5.023   6.939   0.835
24079WAT     H272480   5.056   6.789   0.889
24080WAT      O72481   1.166   1.798   9.799
24080WAT     H172482   1.228   1.722   9.780
24080WAT     H272483   1.079   1.782   9.752
24081WAT      O72484   8.896   7.147   0.956
24081WAT     H172485   8.796   7.150   0.967
24081WAT     H272486   8.932   7.070   1.009
24082WAT      O72487   1.199   4.968   8.123
24082WAT     H172488   1.289   4.929   8.144
24082WAT     H272489   1.148   4.982   8.208
24083WAT      O72490   4.918   8.353   0.246
24083WAT     H172491   4.853   8.364   0.170
24083WAT     H272492   5.011   8.344   0.208
24084WAT      O72493   4.778   7.614   5.061
24084WAT     H172494   4.825   7.588   4.977
24084WAT     H272495   4.696   7.558   5.073
24085WAT      O72496   9.879   2.653   0.063
24085WAT     H172497   9.848   2.607  -0.021
24085WAT     H272498   9.810   2.644   0.134
24086WAT      O72499   3.517   5.010   8.188
24086WAT     H172500   3.572   5.092   8.207
24086WAT     H272501   3.420   5.032   8.198
24087WAT      O72502   4.567   5.198   3.031
24087WAT     H172503   4.575   5.254   3.114
24087WAT     H272504   4.517   5.249   2.962
24088WAT      O72505   1.693   2.009   5.382
24088WAT     H172506   1.778   1.963   5.410
24088WAT     H272507   1.707   2.054   5.294
24089WAT      O72508   7.598   2.368   9.002
24089WAT     H172509   7.649   2.446   9.037
24089WAT     H272510   7.503   2.372   9.036
24090WAT      O72511   8.342   8.207   1.403
24090WAT     H172512   8.426   8.155   1.389
24090WAT     H272513   8.279   8.190   1.327
24091WAT      O72514   2.255   6.088   2.888
24091WAT     H172515   2.185   6.092   2.959
24091WAT     H272516   2.337   6.046   2.925
24092WAT      O72517   3.193   0.347   9.712
24092WAT     H172518   3.136   0.423   9.745
24092WAT     H272519   3.290   0.370   9.725
24093WAT      O72520   3.515   3.907   5.795
24093WAT     H172521   3.490   3.862   5.709
24093WAT     H272522   3.582   3.850   5.843
24094WAT      O72523   5.204   8.549   0.487
24094WAT     H172524   5.259   8.467   0.470
24094WAT     H272525   5.221   8.616   0.415
24095WAT      O72526   3.360   8.579   3.993
24095WAT     H172527   3.374   8.613   3.900
24095WAT     H272528   3.346   8.480   3.990
24096WAT      O72529   2.978   5.208   6.375
24096WAT     H172530   2.882   5.190   6.356
24096WAT     H272531   3.029   5.122   6.378
24097WAT      O72532   9.780   0.037   9.666
24097WAT     H172533   9.864   0.020   9.615
24097WAT     H272534   9.792   0.010   9.761
24098WAT      O72535   8.618   2.420   0.554
24098WAT     H172536   8.684   2.365   0.606
24098WAT     H272537   8.556   2.466   0.618
24099WAT      O72538   4.401   3.314   5.638
24099WAT     H172539   4.358   3.392   5.592
24099WAT     H272540   4.468   3.347   5.705
24100WAT      O72541   1.401   8.703   4.916
24100WAT     H172542   1.349   8.748   4.988
24100WAT     H272543   1.426   8.611   4.947
24101WAT      O72544   8.785   0.371   1.012
24101WAT     H172545   8.783   0.456   0.959
24101WAT     H272546   8.695   0.327   1.008
24102WAT      O72547   1.720   2.223   3.790
24102WAT     H172548   1.627   2.255   3.807
24102WAT     H272549   1.770   2.293   3.740
24103WAT      O72550   6.820   2.095   5.997
24103WAT     H172551   6.874   2.045   5.929
24103WAT     H272552   6.750   2.036   6.035
24104WAT      O72553   7.494   6.082   4.310
24104WAT     H172554   7.524   6.137   4.389
24104WAT     H272555   7.508   6.134   4.226
24105WAT      O72556   4.000   8.112   4.528
24105WAT     H172557   4.056   8.195   4.533
24105WAT     H272558   3.916   8.126   4.581
24106WAT      O72559   0.845   8.512   4.890
24106WAT     H172560   0.824   8.545   4.982
24106WAT     H272561   0.939   8.535   4.867
24107WAT      O72562   8.587   0.032   7.638
24107WAT     H172563   8.498   0.068   7.664
24107WAT     H272564   8.641   0.105   7.596
24108WAT      O72565   1.511   4.519   0.307
24108WAT     H172566   1.600   4.518   0.354
24108WAT     H272567   1.524   4.552   0.213
24109WAT      O72568   3.693   4.522   0.867
24109WAT     H172569   3.658   4.615   0.879
24109WAT     H272570   3.753   4.500   0.943
24110WAT      O72571   2.986   4.211   8.823
24110WAT     H172572   2.972   4.167   8.911
24110WAT     H272573   3.019   4.304   8.837
24111WAT      O72574   5.548   4.424   1.964
24111WAT     H172575   5.544   4.471   2.052
24111WAT     H272576   5.499   4.337   1.971
24112WAT      O72577   3.631   2.759   6.278
24112WAT     H172578   3.693   2.821   6.229
24112WAT     H272579   3.546   2.751   6.227
24113WAT      O72580   1.532   1.286   8.763
24113WAT     H172581   1.435   1.279   8.788
24113WAT     H272582   1.554   1.381   8.742
24114WAT      O72583   0.123   8.448   3.040
24114WAT     H172584   0.055   8.388   2.999
24114WAT     H272585   0.214   8.410   3.026
24115WAT      O72586   4.045   0.291   2.170
24115WAT     H172587   3.962   0.283   2.114
24115WAT     H272588   4.081   0.200   2.189
24116WAT      O72589   2.985   1.436   7.181
24116WAT     H172590   2.910   1.375   7.208
24116WAT     H272591   2.946   1.515   7.133
24117WAT      O72592   8.728   6.570   6.835
24117WAT     H172593   8.781   6.595   6.753
24117WAT     H272594   8.734   6.644   6.902
24118WAT      O72595   0.257   7.125   4.054
24118WAT     H172596   0.193   7.115   4.130
24118WAT     H272597   0.317   7.046   4.050
24119WAT      O72598   5.602   2.613   4.294
24119WAT     H172599   5.690   2.582   4.258
24119WAT     H272600   5.549   2.534   4.323
24120WAT      O72601   1.938   1.624   1.231
24120WAT     H172602   2.027   1.640   1.275
24120WAT     H272603   1.943   1.542   1.176
24121WAT      O72604   4.484   8.316   1.643
24121WAT     H172605   4.545   8.364   1.706
24121WAT     H272606   4.410   8.273   1.694
24122WAT      O72607   7.343   5.467   4.366
24122WAT     H172608   7.275   5.463   4.440
24122WAT     H272609   7.382   5.559   4.361
24123WAT      O72610   7.487   2.873   5.061
24123WAT     H172611   7.429   2.813   5.116
24123WAT     H272612   7.556   2.818   5.013
24124WAT      O72613   6.249   8.765   7.400
24124WAT     H172614   6.336   8.764   7.350
24124WAT     H272615   6.175   8.741   7.337
24125WAT      O72616   9.057   6.224   6.815
24125WAT     H172617   9.137   6.237   6.756
24125WAT     H272618   9.066   6.281   6.897
24126WAT      O72619   3.583   8.819   1.865
24126WAT     H172620   3.544   8.844   1.776
24126WAT     H272621   3.555   8.887   1.933
24127WAT      O72622   3.424   3.776   1.478
24127WAT     H172623   3.491   3.724   1.532
24127WAT     H272624   3.351   3.808   1.538
24128WAT      O72625   6.800   6.860   5.276
24128WAT     H172626   6.754   6.935   5.322
24128WAT     H272627   6.832   6.794   5.344
24129WAT      O72628   4.007   2.800   4.823
24129WAT     H172629   3.977   2.768   4.733
24129WAT     H272630   3.959   2.750   4.894
24130WAT      O72631   3.751   2.950   8.607
24130WAT     H172632   3.661   2.925   8.643
24130WAT     H272633   3.797   3.011   8.672
24131WAT      O72634   2.460   6.708   2.294
24131WAT     H172635   2.486   6.740   2.203
24131WAT     H272636   2.541   6.670   2.340
24132WAT      O72637   2.724   0.785   3.572
24132WAT     H172638   2.715   0.708   3.635
24132WAT     H272639   2.789   0.851   3.609
24133WAT      O72640   4.588   9.258   4.278
24133WAT     H172641   4.651   9.327   4.314
24133WAT     H272642   4.610   9.239   4.183
24134WAT      O72643   6.516   2.009   4.300
24134WAT     H172644   6.562   2.035   4.215
24134WAT     H272645   6.428   2.055   4.305
24135WAT      O72646   2.824   4.678   1.172
24135WAT     H172647   2.827   4.606   1.103
24135WAT     H272648   2.917   4.705   1.197
24136WAT      O72649   6.537   0.256   7.654
24136WAT     H172650   6.520   0.341   7.704
24136WAT     H272651   6.517   0.178   7.712
24137WAT      O72652   3.607   1.063   0.309
24137WAT     H172653   3.672   1.095   0.377
24137WAT     H272654   3.518   1.046   0.352
24138WAT      O72655   3.795   6.251   3.843
24138WAT     H172656   3.795   6.341   3.799
24138WAT     H272657   3.853   6.253   3.925
24139WAT      O72658   6.361   1.464   5.005
24139WAT     H172659   6.296   1.530   5.043
24139WAT     H272660   6.368   1.384   5.065
24140WAT      O72661   3.236   2.940   9.344
24140WAT     H172662   3.177   2.989   9.280
24140WAT     H272663   3.280   3.006   9.405
24141WAT      O72664   1.832   2.577   8.222
24141WAT     H172665   1.811   2.592   8.126
24141WAT     H272666   1.919   2.619   8.245
24142WAT      O72667   8.844   4.702   2.951
24142WAT     H172668   8.853   4.619   3.006
24142WAT     H272669   8.810   4.679   2.860
24143WAT      O72670   2.075   7.331   2.354
24143WAT     H172671   2.009   7.395   2.314
24143WAT     H272672   2.052   7.238   2.325
24144WAT      O72673   2.762   0.629   8.534
24144WAT     H172674   2.828   0.699   8.507
24144WAT     H272675   2.705   0.605   8.455
24145WAT      O72676   3.171   2.690   9.250
24145WAT     H172677   3.218   2.609   9.284
24145WAT     H272678   3.212   2.772   9.292
24146WAT      O72679   1.779   6.685   8.840
24146WAT     H172680   1.817   6.594   8.824
24146WAT     H272681   1.838   6.753   8.798
24147WAT      O72682   7.330   2.603   4.820
24147WAT     H172683   7.265   2.589   4.895
24147WAT     H272684   7.371   2.694   4.828
24148WAT      O72685   7.428   0.803   5.523
24148WAT     H172686   7.386   0.855   5.597
24148WAT     H272687   7.456   0.713   5.557
24149WAT      O72688   8.804   5.277   5.221
24149WAT     H172689   8.803   5.269   5.122
24149WAT     H272690   8.865   5.208   5.260
24150WAT      O72691   0.713   1.306   4.222
24150WAT     H172692   0.651   1.304   4.300
24150WAT     H272693   0.688   1.233   4.158
24151WAT      O72694   3.626   2.963   9.111
24151WAT     H172695   3.641   2.864   9.115
24151WAT     H272696   3.708   3.008   9.078
24152WAT      O72697   0.555   4.500   9.603
24152WAT     H172698   0.612   4.449   9.669
24152WAT     H272699   0.464   4.458   9.600
24153WAT      O72700   0.157   3.808   6.185
24153WAT     H172701   0.134   3.816   6.088
24153WAT     H272702   0.233   3.743   6.195
24154WAT      O72703   1.055   4.372   6.969
24154WAT     H172704   1.063   4.457   6.916
24154WAT     H272705   1.035   4.395   7.064
24155WAT      O72706   2.811   8.999   8.920
24155WAT     H172707   2.902   8.984   8.959
24155WAT     H272708   2.819   9.053   8.836
24156WAT      O72709   1.151   1.383   5.367
24156WAT     H172710   1.206   1.439   5.305
24156WAT     H272711   1.148   1.426   5.457
24157WAT      O72712   2.409   7.693   6.410
24157WAT     H172713   2.365   7.780   6.435
24157WAT     H272714   2.477   7.710   6.338
24158WAT      O72715   1.930   3.324   1.727
24158WAT     H172716   1.981   3.248   1.766
24158WAT     H272717   1.883   3.294   1.645
24159WAT      O72718   8.383   8.627   1.983
24159WAT     H172719   8.287   8.603   1.998
24159WAT     H272720   8.394   8.726   1.992
24160WAT      O72721   3.829   1.765   2.550
24160WAT     H172722   3.822   1.673   2.513
24160WAT     H272723   3.803   1.765   2.646
24161WAT      O72724   4.780   9.533   3.074
24161WAT     H172725   4.863   9.566   3.029
24161WAT     H272726   4.733   9.468   3.015
24162WAT      O72727   2.395   8.817   4.025
24162WAT     H172728   2.459   8.873   4.077
24162WAT     H272729   2.445   8.742   3.981
24163WAT      O72730   8.530   8.316   3.379
24163WAT     H172731   8.621   8.289   3.411
24163WAT     H272732   8.532   8.329   3.280
24164WAT      O72733   4.396   5.696   5.393
24164WAT     H172734   4.371   5.695   5.490
24164WAT     H272735   4.496   5.693   5.384
24165WAT      O72736   3.928   9.595   1.440
24165WAT     H172737   3.959   9.668   1.501
24165WAT     H272738   3.939   9.506   1.485
24166WAT      O72739   2.145   6.092   3.991
24166WAT     H172740   2.114   6.001   4.021
24166WAT     H272741   2.065   6.148   3.968
24167WAT      O72742   1.431   1.243   0.687
24167WAT     H172743   1.466   1.332   0.657
24167WAT     H272744   1.362   1.256   0.758
24168WAT      O72745   6.196   6.642   7.148
24168WAT     H172746   6.265   6.710   7.175
24168WAT     H272747   6.113   6.689   7.117
24169WAT      O72748   4.759   3.062   8.631
24169WAT     H172749   4.678   3.004   8.639
24169WAT     H272750   4.826   3.018   8.572
24170WAT      O72751   2.366   8.816   6.124
24170WAT     H172752   2.291   8.882   6.127
24170WAT     H272753   2.417   8.820   6.210
24171WAT      O72754   0.863   6.039   7.033
24171WAT     H172755   0.865   5.975   7.109
24171WAT     H272756   0.804   6.117   7.055
24172WAT      O72757   7.461   4.135   9.420
24172WAT     H172758   7.365   4.145   9.394
24172WAT     H272759   7.500   4.055   9.374
24173WAT      O72760   7.766   0.687   0.938
24173WAT     H172761   7.719   0.694   0.850
24173WAT     H272762   7.726   0.751   1.002
24174WAT      O72763   2.593   2.857   6.250
24174WAT     H172764   2.653   2.906   6.187
24174WAT     H272765   2.648   2.819   6.325
24175WAT      O72766   1.424   5.079   0.987
24175WAT     H172767   1.439   5.010   0.916
24175WAT     H272768   1.511   5.124   1.008
24176WAT      O72769   1.927   4.220   0.690
24176WAT     H172770   1.916   4.230   0.788
24176WAT     H272771   1.945   4.123   0.668
24177WAT      O72772   2.321   8.595   1.849
24177WAT     H172773   2.261   8.519   1.874
24177WAT     H272774   2.282   8.644   1.771
24178WAT      O72775   8.128   4.541   4.472
24178WAT     H172776   8.071   4.463   4.498
24178WAT     H272777   8.079   4.626   4.491
24179WAT      O72778   3.561   8.117   1.142
24179WAT     H172779   3.611   8.031   1.147
24179WAT     H272780   3.593   8.179   1.213
24180WAT      O72781   2.212   7.566   7.972
24180WAT     H172782   2.142   7.517   7.920
24180WAT     H272783   2.294   7.510   7.978
24181WAT      O72784   5.050   9.438   2.572
24181WAT     H172785   5.134   9.490   2.587
24181WAT     H272786   5.015   9.407   2.661
24182WAT      O72787   7.225   6.111   8.977
24182WAT     H172788   7.321   6.084   8.974
24182WAT     H272789   7.182   6.095   8.888
24183WAT      O72790   6.266   6.739   1.178
24183WAT     H172791   6.353   6.739   1.128
24183WAT     H272792   6.197   6.689   1.125
24184WAT      O72793   6.554   3.969   5.382
24184WAT     H172794   6.541   3.940   5.476
24184WAT     H272795   6.487   3.923   5.323
24185WAT      O72796   4.317   5.769   6.485
24185WAT     H172797   4.338   5.677   6.519
24185WAT     H272798   4.353   5.780   6.393
24186WAT      O72799   9.658   3.874   0.229
24186WAT     H172800   9.709   3.928   0.161
24186WAT     H272801   9.719   3.804   0.267
24187WAT      O72802   0.722   2.277   9.262
24187WAT     H172803   0.770   2.193   9.286
24187WAT     H272804   0.773   2.356   9.297
24188WAT      O72805   2.346   5.932   8.026
24188WAT     H172806   2.405   5.913   7.948
24188WAT     H272807   2.260   5.972   7.994
24189WAT      O72808   5.414   2.751   7.237
24189WAT     H172809   5.496   2.716   7.191
24189WAT     H272810   5.394   2.696   7.317
24190WAT      O72811   2.361   0.794   1.046
24190WAT     H172812   2.348   0.701   1.010
24190WAT     H272813   2.433   0.839   0.994
24191WAT      O72814   1.677   3.203   8.711
24191WAT     H172815   1.597   3.166   8.663
24191WAT     H272816   1.649   3.275   8.774
24192WAT      O72817   8.523   9.496   5.269
24192WAT     H172818   8.605   9.480   5.213
24192WAT     H272819   8.546   9.554   5.347
24193WAT      O72820   4.849   2.828   1.765
24193WAT     H172821   4.823   2.910   1.816
24193WAT     H272822   4.767   2.785   1.727
24194WAT      O72823   6.279   6.312   6.628
24194WAT     H172824   6.311   6.259   6.707
24194WAT     H272825   6.198   6.364   6.655
24195WAT      O72826   9.093   0.702   6.508
24195WAT     H172827   9.000   0.697   6.472
24195WAT     H272828   9.141   0.780   6.467
24196WAT      O72829   3.021   1.435   4.371
24196WAT     H172830   3.027   1.522   4.321
24196WAT     H272831   2.926   1.418   4.397
24197WAT      O72832   6.350   5.486   5.995
24197WAT     H172833   6.422   5.506   6.062
24197WAT     H272834   6.271   5.545   6.011
24198WAT      O72835   9.677   3.778   7.363
24198WAT     H172836   9.626   3.811   7.442
24198WAT     H272837   9.617   3.723   7.305
24199WAT      O72838   3.042   2.242   3.233
24199WAT     H172839   3.125   2.216   3.184
24199WAT     H272840   2.993   2.160   3.262
24200WAT      O72841   7.287   1.172   6.774
24200WAT     H172842   7.356   1.156   6.845
24200WAT     H272843   7.219   1.099   6.777
24201WAT      O72844   9.344   8.311   9.363
24201WAT     H172845   9.295   8.240   9.415
24201WAT     H272846   9.292   8.332   9.280
24202WAT      O72847   6.664   4.301   6.208
24202WAT     H172848   6.585   4.269   6.260
24202WAT     H272849   6.640   4.386   6.162
24203WAT      O72850   4.502   4.958   0.722
24203WAT     H172851   4.509   4.860   0.702
24203WAT     H272852   4.593   4.999   0.719
24204WAT      O72853   2.216   1.566   5.331
24204WAT     H172854   2.267   1.491   5.288
24204WAT     H272855   2.267   1.601   5.410
24205WAT      O72856   8.949   6.462   2.218
24205WAT     H172857   8.891   6.388   2.185
24205WAT     H272858   9.021   6.425   2.277
24206WAT      O72859   3.445   6.008   6.808
24206WAT     H172860   3.441   5.978   6.903
24206WAT     H272861   3.383   5.952   6.753
24207WAT      O72862   0.086   1.513   8.246
24207WAT     H172863   0.044   1.488   8.333
24207WAT     H272864   0.174   1.558   8.264
24208WAT      O72865   9.098   2.074   4.432
24208WAT     H172866   9.150   2.103   4.351
24208WAT     H272867   9.121   2.132   4.509
24209WAT      O72868   4.476   5.238   8.528
24209WAT     H172869   4.394   5.250   8.585
24209WAT     H272870   4.519   5.151   8.549
24210WAT      O72871   2.262   6.651   4.208
24210WAT     H172872   2.248   6.722   4.138
24210WAT     H272873   2.253   6.691   4.299
24211WAT      O72874   2.121   9.226   7.666
24211WAT     H172875   2.213   9.258   7.643
24211WAT     H272876   2.097   9.148   7.608
24212WAT      O72877   2.215   9.124   8.338
24212WAT     H172878   2.151   9.173   8.280
24212WAT     H272879   2.171   9.099   8.425
24213WAT      O72880   7.720   9.356   8.462
24213WAT     H172881   7.762   9.435   8.506
24213WAT     H272882   7.621   9.360   8.474
24214WAT      O72883   9.271   1.252   1.739
24214WAT     H172884   9.218   1.194   1.801
24214WAT     H272885   9.214   1.329   1.710
24215WAT      O72886   1.841   4.060   1.365
24215WAT     H172887   1.778   4.104   1.301
24215WAT     H272888   1.796   3.982   1.408
24216WAT      O72889   2.256   4.796   3.455
24216WAT     H172890   2.298   4.707   3.471
24216WAT     H272891   2.316   4.868   3.490
24217WAT      O72892   1.097   8.813   1.480
24217WAT     H172893   1.185   8.828   1.525
24217WAT     H272894   1.096   8.863   1.393
24218WAT      O72895   7.006   1.323   2.435
24218WAT     H172896   7.041   1.309   2.342
24218WAT     H272897   7.002   1.235   2.482
24219WAT      O72898   3.603   8.450   4.992
24219WAT     H172899   3.624   8.352   4.985
24219WAT     H272900   3.684   8.498   5.025
24220WAT      O72901   5.044   3.076   2.015
24220WAT     H172902   4.954   3.074   1.971
24220WAT     H272903   5.032   3.100   2.112
24221WAT      O72904   8.935   0.680   3.211
24221WAT     H172905   8.874   0.667   3.134
24221WAT     H272906   8.955   0.777   3.222
24222WAT      O72907   7.653   1.510   1.756
24222WAT     H172908   7.567   1.493   1.709
24222WAT     H272909   7.729   1.473   1.702
24223WAT      O72910   2.840   6.339   3.471
24223WAT     H172911   2.891   6.284   3.404
24223WAT     H272912   2.743   6.339   3.447
24224WAT      O72913   1.729   0.621   7.717
24224WAT     H172914   1.671   0.682   7.664
24224WAT     H272915   1.689   0.608   7.808
24225WAT      O72916   9.529   1.780   8.459
24225WAT     H172917   9.438   1.751   8.430
24225WAT     H272918   9.588   1.788   8.379
24226WAT      O72919   2.640   4.226   4.665
24226WAT     H172920   2.714   4.261   4.609
24226WAT     H272921   2.568   4.295   4.674
24227WAT      O72922   6.578   5.700   0.357
24227WAT     H172923   6.548   5.780   0.305
24227WAT     H272924   6.520   5.622   0.334
24228WAT      O72925   1.429   5.765   3.215
24228WAT     H172926   1.358   5.826   3.179
24228WAT     H272927   1.439   5.686   3.155
24229WAT      O72928   7.743   6.748   0.842
24229WAT     H172929   7.717   6.652   0.851
24229WAT     H272930   7.693   6.803   0.909
24230WAT      O72931   4.627   4.216   3.060
24230WAT     H172932   4.570   4.240   2.980
24230WAT     H272933   4.597   4.129   3.097
24231WAT      O72934   3.103   6.307   5.793
24231WAT     H172935   3.176   6.264   5.741
24231WAT     H272936   3.045   6.237   5.835
24232WAT      O72937   5.971   0.594   1.158
24232WAT     H172938   5.913   0.537   1.101
24232WAT     H272939   5.955   0.690   1.136
24233WAT      O72940   7.758   1.519   5.556
24233WAT     H172941   7.769   1.485   5.649
24233WAT     H272942   7.663   1.507   5.527
24234WAT      O72943   5.467   8.781   4.452
24234WAT     H172944   5.453   8.702   4.393
24234WAT     H272945   5.537   8.761   4.520
24235WAT      O72946   6.329   3.283   7.274
24235WAT     H172947   6.303   3.284   7.177
24235WAT     H272948   6.295   3.366   7.318
24236WAT      O72949   3.323   8.701   5.315
24236WAT     H172950   3.318   8.672   5.411
24236WAT     H272951   3.362   8.627   5.260
24237WAT      O72952   2.653   5.489   2.001
24237WAT     H172953   2.628   5.510   1.906
24237WAT     H272954   2.570   5.472   2.054
24238WAT      O72955   4.464   0.247   0.363
24238WAT     H172956   4.416   0.334   0.373
24238WAT     H272957   4.398   0.172   0.355
24239WAT      O72958   0.882   7.835   4.805
24239WAT     H172959   0.870   7.829   4.706
24239WAT     H272960   0.953   7.903   4.826
24240WAT      O72961   0.399   0.029   6.920
24240WAT     H172962   0.486   0.013   6.966
24240WAT     H272963   0.406   0.004   6.824
24241WAT      O72964   6.425   6.133   6.800
24241WAT     H172965   6.463   6.118   6.709
24241WAT     H272966   6.483   6.088   6.868
24242WAT      O72967   2.812   3.953   1.369
24242WAT     H172968   2.893   3.960   1.426
24242WAT     H272969   2.810   3.863   1.325
24243WAT      O72970   9.889   0.917   6.476
24243WAT     H172971   9.960   0.924   6.546
24243WAT     H272972   9.799   0.927   6.518
24244WAT      O72973   0.637   3.658   0.656
24244WAT     H172974   0.706   3.612   0.713
24244WAT     H272975   0.564   3.594   0.635
24245WAT      O72976   4.984   7.151   8.628
24245WAT     H172977   5.066   7.177   8.679
24245WAT     H272978   5.011   7.114   8.539
24246WAT      O72979   4.861   0.417   8.861
24246WAT     H172980   4.829   0.344   8.922
24246WAT     H272981   4.960   0.410   8.851
24247WAT      O72982   9.100   7.429   3.776
24247WAT     H172983   9.125   7.337   3.805
24247WAT     H272984   9.090   7.488   3.856
24248WAT      O72985   1.270   4.488   3.269
24248WAT     H172986   1.228   4.572   3.302
24248WAT     H272987   1.369   4.494   3.281
24249WAT      O72988   5.723   8.202   9.782
24249WAT     H172989   5.661   8.281   9.775
24249WAT     H272990   5.674   8.119   9.757
24250WAT      O72991   7.522   6.263   8.666
24250WAT     H172992   7.498   6.357   8.690
24250WAT     H272993   7.590   6.228   8.730
24251WAT      O72994   5.875   9.079   6.058
24251WAT     H172995   5.784   9.116   6.073
24251WAT     H272996   5.881   9.040   5.965
24252WAT      O72997   9.830   2.707   1.389
24252WAT     H172998   9.891   2.628   1.399
24252WAT     H272999   9.881   2.791   1.405
24253WAT      O73000   1.907   9.120   5.394
24253WAT     H173001   1.976   9.141   5.463
24253WAT     H273002   1.854   9.202   5.373
24254WAT      O73003   7.036   8.693   8.432
24254WAT     H173004   6.982   8.609   8.435
24254WAT     H273005   7.058   8.714   8.337
24255WAT      O73006   6.309   3.693   6.380
24255WAT     H173007   6.269   3.652   6.298
24255WAT     H273008   6.339   3.621   6.443
24256WAT      O73009   4.743   4.884   3.504
24256WAT     H173010   4.733   4.981   3.526
24256WAT     H273011   4.823   4.847   3.552
24257WAT      O73012   0.076   7.672   5.433
24257WAT     H173013  -0.005   7.644   5.485
24257WAT     H273014   0.056   7.666   5.335
24258WAT      O73015   1.373   3.265   3.953
24258WAT     H173016   1.427   3.312   4.022
24258WAT     H273017   1.422   3.183   3.922
24259WAT      O73018   5.358   1.398   9.826
24259WAT     H173019   5.350   1.474   9.761
24259WAT     H273020   5.413   1.325   9.786
24260WAT      O73021   9.593   2.451   9.056
24260WAT     H173022   9.653   2.387   9.008
24260WAT     H273023   9.552   2.514   8.989
24261WAT      O73024   6.769   8.037   6.664
24261WAT     H173025   6.803   8.059   6.756
24261WAT     H273026   6.803   7.947   6.636
24262WAT      O73027   8.883   4.979   2.148
24262WAT     H173028   8.941   4.898   2.140
24262WAT     H273029   8.788   4.953   2.130
24263WAT      O73030   2.343   9.734   5.809
24263WAT     H173031   2.245   9.724   5.796
24263WAT     H273032   2.377   9.810   5.753
24264WAT      O73033   0.536   4.679   8.578
24264WAT     H173034   0.482   4.741   8.635
24264WAT     H273035   0.549   4.592   8.625
24265WAT      O73036   7.251   9.234   8.873
24265WAT     H173037   7.221   9.305   8.809
24265WAT     H273038   7.266   9.149   8.823
24266WAT      O73039   2.450   3.563   1.602
24266WAT     H173040   2.411   3.588   1.513
24266WAT     H273041   2.424   3.630   1.671
24267WAT      O73042   6.545   4.651   3.672
24267WAT     H173043   6.588   4.735   3.639
24267WAT     H273044   6.446   4.663   3.673
24268WAT      O73045   0.463   0.693   1.536
24268WAT     H173046   0.544   0.708   1.593
24268WAT     H273047   0.491   0.683   1.440
24269WAT      O73048   7.922   6.602   6.059
24269WAT     H173049   7.999   6.545   6.030
24269WAT     H273050   7.924   6.689   6.009
24270WAT      O73051   2.942   0.430   2.249
24270WAT     H173052   2.953   0.334   2.222
24270WAT     H273053   2.936   0.436   2.349
24271WAT      O73054   4.932   4.372   2.202
24271WAT     H173055   4.952   4.285   2.157
24271WAT     H273056   4.854   4.360   2.263
24272WAT      O73057   3.988   5.847   1.749
24272WAT     H173058   3.967   5.944   1.745
24272WAT     H273059   4.079   5.830   1.711
24273WAT      O73060   5.961   9.604   7.607
24273WAT     H173061   5.990   9.613   7.512
24273WAT     H273062   5.904   9.523   7.617
24274WAT      O73063   8.081   4.503   8.017
24274WAT     H173064   8.171   4.492   7.973
24274WAT     H273065   8.074   4.596   8.055
24275WAT      O73066   0.295   8.834   4.476
24275WAT     H173067   0.228   8.889   4.424
24275WAT     H273068   0.348   8.894   4.535
24276WAT      O73069   0.704   7.849   1.606
24276WAT     H173070   0.716   7.758   1.647
24276WAT     H273071   0.615   7.886   1.634
24277WAT      O73072   4.518   9.414   9.027
24277WAT     H173073   4.474   9.395   9.115
24277WAT     H273074   4.571   9.499   9.034
24278WAT      O73075   8.143   3.256   0.687
24278WAT     H173076   8.140   3.252   0.786
24278WAT     H273077   8.066   3.312   0.653
24279WAT      O73078   0.578   9.296   7.605
24279WAT     H173079   0.551   9.259   7.694
24279WAT     H273080   0.558   9.394   7.602
24280WAT      O73081   0.959   7.769   9.447
24280WAT     H173082   1.035   7.720   9.405
24280WAT     H273083   0.898   7.804   9.376
24281WAT      O73084   4.611   6.701   2.863
24281WAT     H173085   4.599   6.798   2.840
24281WAT     H273086   4.704   6.672   2.839
24282WAT      O73087   1.528   8.888   2.491
24282WAT     H173088   1.468   8.967   2.483
24282WAT     H273089   1.544   8.868   2.588
24283WAT      O73090   8.965   4.202   4.892
24283WAT     H173091   8.938   4.142   4.968
24283WAT     H273092   9.064   4.201   4.882
24284WAT      O73093   4.752   5.750   0.663
24284WAT     H173094   4.837   5.767   0.713
24284WAT     H273095   4.765   5.774   0.567
24285WAT      O73096   8.664   6.475   7.434
24285WAT     H173097   8.729   6.550   7.451
24285WAT     H273098   8.686   6.398   7.494
24286WAT      O73099   0.764   7.235   6.043
24286WAT     H173100   0.853   7.199   6.014
24286WAT     H273101   0.702   7.238   5.965
24287WAT      O73102   3.339   3.949   7.276
24287WAT     H173103   3.383   4.035   7.304
24287WAT     H273104   3.401   3.873   7.295
24288WAT      O73105   8.138   9.459   0.786
24288WAT     H173106   8.150   9.360   0.776
24288WAT     H273107   8.060   9.489   0.732
24289WAT      O73108   4.298   9.557   1.570
24289WAT     H173109   4.391   9.591   1.586
24289WAT     H273110   4.302   9.473   1.515
24290WAT      O73111   7.224   3.834   8.142
24290WAT     H173112   7.290   3.905   8.118
24290WAT     H273113   7.221   3.823   8.242
24291WAT      O73114   6.890   1.339   4.562
24291WAT     H173115   6.870   1.328   4.464
24291WAT     H273116   6.885   1.436   4.586
24292WAT      O73117   2.808   1.653   6.482
24292WAT     H173118   2.885   1.715   6.495
24292WAT     H273119   2.794   1.637   6.384
24293WAT      O73120   0.759   6.936   5.005
24293WAT     H173121   0.762   6.884   4.919
24293WAT     H273122   0.847   6.928   5.052
24294WAT      O73123   8.919   8.365   7.494
24294WAT     H173124   8.997   8.355   7.433
24294WAT     H273125   8.837   8.386   7.441
24295WAT      O73126   8.490   1.291   7.278
24295WAT     H173127   8.409   1.340   7.246
24295WAT     H273128   8.469   1.193   7.283
24296WAT      O73129   7.492   8.529   8.675
24296WAT     H173130   7.560   8.460   8.701
24296WAT     H273131   7.429   8.543   8.751
24297WAT      O73132   0.515   8.696   7.881
24297WAT     H173133   0.435   8.657   7.928
24297WAT     H273134   0.561   8.760   7.942
24298WAT      O73135   0.641   9.358   5.957
24298WAT     H173136   0.612   9.443   5.914
24298WAT     H273137   0.618   9.361   6.055
24299WAT      O73138   0.421   0.454   9.609
24299WAT     H173139   0.434   0.514   9.531
24299WAT     H273140   0.477   0.486   9.686
24300WAT      O73141   1.540   1.369   1.599
24300WAT     H173142   1.618   1.406   1.549
24300WAT     H273143   1.490   1.444   1.643
24301WAT      O73144   0.531   1.048   9.279
24301WAT     H173145   0.527   1.143   9.307
24301WAT     H273146   0.440   1.016   9.251
24302WAT      O73147   2.522   1.336   7.311
24302WAT     H173148   2.525   1.422   7.363
24302WAT     H273149   2.428   1.301   7.310
24303WAT      O73150   8.398   5.896   0.719
24303WAT     H173151   8.386   5.917   0.816
24303WAT     H273152   8.390   5.797   0.706
24304WAT      O73153   5.379   3.176   5.855
24304WAT     H173154   5.282   3.169   5.877
24304WAT     H273155   5.429   3.212   5.933
24305WAT      O73156   3.236   1.007   8.440
24305WAT     H173157   3.210   0.957   8.357
24305WAT     H273158   3.327   0.978   8.469
24306WAT      O73159   1.651   1.126   1.606
24306WAT     H173160   1.697   1.106   1.692
24306WAT     H273161   1.605   1.214   1.612
24307WAT      O73162   5.560   5.163   0.775
24307WAT     H173163   5.591   5.256   0.755
24307WAT     H273164   5.471   5.167   0.820
24308WAT      O73165   4.369   0.003   9.431
24308WAT     H173166   4.290  -0.012   9.372
24308WAT     H273167   4.432   0.067   9.388
24309WAT      O73168   0.828   3.749   4.619
24309WAT     H173169   0.845   3.776   4.713
24309WAT     H273170   0.884   3.805   4.557
24310WAT      O73171   7.949   7.895   1.108
24310WAT     H173172   7.957   7.826   1.180
24310WAT     H273173   7.978   7.855   1.020
24311WAT      O73174   4.565   5.979   6.102
24311WAT     H173175   4.529   6.060   6.147
24311WAT     H273176   4.492   5.913   6.088
24312WAT      O73177   4.840   7.290   8.260
24312WAT     H173178   4.889   7.205   8.280
24312WAT     H273179   4.795   7.323   8.343
24313WAT      O73180   6.627   6.050   5.642
24313WAT     H173181   6.603   6.093   5.729
24313WAT     H273182   6.549   6.053   5.580
24314WAT      O73183   0.019   6.408   1.375
24314WAT     H173184   0.003   6.451   1.464
24314WAT     H273185  -0.068   6.384   1.333
24315WAT      O73186   2.140   7.433   3.106
24315WAT     H173187   2.155   7.490   3.025
24315WAT     H273188   2.096   7.348   3.080
24316WAT      O73189   7.281   8.258   8.795
24316WAT     H173190   7.375   8.229   8.814
24316WAT     H273191   7.230   8.262   8.880
24317WAT      O73192   9.869   7.953   6.674
24317WAT     H173193   9.932   7.969   6.749
24317WAT     H273194   9.896   7.871   6.623
24318WAT      O73195   6.708   2.206   7.101
24318WAT     H173196   6.744   2.230   7.011
24318WAT     H273197   6.654   2.122   7.095
24319WAT      O73198   8.689   5.179   9.773
24319WAT     H173199   8.651   5.197   9.683
24319WAT     H273200   8.616   5.183   9.841
24320WAT      O73201   3.453   2.192   7.309
24320WAT     H173202   3.494   2.101   7.310
24320WAT     H273203   3.503   2.253   7.371
24321WAT      O73204   9.014   8.848   3.728
24321WAT     H173205   9.090   8.883   3.784
24321WAT     H273206   8.929   8.855   3.780
24322WAT      O73207   9.820   0.309   1.272
24322WAT     H173208   9.802   0.286   1.368
24322WAT     H273209   9.847   0.406   1.266
24323WAT      O73210   8.702   9.342   4.644
24323WAT     H173211   8.767   9.266   4.648
24323WAT     H273212   8.654   9.349   4.732
24324WAT      O73213   9.561   3.750   1.408
24324WAT     H173214   9.630   3.758   1.336
24324WAT     H273215   9.525   3.657   1.409
24325WAT      O73216   0.175   3.097   2.957
24325WAT     H173217   0.258   3.150   2.939
24325WAT     H273218   0.119   3.144   3.025
24326WAT      O73219   2.059   3.805   6.067
24326WAT     H173220   1.990   3.784   5.999
24326WAT     H273221   2.128   3.866   6.026
24327WAT      O73222   6.166   6.627   1.664
24327WAT     H173223   6.190   6.664   1.754
24327WAT     H273224   6.163   6.702   1.598
24328WAT      O73225   2.663   8.011   4.726
24328WAT     H173226   2.645   8.105   4.697
24328WAT     H273227   2.583   7.974   4.773
24329WAT      O73228   5.305   9.543   2.656
24329WAT     H173229   5.391   9.549   2.607
24329WAT     H273230   5.269   9.635   2.672
24330WAT      O73231   3.900   7.680   3.712
24330WAT     H173232   3.915   7.708   3.807
24330WAT     H273233   3.925   7.584   3.702
24331WAT      O73234   2.265   5.388   3.555
24331WAT     H173235   2.206   5.308   3.547
24331WAT     H273236   2.241   5.439   3.638
24332WAT      O73237   4.507   6.670   4.520
24332WAT     H173238   4.533   6.634   4.610
24332WAT     H273239   4.588   6.706   4.474
24333WAT      O73240   5.751   8.542   0.034
24333WAT     H173241   5.796   8.492  -0.040
24333WAT     H273242   5.763   8.640   0.021
24334WAT      O73243   6.385   0.194   0.667
24334WAT     H173244   6.343   0.237   0.747
24334WAT     H273245   6.315   0.152   0.611
24335WAT      O73246   5.215   8.925   7.713
24335WAT     H173247   5.155   8.934   7.793
24335WAT     H273248   5.308   8.951   7.738
24336WAT      O73249   2.490   2.702   8.431
24336WAT     H173250   2.555   2.683   8.357
24336WAT     H273251   2.526   2.669   8.518
24337WAT      O73252   9.249   9.196   2.316
24337WAT     H173253   9.285   9.274   2.366
24337WAT     H273254   9.266   9.112   2.367
24338WAT      O73255   4.511   5.054   6.379
24338WAT     H173256   4.448   4.977   6.390
24338WAT     H273257   4.594   5.036   6.433
24339WAT      O73258   6.373   5.662   0.101
24339WAT     H173259   6.417   5.594   0.042
24339WAT     H273260   6.366   5.626   0.194
24340WAT      O73261   1.767   3.458   2.650
24340WAT     H173262   1.712   3.380   2.619
24340WAT     H273263   1.762   3.530   2.581
24341WAT      O73264   0.728   1.654   8.327
24341WAT     H173265   0.728   1.569   8.275
24341WAT     H273266   0.822   1.679   8.351
24342WAT      O73267   5.986   9.028   0.039
24342WAT     H173268   6.013   8.945  -0.008
24342WAT     H273269   6.065   9.090   0.044
24343WAT      O73270   6.077   2.876   3.069
24343WAT     H173271   6.092   2.848   3.164
24343WAT     H273272   6.034   2.967   3.067
24344WAT      O73273   0.302   4.071   3.214
24344WAT     H173274   0.257   4.095   3.128
24344WAT     H273275   0.293   3.973   3.231
24345WAT      O73276   6.895   2.332   4.803
24345WAT     H173277   6.896   2.400   4.730
24345WAT     H273278   6.937   2.247   4.770
24346WAT      O73279   4.241   7.695   5.322
24346WAT     H173280   4.280   7.634   5.253
24346WAT     H273281   4.144   7.673   5.334
24347WAT      O73282   4.531   2.927   1.650
24347WAT     H173283   4.590   2.929   1.569
24347WAT     H273284   4.463   3.000   1.644
24348WAT      O73285   4.139   2.760   2.808
24348WAT     H173286   4.124   2.857   2.828
24348WAT     H273287   4.109   2.705   2.886
24349WAT      O73288   5.521   1.527   5.627
24349WAT     H173289   5.426   1.509   5.652
24349WAT     H273290   5.530   1.526   5.527
24350WAT      O73291   5.869   9.339   5.802
24350WAT     H173292   5.862   9.410   5.872
24350WAT     H273293   5.959   9.297   5.807
24351WAT      O73294   1.396   5.472   4.159
24351WAT     H173295   1.447   5.547   4.201
24351WAT     H273296   1.459   5.416   4.104
24352WAT      O73297   4.209   4.447   8.272
24352WAT     H173298   4.296   4.461   8.224
24352WAT     H273299   4.152   4.528   8.259
24353WAT      O73300   7.919   8.906   0.816
24353WAT     H173301   7.861   8.896   0.735
24353WAT     H273302   7.864   8.941   0.892
24354WAT      O73303   2.988   6.278   4.043
24354WAT     H173304   3.018   6.268   3.948
24354WAT     H273305   2.911   6.216   4.061
24355WAT      O73306   6.672   5.601   7.615
24355WAT     H173307   6.584   5.643   7.593
24355WAT     H273308   6.689   5.525   7.552
24356WAT      O73309   0.996   6.862   1.504
24356WAT     H173310   1.048   6.898   1.582
24356WAT     H273311   1.021   6.766   1.490
24357WAT      O73312   6.125   9.440   8.880
24357WAT     H173313   6.029   9.437   8.906
24357WAT     H273314   6.181   9.466   8.959
24358WAT      O73315   7.838   1.818   5.280
24358WAT     H173316   7.807   1.768   5.200
24358WAT     H273317   7.789   1.905   5.286
24359WAT      O73318   3.671   2.519   8.444
24359WAT     H173319   3.663   2.460   8.524
24359WAT     H273320   3.664   2.464   8.361
24360WAT      O73321   9.736   0.015   8.079
24360WAT     H173322   9.757   0.113   8.076
24360WAT     H273323   9.820  -0.037   8.094
24361WAT      O73324   2.064   3.811   5.626
24361WAT     H173325   2.111   3.775   5.545
24361WAT     H273326   1.973   3.843   5.600
24362WAT      O73327   1.721   2.897   3.272
24362WAT     H173328   1.805   2.947   3.251
24362WAT     H273329   1.689   2.921   3.363
24363WAT      O73330   3.801   2.726   5.290
24363WAT     H173331   3.840   2.815   5.266
24363WAT     H273332   3.852   2.688   5.368
24364WAT      O73333   3.557   4.831   1.640
24364WAT     H173334   3.619   4.891   1.588
24364WAT     H273335   3.464   4.870   1.637
24365WAT      O73336   0.317   7.806   6.616
24365WAT     H173337   0.320   7.716   6.660
24365WAT     H273338   0.286   7.796   6.522
24366WAT      O73339   4.832   9.594   8.846
24366WAT     H173340   4.918   9.645   8.848
24366WAT     H273341   4.825   9.543   8.760
24367WAT      O73342   1.161   4.485   5.092
24367WAT     H173343   1.232   4.505   5.024
24367WAT     H273344   1.193   4.514   5.183
24368WAT      O73345   8.381   4.487   6.086
24368WAT     H173346   8.443   4.411   6.064
24368WAT     H273347   8.432   4.573   6.086
24369WAT      O73348   2.780   9.525   7.873
24369WAT     H173349   2.841   9.447   7.862
24369WAT     H273350   2.815   9.585   7.945
24370WAT      O73351   7.496   7.654   8.224
24370WAT     H173352   7.539   7.599   8.295
24370WAT     H273353   7.562   7.718   8.186
24371WAT      O73354   7.654   0.258   9.214
24371WAT     H173355   7.650   0.221   9.307
24371WAT     H273356   7.678   0.355   9.218
24372WAT      O73357   0.838   1.807   9.093
24372WAT     H173358   0.798   1.823   9.003
24372WAT     H273359   0.799   1.723   9.132
24373WAT      O73360   3.399   2.670   7.322
24373WAT     H173361   3.299   2.670   7.324
24373WAT     H273362   3.433   2.708   7.408
24374WAT      O73363   2.623   6.177   2.871
24374WAT     H173364   2.583   6.092   2.836
24374WAT     H273365   2.710   6.157   2.917
24375WAT      O73366   8.380   7.387   8.465
24375WAT     H173367   8.392   7.384   8.366
24375WAT     H273368   8.295   7.341   8.490
24376WAT      O73369   6.168   6.834   0.457
24376WAT     H173370   6.217   6.782   0.387
24376WAT     H273371   6.153   6.928   0.425
24377WAT      O73372   5.088   0.169   7.302
24377WAT     H173373   5.060   0.073   7.301
24377WAT     H273374   5.061   0.210   7.389
24378WAT      O73375   1.088   1.954   9.371
24378WAT     H173376   1.167   1.964   9.310
24378WAT     H273377   1.082   1.859   9.401
24379WAT      O73378   2.597   2.391   1.103
24379WAT     H173379   2.623   2.314   1.045
24379WAT     H273380   2.664   2.402   1.177
24380WAT      O73381   6.519   7.863   6.802
24380WAT     H173382   6.450   7.886   6.871
24380WAT     H273383   6.582   7.940   6.791
24381WAT      O73384   2.052   1.111   4.383
24381WAT     H173385   2.005   1.199   4.367
24381WAT     H273386   2.023   1.045   4.315
24382WAT      O73387   2.453   6.971   6.662
24382WAT     H173388   2.475   6.998   6.569
24382WAT     H273389   2.524   7.004   6.724
24383WAT      O73390   4.306   5.904   5.979
24383WAT     H173391   4.217   5.868   5.953
24383WAT     H273392   4.307   6.003   5.966
24384WAT      O73393   9.424   8.270   7.155
24384WAT     H173394   9.348   8.210   7.180
24384WAT     H273395   9.393   8.335   7.086
24385WAT      O73396   8.906   0.211   4.322
24385WAT     H173397   8.921   0.255   4.234
24385WAT     H273398   8.814   0.232   4.355
24386WAT      O73399   3.949   3.451   1.228
24386WAT     H173400   4.028   3.391   1.240
24386WAT     H273401   3.929   3.460   1.130
24387WAT      O73402   2.922   0.906   3.304
24387WAT     H173403   2.919   0.882   3.207
24387WAT     H273404   2.906   1.004   3.314
24388WAT      O73405   2.786   3.110   6.463
24388WAT     H173406   2.760   3.087   6.557
24388WAT     H273407   2.788   3.026   6.408
24389WAT      O73408   7.534   2.116   5.741
24389WAT     H173409   7.519   2.022   5.771
24389WAT     H273410   7.513   2.179   5.816
24390WAT      O73411   6.990   0.844   8.454
24390WAT     H173412   7.070   0.874   8.507
24390WAT     H273413   6.953   0.922   8.404
24391WAT      O73414   6.402   4.817   7.435
24391WAT     H173415   6.496   4.848   7.421
24391WAT     H273416   6.398   4.718   7.425
24392WAT      O73417   1.503   3.694   3.063
24392WAT     H173418   1.404   3.708   3.050
24392WAT     H273419   1.532   3.617   3.007
24393WAT      O73420   9.718   7.869   8.690
24393WAT     H173421   9.719   7.968   8.705
24393WAT     H273422   9.730   7.822   8.777
24394WAT      O73423   6.686   7.358   6.446
24394WAT     H173424   6.774   7.310   6.447
24394WAT     H273425   6.702   7.454   6.469
24395WAT      O73426   4.397   6.803   3.610
24395WAT     H173427   4.450   6.887   3.620
24395WAT     H273428   4.440   6.730   3.664
24396WAT      O73429   6.656   4.640   1.324
24396WAT     H173430   6.582   4.577   1.349
24396WAT     H273431   6.743   4.604   1.358
24397WAT      O73432   0.831   6.386   4.821
24397WAT     H173433   0.874   6.323   4.757
24397WAT     H273434   0.859   6.480   4.799
24398WAT      O73435   6.558   7.428   9.229
24398WAT     H173436   6.546   7.431   9.129
24398WAT     H273437   6.643   7.380   9.251
24399WAT      O73438   7.890   0.082   2.167
24399WAT     H173439   7.923   0.175   2.147
24399WAT     H273440   7.844   0.046   2.086
24400WAT      O73441   8.634   8.314   6.028
24400WAT     H173442   8.563   8.348   5.966
24400WAT     H273443   8.720   8.363   6.010
24401WAT      O73444   5.569   4.473   1.042
24401WAT     H173445   5.498   4.414   1.082
24401WAT     H273446   5.531   4.564   1.025
24402WAT      O73447   7.593   9.203   6.331
24402WAT     H173448   7.572   9.301   6.330
24402WAT     H273449   7.633   9.176   6.243
24403WAT      O73450   2.910   1.420   6.731
24403WAT     H173451   2.814   1.438   6.709
24403WAT     H273452   2.933   1.462   6.818
24404WAT      O73453   6.013   3.144   1.164
24404WAT     H173454   6.086   3.168   1.099
24404WAT     H273455   5.924   3.157   1.121
24405WAT      O73456   8.364   5.095   9.364
24405WAT     H173457   8.354   5.034   9.286
24405WAT     H273458   8.381   5.041   9.446
24406WAT      O73459   2.864   7.093   6.927
24406WAT     H173460   2.929   7.031   6.971
24406WAT     H273461   2.829   7.159   6.993
24407WAT      O73462   1.513   8.430   7.327
24407WAT     H173463   1.456   8.351   7.351
24407WAT     H273464   1.505   8.500   7.399
24408WAT      O73465   0.864   3.295   9.378
24408WAT     H173466   0.852   3.221   9.312
24408WAT     H273467   0.900   3.376   9.331
24409WAT      O73468   0.786   8.503   4.624
24409WAT     H173469   0.779   8.595   4.587
24409WAT     H273470   0.824   8.507   4.717
24410WAT      O73471   9.323   5.867   0.047
24410WAT     H173472   9.422   5.876   0.042
24410WAT     H273473   9.299   5.770   0.059
24411WAT      O73474   3.551   3.849   2.310
24411WAT     H173475   3.590   3.760   2.335
24411WAT     H273476   3.453   3.839   2.295
24412WAT      O73477   9.108   2.870   1.347
24412WAT     H173478   9.163   2.945   1.311
24412WAT     H273479   9.011   2.891   1.335
24413WAT      O73480   9.400   9.548   6.582
24413WAT     H173481   9.399   9.475   6.514
24413WAT     H273482   9.320   9.539   6.642
24414WAT      O73483   2.739   2.442   7.895
24414WAT     H173484   2.820   2.408   7.943
24414WAT     H273485   2.764   2.520   7.839
24415WAT      O73486   3.189   6.287   0.568
24415WAT     H173487   3.100   6.328   0.585
24415WAT     H273488   3.189   6.192   0.600
24416WAT      O73489   1.090   8.308   7.634
24416WAT     H173490   1.126   8.274   7.721
24416WAT     H273491   1.000   8.268   7.617
24417WAT      O73492   2.913   6.624   0.495
24417WAT     H173493   2.853   6.669   0.561
24417WAT     H273494   2.995   6.591   0.541
24418WAT      O73495   8.843   8.362   5.533
24418WAT     H173496   8.926   8.308   5.520
24418WAT     H273497   8.780   8.312   5.594
24419WAT      O73498   6.887   5.656   5.724
24419WAT     H173499   6.864   5.695   5.813
24419WAT     H273500   6.848   5.564   5.717
24420WAT      O73501   2.330   5.691   4.736
24420WAT     H173502   2.354   5.651   4.648
24420WAT     H273503   2.238   5.661   4.762
24421WAT      O73504   8.308   8.208   4.362
24421WAT     H173505   8.367   8.128   4.362
24421WAT     H273506   8.364   8.291   4.360
24422WAT      O73507   8.612   1.756   5.871
24422WAT     H173508   8.678   1.682   5.887
24422WAT     H273509   8.583   1.754   5.775
24423WAT      O73510   3.208   3.926   7.783
24423WAT     H173511   3.184   4.023   7.776
24423WAT     H273512   3.197   3.896   7.878
24424WAT      O73513   8.324   6.386   6.157
24424WAT     H173514   8.394   6.327   6.116
24424WAT     H273515   8.366   6.440   6.230
24425WAT      O73516   7.092   4.896   6.291
24425WAT     H173517   7.159   4.960   6.254
24425WAT     H273518   7.002   4.914   6.249
24426WAT      O73519   2.319   3.214   4.409
24426WAT     H173520   2.274   3.126   4.396
24426WAT     H273521   2.250   3.285   4.420
24427WAT      O73522   2.450   3.182   5.355
24427WAT     H173523   2.498   3.197   5.441
24427WAT     H273524   2.451   3.266   5.301
24428WAT      O73525   7.861   7.449   8.230
24428WAT     H173526   7.831   7.530   8.179
24428WAT     H273527   7.898   7.477   8.318
24429WAT      O73528   4.606   8.131   0.499
24429WAT     H173529   4.538   8.113   0.428
24429WAT     H273530   4.696   8.101   0.468
24430WAT      O73531   3.330   4.953   1.647
24430WAT     H173532   3.262   5.000   1.590
24430WAT     H273533   3.375   5.019   1.707
24431WAT      O73534   5.884   3.592   8.015
24431WAT     H173535   5.878   3.668   7.951
24431WAT     H273536   5.981   3.571   8.033
24432WAT      O73537   8.269   3.505   0.246
24432WAT     H173538   8.174   3.482   0.221
24432WAT     H273539   8.320   3.421   0.263
24433WAT      O73540   7.946   5.020   9.678
24433WAT     H173541   7.871   4.995   9.617
24433WAT     H273542   8.032   4.987   9.640
24434WAT      O73543   6.772   7.000   1.308
24434WAT     H173544   6.678   6.982   1.281
24434WAT     H273545   6.781   6.994   1.407
24435WAT      O73546   4.695   8.021   3.196
24435WAT     H173547   4.724   7.950   3.260
24435WAT     H273548   4.680   8.106   3.245
24436WAT      O73549   6.374   6.668   4.073
24436WAT     H173550   6.425   6.735   4.019
24436WAT     H273551   6.386   6.687   4.170
24437WAT      O73552   9.662   3.017   3.775
24437WAT     H173553   9.592   2.961   3.730
24437WAT     H273554   9.725   2.957   3.825
24438WAT      O73555   1.914   3.398   9.151
24438WAT     H173556   1.869   3.323   9.199
24438WAT     H273557   1.986   3.436   9.208
24439WAT      O73558   1.149   4.416   1.013
24439WAT     H173559   1.060   4.451   0.983
24439WAT     H273560   1.149   4.316   1.009
24440WAT      O73561   1.636   0.816   3.031
24440WAT     H173562   1.569   0.879   3.071
24440WAT     H273563   1.707   0.796   3.099
24441WAT      O73564   1.922   1.502   6.080
24441WAT     H173565   1.932   1.544   5.990
24441WAT     H273566   1.881   1.568   6.143
24442WAT      O73567   7.149   1.412   8.281
24442WAT     H173568   7.227   1.465   8.312
24442WAT     H273569   7.176   1.354   8.204
24443WAT      O73570   3.910   4.867   7.755
24443WAT     H173571   3.825   4.826   7.721
24443WAT     H273572   3.957   4.914   7.681
24444WAT      O73573   4.671   6.792   8.086
24444WAT     H173574   4.682   6.698   8.120
24444WAT     H273575   4.752   6.845   8.110
24445WAT      O73576   2.678   4.198   9.751
24445WAT     H173577   2.712   4.288   9.778
24445WAT     H273578   2.653   4.199   9.654
24446WAT      O73579   9.564   3.402   3.369
24446WAT     H173580   9.658   3.369   3.371
24446WAT     H273581   9.504   3.334   3.413
24447WAT      O73582   7.979   7.935   7.828
24447WAT     H173583   7.929   7.954   7.744
24447WAT     H273584   8.041   7.858   7.813
24448WAT      O73585   8.150   7.706   7.807
24448WAT     H173586   8.230   7.709   7.866
24448WAT     H273587   8.178   7.691   7.712
24449WAT      O73588   1.126   2.762   1.262
24449WAT     H173589   1.106   2.676   1.310
24449WAT     H273590   1.100   2.753   1.166
24450WAT      O73591   2.729   2.311   1.812
24450WAT     H173592   2.809   2.352   1.768
24450WAT     H273593   2.650   2.316   1.751
24451WAT      O73594   4.342   3.982   1.492
24451WAT     H173595   4.392   4.065   1.517
24451WAT     H273596   4.333   3.924   1.573
24452WAT      O73597   2.501   8.145   1.905
24452WAT     H173598   2.439   8.117   1.832
24452WAT     H273599   2.500   8.245   1.914
24453WAT      O73600   9.541   5.321   6.062
24453WAT     H173601   9.484   5.389   6.107
24453WAT     H273602   9.629   5.314   6.110
24454WAT      O73603   9.143   9.350   0.404
24454WAT     H173604   9.172   9.330   0.310
24454WAT     H273605   9.089   9.435   0.404
24455WAT      O73606   2.667   3.992   6.190
24455WAT     H173607   2.607   3.984   6.111
24455WAT     H273608   2.613   3.990   6.274
24456WAT      O73609   8.537   2.501   3.050
24456WAT     H173610   8.466   2.503   3.121
24456WAT     H273611   8.608   2.435   3.076
24457WAT      O73612   5.366   4.950   2.500
24457WAT     H173613   5.456   4.986   2.524
24457WAT     H273614   5.311   5.023   2.460
24458WAT      O73615   9.076   8.642   8.253
24458WAT     H173616   9.110   8.736   8.247
24458WAT     H273617   8.980   8.644   8.283
24459WAT      O73618   6.714   1.928   6.817
24459WAT     H173619   6.649   1.972   6.879
24459WAT     H273620   6.765   1.997   6.767
24460WAT      O73621   4.591   2.732   5.580
24460WAT     H173622   4.575   2.705   5.485
24460WAT     H273623   4.538   2.814   5.600
24461WAT      O73624   5.333   9.798   6.395
24461WAT     H173625   5.273   9.823   6.319
24461WAT     H273626   5.423   9.841   6.382
24462WAT      O73627   6.394   4.853   0.662
24462WAT     H173628   6.470   4.790   0.645
24462WAT     H273629   6.430   4.943   0.685
24463WAT      O73630   5.841   0.731   6.915
24463WAT     H173631   5.752   0.698   6.945
24463WAT     H273632   5.835   0.830   6.896
24464WAT      O73633   1.702   6.594   3.736
24464WAT     H173634   1.606   6.570   3.745
24464WAT     H273635   1.711   6.676   3.680
24465WAT      O73636   7.823   7.391   8.821
24465WAT     H173637   7.740   7.337   8.803
24465WAT     H273638   7.830   7.410   8.918
24466WAT      O73639   1.902   3.988   4.079
24466WAT     H173640   1.968   4.063   4.077
24466WAT     H273641   1.913   3.932   3.996
24467WAT      O73642   1.294   7.405   8.614
24467WAT     H173643   1.198   7.394   8.585
24467WAT     H273644   1.342   7.461   8.547
24468WAT      O73645   0.549   4.870   2.153
24468WAT     H173646   0.613   4.868   2.076
24468WAT     H273647   0.601   4.885   2.238
24469WAT      O73648   7.770   2.368   3.038
24469WAT     H173649   7.681   2.335   3.068
24469WAT     H273650   7.841   2.332   3.099
24470WAT      O73651   2.244   9.555   2.436
24470WAT     H173652   2.323   9.585   2.383
24470WAT     H273653   2.162   9.603   2.404
24471WAT      O73654   4.289   6.778   0.035
24471WAT     H173655   4.223   6.706   0.054
24471WAT     H273656   4.255   6.836  -0.039
24472WAT      O73657   2.970   3.705   1.930
24472WAT     H173658   3.012   3.795   1.926
24472WAT     H273659   2.914   3.691   1.848
24473WAT      O73660   1.633   0.991   8.425
24473WAT     H173661   1.699   0.917   8.412
24473WAT     H273662   1.623   1.042   8.340
24474WAT      O73663   2.498   4.417   1.323
24474WAT     H173664   2.561   4.373   1.260
24474WAT     H273665   2.446   4.348   1.372
24475WAT      O73666   6.597   4.539   8.503
24475WAT     H173667   6.657   4.469   8.544
24475WAT     H273668   6.542   4.497   8.431
24476WAT      O73669   3.292   1.874   9.555
24476WAT     H173670   3.291   1.949   9.621
24476WAT     H273671   3.328   1.907   9.468
24477WAT      O73672   1.462   1.207   2.262
24477WAT     H173673   1.474   1.305   2.278
24477WAT     H273674   1.485   1.156   2.344
24478WAT      O73675   7.290   5.664   2.865
24478WAT     H173676   7.206   5.687   2.914
24478WAT     H273677   7.365   5.651   2.930
24479WAT      O73678   6.004   1.862   7.865
24479WAT     H173679   6.056   1.783   7.833
24479WAT     H273680   6.042   1.945   7.826
24480WAT      O73681   8.714   4.340   8.757
24480WAT     H173682   8.791   4.327   8.696
24480WAT     H273683   8.721   4.429   8.802
24481WAT      O73684   1.373   8.063   3.069
24481WAT     H173685   1.344   7.975   3.031
24481WAT     H273686   1.369   8.133   2.997
24482WAT      O73687   1.178   0.298   1.533
24482WAT     H173688   1.112   0.289   1.608
24482WAT     H273689   1.269   0.315   1.569
24483WAT      O73690   0.309   4.399   0.859
24483WAT     H173691   0.302   4.348   0.945
24483WAT     H273692   0.389   4.368   0.809
24484WAT      O73693   5.372   2.735   0.170
24484WAT     H173694   5.462   2.774   0.189
24484WAT     H273695   5.345   2.674   0.244
24485WAT      O73696   6.530   2.539   9.123
24485WAT     H173697   6.562   2.507   9.034
24485WAT     H273698   6.435   2.510   9.137
24486WAT      O73699   3.381   3.972   8.620
24486WAT     H173700   3.368   3.926   8.708
24486WAT     H273701   3.299   4.025   8.598
24487WAT      O73702   7.796   7.296   6.563
24487WAT     H173703   7.793   7.356   6.483
24487WAT     H273704   7.835   7.208   6.536
24488WAT      O73705   7.672   3.253   0.460
24488WAT     H173706   7.635   3.169   0.420
24488WAT     H273707   7.772   3.251   0.456
24489WAT      O73708   5.995   7.717   8.350
24489WAT     H173709   6.066   7.661   8.307
24489WAT     H273710   5.934   7.659   8.403
24490WAT      O73711   9.662   0.316   5.326
24490WAT     H173712   9.694   0.405   5.293
24490WAT     H273713   9.627   0.264   5.248
24491WAT      O73714   7.532   4.268   0.922
24491WAT     H173715   7.503   4.323   0.844
24491WAT     H273716   7.602   4.202   0.893
24492WAT      O73717   7.143   9.843   6.603
24492WAT     H173718   7.132   9.744   6.599
24492WAT     H273719   7.161   9.878   6.511
24493WAT      O73720   8.955   0.570   2.091
24493WAT     H173721   8.940   0.488   2.148
24493WAT     H273722   8.958   0.544   1.995
24494WAT      O73723   7.957   7.932   4.277
24494WAT     H173724   7.941   7.944   4.375
24494WAT     H273725   7.918   7.844   4.247
24495WAT      O73726   2.590   0.975   5.838
24495WAT     H173727   2.622   0.963   5.932
24495WAT     H273728   2.621   0.899   5.782
24496WAT      O73729   4.975   6.512   5.850
24496WAT     H173730   4.973   6.504   5.750
24496WAT     H273731   4.961   6.422   5.891
24497WAT      O73732   2.371   2.809   2.289
24497WAT     H173733   2.389   2.906   2.275
24497WAT     H273734   2.343   2.793   2.383
24498WAT      O73735   1.030   3.345   4.683
24498WAT     H173736   1.084   3.367   4.602
24498WAT     H273737   1.013   3.428   4.735
24499WAT      O73738   2.898   7.149   8.783
24499WAT     H173739   2.967   7.151   8.711
24499WAT     H273740   2.943   7.136   8.872
24500WAT      O73741   9.375   6.516   9.670
24500WAT     H173742   9.389   6.607   9.633
24500WAT     H273743   9.453   6.457   9.646
24501WAT      O73744   7.098   7.739   6.809
24501WAT     H173745   7.162   7.806   6.845
24501WAT     H273746   7.054   7.690   6.884
24502WAT      O73747   4.909   9.736   0.938
24502WAT     H173748   4.837   9.690   0.992
24502WAT     H273749   4.947   9.671   0.872
24503WAT      O73750   2.779   9.328   6.540
24503WAT     H173751   2.815   9.410   6.585
24503WAT     H273752   2.833   9.309   6.458
24504WAT      O73753   6.143   4.195   3.541
24504WAT     H173754   6.164   4.200   3.444
24504WAT     H273755   6.150   4.101   3.573
24505WAT      O73756   6.656   5.051   5.288
24505WAT     H173757   6.712   5.090   5.361
24505WAT     H273758   6.559   5.059   5.314
24506WAT      O73759   2.494   2.917   3.239
24506WAT     H173760   2.498   2.981   3.315
24506WAT     H273761   2.552   2.950   3.164
24507WAT      O73762   1.040   7.903   7.344
24507WAT     H173763   0.997   7.826   7.296
24507WAT     H273764   0.987   7.924   7.426
24508WAT      O73765   5.426   2.114   7.437
24508WAT     H173766   5.465   2.189   7.383
24508WAT     H273767   5.356   2.151   7.498
24509WAT      O73768   5.289   3.720   9.040
24509WAT     H173769   5.249   3.809   9.016
24509WAT     H273770   5.382   3.715   9.005
24510WAT      O73771   3.234   6.707   6.011
24510WAT     H173772   3.240   6.736   5.915
24510WAT     H273773   3.279   6.619   6.022
24511WAT      O73774   3.603   5.442   5.141
24511WAT     H173775   3.516   5.426   5.095
24511WAT     H273776   3.595   5.414   5.237
24512WAT      O73777   0.634   0.307   2.063
24512WAT     H173778   0.604   0.249   2.139
24512WAT     H273779   0.630   0.403   2.092
24513WAT      O73780   1.109   7.845   8.293
24513WAT     H173781   1.040   7.792   8.243
24513WAT     H273782   1.122   7.804   8.384
24514WAT      O73783   8.216   7.291   3.647
24514WAT     H173784   8.183   7.381   3.678
24514WAT     H273785   8.302   7.270   3.694
24515WAT      O73786   8.963   4.333   9.783
24515WAT     H173787   8.895   4.368   9.848
24515WAT     H273788   8.989   4.240   9.808
24516WAT      O73789   5.510   2.506   0.963
24516WAT     H173790   5.493   2.530   1.058
24516WAT     H273791   5.510   2.589   0.907
24517WAT      O73792   6.292   3.910   4.153
24517WAT     H173793   6.347   3.908   4.070
24517WAT     H273794   6.246   3.822   4.164
24518WAT      O73795   7.159   4.904   1.407
24518WAT     H173796   7.075   4.931   1.453
24518WAT     H273797   7.235   4.961   1.439
24519WAT      O73798   8.234   3.956   0.547
24519WAT     H173799   8.256   3.886   0.615
24519WAT     H273800   8.219   3.913   0.458
24520WAT      O73801   5.306   1.966   3.770
24520WAT     H173802   5.208   1.977   3.754
24520WAT     H273803   5.349   1.924   3.691
24521WAT      O73804   1.662   0.792   8.842
24521WAT     H173805   1.734   0.808   8.909
24521WAT     H273806   1.593   0.864   8.849
24522WAT      O73807   5.846   4.340   7.633
24522WAT     H173808   5.805   4.431   7.646
24522WAT     H273809   5.945   4.347   7.643
24523WAT      O73810   4.280   1.595   0.604
24523WAT     H173811   4.205   1.661   0.601
24523WAT     H273812   4.306   1.569   0.511
24524WAT      O73813   1.367   3.375   9.887
24524WAT     H173814   1.305   3.321   9.944
24524WAT     H273815   1.314   3.423   9.817
24525WAT      O73816   6.736   8.610   4.297
24525WAT     H173817   6.654   8.592   4.243
24525WAT     H273818   6.746   8.709   4.310
24526WAT      O73819   8.110   9.113   9.152
24526WAT     H173820   8.206   9.120   9.177
24526WAT     H273821   8.081   9.018   9.155
24527WAT      O73822   4.239   2.766   8.950
24527WAT     H173823   4.263   2.850   8.901
24527WAT     H273824   4.150   2.733   8.917
24528WAT      O73825   6.541   9.763   9.782
24528WAT     H173826   6.587   9.813   9.855
24528WAT     H273827   6.581   9.672   9.774
24529WAT      O73828   7.724   8.718   0.497
24529WAT     H173829   7.720   8.802   0.552
24529WAT     H273830   7.659   8.652   0.533
24530WAT      O73831   3.628   5.647   0.876
24530WAT     H173832   3.599   5.592   0.955
24530WAT     H273833   3.645   5.741   0.906
24531WAT      O73834   0.405   3.530   0.977
24531WAT     H173835   0.364   3.614   0.941
24531WAT     H273836   0.362   3.508   1.064
24532WAT      O73837   6.199   8.860   1.225
24532WAT     H173838   6.214   8.905   1.313
24532WAT     H273839   6.193   8.928   1.152
24533WAT      O73840   2.789   7.417   6.283
24533WAT     H173841   2.859   7.351   6.255
24533WAT     H273842   2.771   7.480   6.207
24534WAT      O73843   8.378   2.943   1.160
24534WAT     H173844   8.405   3.034   1.190
24534WAT     H273845   8.449   2.904   1.101
24535WAT      O73846   3.140   5.427   4.505
24535WAT     H173847   3.113   5.342   4.460
24535WAT     H273848   3.239   5.430   4.516
24536WAT      O73849   7.154   2.190   3.641
24536WAT     H173850   7.207   2.154   3.564
24536WAT     H273851   7.128   2.285   3.623
24537WAT      O73852   3.055   0.055   7.490
24537WAT     H173853   3.026   0.059   7.586
24537WAT     H273854   3.086   0.146   7.461
24538WAT      O73855   3.326   8.265   4.264
24538WAT     H173856   3.340   8.167   4.277
24538WAT     H273857   3.326   8.286   4.166
24539WAT      O73858   5.726   5.375   5.920
24539WAT     H173859   5.716   5.348   6.016
24539WAT     H273860   5.639   5.414   5.887
24540WAT      O73861   8.954   5.366   4.431
24540WAT     H173862   8.867   5.352   4.478
24540WAT     H273863   9.012   5.427   4.485
24541WAT      O73864   3.898   0.533   9.444
24541WAT     H173865   3.951   0.566   9.365
24541WAT     H273866   3.941   0.451   9.481
24542WAT      O73867   7.141   6.701   4.322
24542WAT     H173868   7.085   6.685   4.240
24542WAT     H273869   7.195   6.784   4.310
24543WAT      O73870   8.100   5.882   4.817
24543WAT     H173871   8.077   5.898   4.913
24543WAT     H273872   8.181   5.935   4.793
24544WAT      O73873   0.927   4.716   4.590
24544WAT     H173874   0.904   4.723   4.493
24544WAT     H273875   1.020   4.682   4.601
24545WAT      O73876   0.135   9.785   8.493
24545WAT     H173877   0.159   9.696   8.454
24545WAT     H273878   0.193   9.856   8.453
24546WAT      O73879   1.245   5.698   3.754
24546WAT     H173880   1.206   5.652   3.674
24546WAT     H273881   1.173   5.713   3.823
24547WAT      O73882   1.116   8.186   0.677
24547WAT     H173883   1.112   8.244   0.759
24547WAT     H273884   1.071   8.233   0.601
24548WAT      O73885   8.279   7.718   6.489
24548WAT     H173886   8.333   7.638   6.514
24548WAT     H273887   8.182   7.695   6.488
24549WAT      O73888   9.823   6.810   7.554
24549WAT     H173889   9.796   6.722   7.595
24549WAT     H273890   9.752   6.840   7.490
24550WAT      O73891   2.758   5.011   7.749
24550WAT     H173892   2.677   4.958   7.776
24550WAT     H273893   2.760   5.020   7.649
24551WAT      O73894   4.224   0.636   0.890
24551WAT     H173895   4.284   0.711   0.861
24551WAT     H273896   4.275   0.550   0.885
24552WAT      O73897   0.141   7.871   0.234
24552WAT     H173898   0.146   7.860   0.334
24552WAT     H273899   0.062   7.820   0.199
24553WAT      O73900   3.069   5.469   5.323
24553WAT     H173901   3.022   5.544   5.276
24553WAT     H273902   3.140   5.432   5.263
24554WAT      O73903   4.461   7.949   9.200
24554WAT     H173904   4.535   7.888   9.228
24554WAT     H273905   4.391   7.895   9.151
24555WAT      O73906   8.961   9.733   4.331
24555WAT     H173907   8.958   9.833   4.326
24555WAT     H273908   8.892   9.694   4.271
24556WAT      O73909   2.914   4.888   3.806
24556WAT     H173910   2.938   4.909   3.711
24556WAT     H273911   2.979   4.934   3.867
24557WAT      O73912   3.022   0.292   9.036
24557WAT     H173913   2.996   0.359   8.966
24557WAT     H273914   3.016   0.200   8.998
24558WAT      O73915   3.150   1.512   2.580
24558WAT     H173916   3.204   1.565   2.515
24558WAT     H273917   3.056   1.503   2.547
24559WAT      O73918   5.719   9.240   7.828
24559WAT     H173919   5.741   9.300   7.750
24559WAT     H273920   5.704   9.296   7.909
24560WAT      O73921   1.897   8.447   4.621
24560WAT     H173922   1.993   8.454   4.597
24560WAT     H273923   1.880   8.495   4.707
24561WAT      O73924   0.085   9.564   0.431
24561WAT     H173925   0.126   9.651   0.457
24561WAT     H273926   0.143   9.489   0.462
24562WAT      O73927   0.893   5.217   7.174
24562WAT     H173928   0.851   5.210   7.084
24562WAT     H273929   0.934   5.308   7.185
24563WAT      O73930   6.330   4.028   1.413
24563WAT     H173931   6.308   3.978   1.329
24563WAT     H273932   6.271   4.108   1.421
24564WAT      O73933   9.579   7.155   7.335
24564WAT     H173934   9.618   7.063   7.341
24564WAT     H273935   9.587   7.200   7.425
24565WAT      O73936   8.382   7.289   3.372
24565WAT     H173937   8.470   7.257   3.407
24565WAT     H273938   8.308   7.259   3.434
24566WAT      O73939   0.128   6.425   0.897
24566WAT     H173940   0.141   6.379   0.985
24566WAT     H273941   0.104   6.521   0.913
24567WAT      O73942   9.286   0.885   6.408
24567WAT     H173943   9.302   0.867   6.311
24567WAT     H273944   9.362   0.850   6.462
24568WAT      O73945   7.532   8.723   7.136
24568WAT     H173946   7.589   8.645   7.163
24568WAT     H273947   7.495   8.707   7.045
24569WAT      O73948   2.784   7.713   4.982
24569WAT     H173949   2.825   7.743   4.896
24569WAT     H273950   2.698   7.763   4.997
24570WAT      O73951   3.390   5.631   4.846
24570WAT     H173952   3.414   5.717   4.891
24570WAT     H273953   3.386   5.644   4.747
24571WAT      O73954   9.373   5.329   4.361
24571WAT     H173955   9.352   5.384   4.280
24571WAT     H273956   9.466   5.349   4.392
24572WAT      O73957   1.681   2.555   8.835
24572WAT     H173958   1.687   2.488   8.761
24572WAT     H273959   1.720   2.642   8.805
24573WAT      O73960   9.822   6.924   3.828
24573WAT     H173961   9.865   7.013   3.842
24573WAT     H273962   9.796   6.914   3.732
24574WAT      O73963   3.870   3.091   0.882
24574WAT     H173964   3.875   3.163   0.814
24574WAT     H273965   3.794   3.110   0.945
24575WAT      O73966   1.435   3.555   0.196
24575WAT     H173967   1.421   3.493   0.119
24575WAT     H273968   1.528   3.593   0.192
24576WAT      O73969   4.029   7.557   4.337
24576WAT     H173970   3.965   7.599   4.273
24576WAT     H273971   4.072   7.628   4.393
24577WAT      O73972   1.677   1.350   7.632
24577WAT     H173973   1.672   1.262   7.585
24577WAT     H273974   1.683   1.423   7.565
24578WAT      O73975   5.772   3.985   1.651
24578WAT     H173976   5.856   4.016   1.606
24578WAT     H273977   5.782   3.889   1.678
24579WAT      O73978   4.490   3.311   9.458
24579WAT     H173979   4.402   3.287   9.501
24579WAT     H273980   4.510   3.246   9.385
24580WAT      O73981   1.850   1.420   4.882
24580WAT     H173982   1.764   1.370   4.878
24580WAT     H273983   1.921   1.360   4.919
24581WAT      O73984   5.278   9.322   0.515
24581WAT     H173985   5.313   9.246   0.571
24581WAT     H273986   5.271   9.404   0.571
24582WAT      O73987   1.369   4.674   6.341
24582WAT     H173988   1.354   4.606   6.270
24582WAT     H273989   1.378   4.764   6.299
24583WAT      O73990   4.130   9.178   4.569
24583WAT     H173991   4.185   9.135   4.641
24583WAT     H273992   4.054   9.118   4.545
24584WAT      O73993   2.444   5.418   6.876
24584WAT     H173994   2.465   5.407   6.779
24584WAT     H273995   2.529   5.412   6.929
24585WAT      O73996   3.593   1.654   9.821
24585WAT     H173997   3.539   1.645   9.738
24585WAT     H273998   3.606   1.563   9.862
24586WAT      O73999   3.922   2.958   5.199
24586WAT     H174000   3.989   2.964   5.125
24586WAT     H274001   3.858   3.034   5.193
24587WAT      O74002   3.187   1.269   2.780
24587WAT     H174003   3.161   1.339   2.713
24587WAT     H274004   3.108   1.244   2.835
24588WAT      O74005   7.976   6.930   7.778
24588WAT     H174006   7.895   6.945   7.834
24588WAT     H274007   7.967   6.979   7.692
24589WAT      O74008   3.462   0.509   2.375
24589WAT     H174009   3.495   0.420   2.344
24589WAT     H274010   3.517   0.541   2.451
24590WAT      O74011   8.726   1.429   2.260
24590WAT     H174012   8.730   1.377   2.174
24590WAT     H274013   8.651   1.394   2.316
24591WAT      O74014   6.390   8.329   6.673
24591WAT     H174015   6.402   8.406   6.611
24591WAT     H274016   6.479   8.296   6.704
24592WAT      O74017   3.434   4.485   5.659
24592WAT     H174018   3.340   4.452   5.650
24592WAT     H274019   3.472   4.504   5.569
24593WAT      O74020   6.518   0.836   8.308
24593WAT     H174021   6.566   0.875   8.386
24593WAT     H274022   6.573   0.764   8.267
24594WAT      O74023   2.636   7.004   9.269
24594WAT     H174024   2.622   6.993   9.368
24594WAT     H274025   2.608   6.920   9.222
24595WAT      O74026   6.023   8.690   3.759
24595WAT     H174027   6.037   8.601   3.715
24595WAT     H274028   5.990   8.756   3.691
24596WAT      O74029   6.171   9.583   5.856
24596WAT     H174030   6.177   9.523   5.776
24596WAT     H274031   6.076   9.611   5.869
24597WAT      O74032   2.151   3.446   2.978
24597WAT     H174033   2.095   3.392   2.915
24597WAT     H274034   2.244   3.408   2.981
24598WAT      O74035   3.883   1.658   3.478
24598WAT     H174036   3.973   1.652   3.520
24598WAT     H274037   3.876   1.743   3.427
24599WAT      O74038   0.222   5.438   8.267
24599WAT     H174039   0.310   5.395   8.250
24599WAT     H274040   0.212   5.518   8.207
24600WAT      O74041   1.184   8.006   3.934
24600WAT     H174042   1.264   7.951   3.911
24600WAT     H274043   1.142   7.969   4.017
24601WAT      O74044   1.235   0.433   2.838
24601WAT     H174045   1.216   0.524   2.800
24601WAT     H274046   1.149   0.382   2.847
24602WAT      O74047   4.938   0.804   7.435
24602WAT     H174048   4.992   0.749   7.500
24602WAT     H274049   4.843   0.806   7.465
24603WAT      O74050   9.880   7.939   3.931
24603WAT     H174051   9.839   8.026   3.905
24603WAT     H274052   9.845   7.911   4.020
24604WAT      O74053   0.928   9.193   6.703
24604WAT     H174054   0.931   9.133   6.623
24604WAT     H274055   0.840   9.183   6.748
24605WAT      O74056   8.758   2.641   2.319
24605WAT     H174057   8.762   2.606   2.225
24605WAT     H274058   8.811   2.580   2.379
24606WAT      O74059   2.921   9.579   3.452
24606WAT     H174060   3.007   9.622   3.478
24606WAT     H274061   2.863   9.646   3.406
24607WAT      O74062   0.307   4.853   8.499
24607WAT     H174063   0.371   4.778   8.483
24607WAT     H274064   0.225   4.840   8.443
24608WAT      O74065   4.992   6.672   4.236
24608WAT     H174066   5.006   6.721   4.322
24608WAT     H274067   4.915   6.609   4.246
24609WAT      O74068   4.268   0.176   0.987
24609WAT     H174069   4.318   0.153   1.071
24609WAT     H274070   4.231   0.092   0.947
24610WAT      O74071   6.844   8.188   3.260
24610WAT     H174072   6.895   8.251   3.201
24610WAT     H274073   6.909   8.129   3.308
24611WAT      O74074   4.031   6.911   6.344
24611WAT     H174075   4.070   6.915   6.252
24611WAT     H274076   4.002   6.818   6.364
24612WAT      O74077   1.993   7.056   9.790
24612WAT     H174078   2.084   7.095   9.807
24612WAT     H274079   1.928   7.095   9.855
24613WAT      O74080   6.220   0.054   2.801
24613WAT     H174081   6.130   0.011   2.814
24613WAT     H274082   6.229   0.084   2.706
24614WAT      O74083   9.065   2.545   1.939
24614WAT     H174084   8.981   2.499   1.910
24614WAT     H274085   9.141   2.516   1.880
24615WAT      O74086   6.515   3.920   2.358
24615WAT     H174087   6.448   3.966   2.300
24615WAT     H274088   6.607   3.954   2.338
24616WAT      O74089   2.469   5.375   2.703
24616WAT     H174090   2.432   5.284   2.724
24616WAT     H274091   2.399   5.444   2.722
24617WAT      O74092   2.687   5.886   0.869
24617WAT     H174093   2.663   5.810   0.929
24617WAT     H274094   2.787   5.897   0.868
24618WAT      O74095   0.254   0.311   3.164
24618WAT     H174096   0.275   0.224   3.209
24618WAT     H274097   0.338   0.351   3.127
24619WAT      O74098   7.409   0.195   2.617
24619WAT     H174099   7.463   0.115   2.592
24619WAT     H274100   7.368   0.235   2.535
24620WAT      O74101   0.568   1.563   3.290
24620WAT     H174102   0.483   1.576   3.341
24620WAT     H274103   0.602   1.651   3.258
24621WAT      O74104   3.935   1.530   1.182
24621WAT     H174105   3.839   1.525   1.155
24621WAT     H274106   3.991   1.549   1.102
24622WAT      O74107   4.589   7.552   2.641
24622WAT     H174108   4.544   7.552   2.552
24622WAT     H274109   4.648   7.633   2.648
24623WAT      O74110   7.936   3.766   2.513
24623WAT     H174111   8.035   3.777   2.503
24623WAT     H274112   7.917   3.704   2.589
24624WAT      O74113   1.455   5.204   6.640
24624WAT     H174114   1.533   5.212   6.701
24624WAT     H274115   1.462   5.119   6.587
24625WAT      O74116   2.688   1.948   0.820
24625WAT     H174117   2.631   1.928   0.899
24625WAT     H274118   2.734   1.864   0.791
24626WAT      O74119   1.893   9.058   3.266
24626WAT     H174120   1.975   9.048   3.210
24626WAT     H274121   1.843   8.971   3.269
24627WAT      O74122   5.117   8.159   8.180
24627WAT     H174123   5.046   8.157   8.110
24627WAT     H274124   5.184   8.087   8.162
24628WAT      O74125   3.407   1.741   1.918
24628WAT     H174126   3.422   1.677   1.994
24628WAT     H274127   3.417   1.835   1.950
24629WAT      O74128   0.061   2.780   5.023
24629WAT     H174129   0.045   2.789   4.925
24629WAT     H274130   0.148   2.822   5.047
24630WAT      O74131   8.737   1.684   1.343
24630WAT     H174132   8.780   1.594   1.334
24630WAT     H274133   8.644   1.680   1.308
24631WAT      O74134   9.616   6.798   6.383
24631WAT     H174135   9.693   6.811   6.445
24631WAT     H274136   9.562   6.882   6.379
24632WAT      O74137   3.413   6.811   8.308
24632WAT     H174138   3.385   6.907   8.314
24632WAT     H274139   3.420   6.784   8.212
24633WAT      O74140   9.511   1.526   0.165
24633WAT     H174141   9.499   1.457   0.237
24633WAT     H274142   9.599   1.572   0.178
24634WAT      O74143   6.007   6.483   0.787
24634WAT     H174144   6.015   6.416   0.713
24634WAT     H274145   5.993   6.574   0.749
24635WAT      O74146   4.991   7.082   8.340
24635WAT     H174147   5.067   7.068   8.275
24635WAT     H274148   4.924   7.009   8.327
24636WAT      O74149   8.895   8.493   7.733
24636WAT     H174150   8.979   8.534   7.770
24636WAT     H274151   8.917   8.439   7.652
24637WAT      O74152   8.205   2.319   6.328
24637WAT     H174153   8.293   2.355   6.357
24637WAT     H274154   8.170   2.255   6.396
24638WAT      O74155   4.559   6.045   6.522
24638WAT     H174156   4.478   6.072   6.470
24638WAT     H274157   4.532   6.023   6.615
24639WAT      O74158   0.841   2.035   9.283
24639WAT     H174159   0.940   2.042   9.298
24639WAT     H274160   0.823   1.965   9.213
24640WAT      O74161   9.469   8.430   3.147
24640WAT     H174162   9.507   8.469   3.230
24640WAT     H274163   9.519   8.464   3.068
24641WAT      O74164   9.855   6.421   7.795
24641WAT     H174165   9.899   6.458   7.877
24641WAT     H274166   9.796   6.344   7.822
24642WAT      O74167   2.355   6.618   3.598
24642WAT     H174168   2.333   6.522   3.617
24642WAT     H274169   2.350   6.671   3.682
24643WAT      O74170   6.659   9.761   2.473
24643WAT     H174171   6.652   9.673   2.426
24643WAT     H274172   6.618   9.833   2.416
24644WAT      O74173   4.949   9.214   7.329
24644WAT     H174174   4.914   9.121   7.339
24644WAT     H274175   5.036   9.212   7.279
24645WAT      O74176   9.243   6.577   5.896
24645WAT     H174177   9.253   6.636   5.816
24645WAT     H274178   9.272   6.625   5.978
24646WAT      O74179   0.221   7.103   8.187
24646WAT     H174180   0.223   7.200   8.161
24646WAT     H274181   0.162   7.091   8.266
24647WAT      O74182   0.073   2.964   2.759
24647WAT     H174183   0.084   2.865   2.766
24647WAT     H274184   0.114   3.008   2.840
24648WAT      O74185   3.212   5.030   2.384
24648WAT     H174186   3.172   5.120   2.366
24648WAT     H274187   3.256   5.030   2.473
24649WAT      O74188   4.539   6.331   4.082
24649WAT     H174189   4.591   6.415   4.096
24649WAT     H274190   4.498   6.331   3.991
24650WAT      O74191   0.356   3.310   5.070
24650WAT     H174192   0.305   3.240   5.121
24650WAT     H274193   0.415   3.266   5.003
24651WAT      O74194   6.085   4.704   3.959
24651WAT     H174195   6.095   4.608   3.931
24651WAT     H274196   6.017   4.710   4.031
24652WAT      O74197   0.003   8.794   1.455
24652WAT     H174198   0.001   8.847   1.539
24652WAT     H274199   0.087   8.814   1.404
24653WAT      O74200   6.788   5.597   4.981
24653WAT     H174201   6.700   5.550   4.988
24653WAT     H274202   6.773   5.693   4.956
24654WAT      O74203   6.873   6.215   5.985
24654WAT     H174204   6.972   6.207   5.969
24654WAT     H274205   6.857   6.255   6.075
24655WAT      O74206   7.308   9.777   7.435
24655WAT     H174207   7.344   9.709   7.498
24655WAT     H274208   7.302   9.866   7.480
24656WAT      O74209   8.691   1.854   4.576
24656WAT     H174210   8.702   1.800   4.659
24656WAT     H274211   8.752   1.820   4.505
24657WAT      O74212   5.755   8.096   2.361
24657WAT     H174213   5.662   8.114   2.393
24657WAT     H274214   5.785   8.169   2.300
24658WAT      O74215   0.985   0.903   3.657
24658WAT     H174216   1.056   0.917   3.726
24658WAT     H274217   0.917   0.975   3.664
24659WAT      O74218   3.628   9.684   4.543
24659WAT     H174219   3.603   9.587   4.539
24659WAT     H274220   3.601   9.722   4.631
24660WAT      O74221   9.377   4.381   4.401
24660WAT     H174222   9.375   4.443   4.323
24660WAT     H274223   9.293   4.391   4.454
24661WAT      O74224   9.096   3.166   0.022
24661WAT     H174225   9.010   3.133  -0.016
24661WAT     H274226   9.162   3.181  -0.051
24662WAT      O74227   8.058   4.569   5.685
24662WAT     H174228   8.155   4.585   5.703
24662WAT     H274229   8.044   4.559   5.587
24663WAT      O74230   3.759   1.511   6.408
24663WAT     H174231   3.791   1.416   6.409
24663WAT     H274232   3.695   1.524   6.332
24664WAT      O74233   2.763   8.795   4.971
24664WAT     H174234   2.833   8.807   5.042
24664WAT     H274235   2.677   8.836   5.002
24665WAT      O74236   6.325   1.523   7.828
24665WAT     H174237   6.301   1.438   7.780
24665WAT     H274238   6.281   1.524   7.917
24666WAT      O74239   6.489   7.283   0.157
24666WAT     H174240   6.454   7.206   0.103
24666WAT     H274241   6.499   7.363   0.099
24667WAT      O74242   7.181   1.787   9.333
24667WAT     H174243   7.130   1.702   9.333
24667WAT     H274244   7.122   1.862   9.364
24668WAT      O74245   5.485   6.265   1.629
24668WAT     H174246   5.520   6.350   1.668
24668WAT     H274247   5.559   6.218   1.580
24669WAT      O74248   3.769   7.238   1.660
24669WAT     H174249   3.677   7.269   1.682
24669WAT     H274250   3.813   7.203   1.743
24670WAT      O74251   2.323   0.950   3.067
24670WAT     H174252   2.335   0.910   2.977
24670WAT     H274253   2.339   1.049   3.062
24671WAT      O74254   9.454   7.459   0.563
24671WAT     H174255   9.414   7.541   0.522
24671WAT     H274256   9.484   7.396   0.492
24672WAT      O74257   2.677   5.218   9.143
24672WAT     H174258   2.769   5.196   9.174
24672WAT     H274259   2.679   5.302   9.089
24673WAT      O74260   7.929   3.625   3.859
24673WAT     H174261   7.979   3.621   3.946
24673WAT     H274262   7.965   3.701   3.803
24674WAT      O74263   2.600   5.984   1.906
24674WAT     H174264   2.693   5.948   1.902
24674WAT     H274265   2.595   6.056   1.976
24675WAT      O74266   9.830   9.041   5.149
24675WAT     H174267   9.813   9.138   5.129
24675WAT     H274268   9.873   9.033   5.239
24676WAT      O74269   4.546   9.634   1.656
24676WAT     H174270   4.583   9.726   1.645
24676WAT     H274271   4.616   9.575   1.697
24677WAT      O74272   7.242   4.843   7.549
24677WAT     H174273   7.263   4.926   7.498
24677WAT     H274274   7.281   4.764   7.502
24678WAT      O74275   6.939   1.728   3.242
24678WAT     H174276   6.925   1.630   3.254
24678WAT     H274277   6.853   1.771   3.213
24679WAT      O74278   6.071   5.108   8.704
24679WAT     H174279   5.980   5.147   8.700
24679WAT     H274280   6.130   5.166   8.761
24680WAT      O74281   7.936   2.811   2.691
24680WAT     H174282   7.983   2.869   2.625
24680WAT     H274283   7.856   2.769   2.648
24681WAT      O74284   8.195   3.856   2.583
24681WAT     H174285   8.218   3.934   2.524
24681WAT     H274286   8.210   3.881   2.679
24682WAT      O74287   3.934   0.920   1.222
24682WAT     H174288   3.848   0.912   1.170
24682WAT     H274289   3.949   1.016   1.244
24683WAT      O74290   7.289   1.317   9.144
24683WAT     H174291   7.222   1.280   9.080
24683WAT     H274292   7.321   1.406   9.112
24684WAT      O74293   8.038   6.490   7.085
24684WAT     H174294   8.012   6.475   6.989
24684WAT     H274295   7.969   6.548   7.129
24685WAT      O74296   7.194   8.509   1.323
24685WAT     H174297   7.241   8.438   1.271
24685WAT     H274298   7.243   8.526   1.408
24686WAT      O74299   0.274   7.609   7.335
24686WAT     H174300   0.218   7.627   7.415
24686WAT     H274301   0.318   7.694   7.305
24687WAT      O74302   5.026   3.274   8.430
24687WAT     H174303   4.971   3.279   8.346
24687WAT     H274304   5.002   3.350   8.490
24688WAT      O74305   5.889   7.529   0.453
24688WAT     H174306   5.885   7.628   0.464
24688WAT     H274307   5.885   7.485   0.543
24689WAT      O74308   0.621   7.348   7.340
24689WAT     H174309   0.702   7.314   7.389
24689WAT     H274310   0.593   7.280   7.273
24690WAT      O74311   1.713   6.657   1.935
24690WAT     H174312   1.726   6.562   1.908
24690WAT     H274313   1.637   6.697   1.883
24691WAT      O74314   8.393   2.543   0.647
24691WAT     H174315   8.391   2.626   0.591
24691WAT     H274316   8.375   2.566   0.743
24692WAT      O74317   5.043   9.721   9.265
24692WAT     H174318   5.103   9.696   9.188
24692WAT     H274319   5.099   9.745   9.344
24693WAT      O74320   4.104   0.643   8.054
24693WAT     H174321   4.076   0.730   8.014
24693WAT     H274322   4.143   0.584   7.983
24694WAT      O74323   9.389   3.857   1.209
24694WAT     H174324   9.418   3.801   1.131
24694WAT     H274325   9.439   3.828   1.290
24695WAT      O74326   8.188   9.309   7.677
24695WAT     H174327   8.116   9.320   7.746
24695WAT     H274328   8.253   9.240   7.707
24696WAT      O74329   4.287   5.681   3.635
24696WAT     H174330   4.201   5.702   3.682
24696WAT     H274331   4.357   5.656   3.702
24697WAT      O74332   0.291   3.207   5.944
24697WAT     H174333   0.250   3.245   5.861
24697WAT     H274334   0.385   3.179   5.925
24698WAT      O74335   5.401   4.292   9.405
24698WAT     H174336   5.415   4.373   9.347
24698WAT     H274337   5.311   4.253   9.386
24699WAT      O74338   0.281   6.448   1.750
24699WAT     H174339   0.301   6.542   1.777
24699WAT     H274340   0.361   6.409   1.705
24700WAT      O74341   3.705   3.923   4.548
24700WAT     H174342   3.725   3.914   4.450
24700WAT     H274343   3.650   4.005   4.564
24701WAT      O74344   7.209   4.177   9.311
24701WAT     H174345   7.211   4.160   9.212
24701WAT     H274346   7.140   4.246   9.331
24702WAT      O74347   9.464   2.818   9.360
24702WAT     H174348   9.552   2.771   9.365
24702WAT     H274349   9.460   2.890   9.430
24703WAT      O74350   4.215   6.263   0.651
24703WAT     H174351   4.283   6.190   0.660
24703WAT     H274352   4.128   6.223   0.622
24704WAT      O74353   6.197   3.798   3.858
24704WAT     H174354   6.236   3.712   3.825
24704WAT     H274355   6.269   3.855   3.897
24705WAT      O74356   2.923   7.831   3.579
24705WAT     H174357   2.878   7.840   3.668
24705WAT     H274358   3.022   7.839   3.590
24706WAT      O74359   7.085   0.384   6.560
24706WAT     H174360   7.171   0.402   6.608
24706WAT     H274361   7.051   0.468   6.520
24707WAT      O74362   4.778   5.248   1.805
24707WAT     H174363   4.718   5.269   1.728
24707WAT     H274364   4.829   5.165   1.786
24708WAT      O74365   2.552   4.766   3.432
24708WAT     H174366   2.561   4.691   3.367
24708WAT     H274367   2.607   4.746   3.513
24709WAT      O74368   2.623   4.064   2.317
24709WAT     H174369   2.532   4.088   2.284
24709WAT     H274370   2.627   4.079   2.416
24710WAT      O74371   1.019   3.928   2.930
24710WAT     H174372   0.977   3.858   2.872
24710WAT     H274373   0.956   3.954   3.003
24711WAT      O74374   6.186   0.774   7.682
24711WAT     H174375   6.164   0.774   7.585
24711WAT     H274376   6.107   0.746   7.735
24712WAT      O74377   3.896   6.947   2.404
24712WAT     H174378   3.988   6.946   2.443
24712WAT     H274379   3.895   6.895   2.319
24713WAT      O74380   8.474   7.140   4.759
24713WAT     H174381   8.489   7.113   4.664
24713WAT     H274382   8.560   7.176   4.797
24714WAT      O74383   9.097   2.499   6.375
24714WAT     H174384   9.118   2.573   6.439
24714WAT     H274385   9.009   2.458   6.400
24715WAT      O74386   7.058   2.939   7.842
24715WAT     H174387   6.986   2.989   7.793
24715WAT     H274388   7.108   2.881   7.778
24716WAT      O74389   0.654   5.662   5.232
24716WAT     H174390   0.627   5.569   5.258
24716WAT     H274391   0.586   5.727   5.265
24717WAT      O74392   7.378   0.619   0.951
24717WAT     H174393   7.411   0.549   0.888
24717WAT     H274394   7.279   0.610   0.963
24718WAT      O74395   5.328   6.337   5.607
24718WAT     H174396   5.356   6.256   5.556
24718WAT     H274397   5.380   6.416   5.575
24719WAT      O74398   3.647   7.752   2.908
24719WAT     H174399   3.556   7.792   2.920
24719WAT     H274400   3.683   7.778   2.818
24720WAT      O74401   2.498   1.965   0.167
24720WAT     H174402   2.477   1.899   0.239
24720WAT     H274403   2.452   1.939   0.083
24721WAT      O74404   1.481   2.718   0.358
24721WAT     H174405   1.397   2.738   0.306
24721WAT     H274406   1.559   2.763   0.314
24722WAT      O74407   4.850   9.808   2.734
24722WAT     H174408   4.810   9.745   2.667
24722WAT     H274409   4.782   9.878   2.757
24723WAT      O74410   9.455   7.833   3.092
24723WAT     H174411   9.479   7.842   3.189
24723WAT     H274412   9.415   7.743   3.076
24724WAT      O74413   3.969   5.498   7.708
24724WAT     H174414   3.942   5.584   7.752
24724WAT     H274415   3.898   5.430   7.722
24725WAT      O74416   6.511   4.571   9.057
24725WAT     H174417   6.422   4.600   9.022
24725WAT     H274418   6.560   4.522   8.985
24726WAT      O74419   5.406   9.395   0.268
24726WAT     H174420   5.389   9.359   0.359
24726WAT     H274421   5.363   9.335   0.200
24727WAT      O74422   2.910   1.020   8.558
24727WAT     H174423   2.966   1.080   8.501
24727WAT     H274424   2.928   0.924   8.533
24728WAT      O74425   6.056   4.070   3.093
24728WAT     H174426   6.000   4.018   3.157
24728WAT     H274427   6.013   4.070   3.003
24729WAT      O74428   8.829   0.124   6.875
24729WAT     H174429   8.900   0.054   6.878
24729WAT     H274430   8.764   0.108   6.950
24730WAT      O74431   9.085   1.215   0.372
24730WAT     H174432   9.073   1.143   0.304
24730WAT     H274433   9.021   1.199   0.448
24731WAT      O74434   4.233   3.950   7.395
24731WAT     H174435   4.254   3.954   7.493
24731WAT     H274436   4.203   4.040   7.363
24732WAT      O74437   7.965   6.749   1.264
24732WAT     H174438   7.982   6.752   1.362
24732WAT     H274439   7.967   6.842   1.227
24733WAT      O74440   5.774   2.859   2.109
24733WAT     H174441   5.779   2.759   2.108
24733WAT     H274442   5.700   2.889   2.049
24734WAT      O74443   2.521   1.200   3.808
24734WAT     H174444   2.446   1.206   3.742
24734WAT     H274445   2.521   1.282   3.865
24735WAT      O74446   6.278   5.146   1.765
24735WAT     H174447   6.340   5.214   1.803
24735WAT     H274448   6.284   5.062   1.818
24736WAT      O74449   4.290   4.464   3.193
24736WAT     H174450   4.323   4.547   3.146
24736WAT     H274451   4.206   4.433   3.149
24737WAT      O74452   9.252   8.463   1.939
24737WAT     H174453   9.316   8.387   1.952
24737WAT     H274454   9.167   8.443   1.987
24738WAT      O74455   3.021   4.925   7.689
24738WAT     H174456   3.069   5.007   7.718
24738WAT     H274457   2.924   4.932   7.712
24739WAT      O74458   6.152   8.363   8.907
24739WAT     H174459   6.164   8.453   8.948
24739WAT     H274460   6.239   8.330   8.871
24740WAT      O74461   6.748   5.837   6.241
24740WAT     H174462   6.809   5.780   6.296
24740WAT     H274463   6.700   5.780   6.175
24741WAT      O74464   1.402   6.298   2.619
24741WAT     H174465   1.392   6.360   2.541
24741WAT     H274466   1.496   6.265   2.624
24742WAT      O74467   8.686   4.935   9.492
24742WAT     H174468   8.730   4.845   9.499
24742WAT     H274469   8.595   4.931   9.534
24743WAT      O74470   1.627   7.513   3.327
24743WAT     H174471   1.665   7.542   3.239
24743WAT     H274472   1.528   7.510   3.321
24744WAT      O74473   9.629   8.826   2.547
24744WAT     H174474   9.687   8.895   2.589
24744WAT     H274475   9.673   8.737   2.554
24745WAT      O74476   3.965   4.239   7.492
24745WAT     H174477   3.877   4.285   7.485
24745WAT     H274478   3.962   4.171   7.565
24746WAT      O74479   7.570   0.755   3.224
24746WAT     H174480   7.510   0.679   3.252
24746WAT     H274481   7.664   0.733   3.247
24747WAT      O74482   5.398   6.857   6.231
24747WAT     H174483   5.404   6.758   6.222
24747WAT     H274484   5.468   6.900   6.174
24748WAT      O74485   8.756   0.432   8.008
24748WAT     H174486   8.782   0.445   7.912
24748WAT     H274487   8.834   0.453   8.067
24749WAT      O74488   1.219   1.256   3.548
24749WAT     H174489   1.171   1.182   3.595
24749WAT     H274490   1.224   1.336   3.608
24750WAT      O74491   7.578   9.294   9.821
24750WAT     H174492   7.659   9.243   9.852
24750WAT     H274493   7.500   9.232   9.814
24751WAT      O74494   7.793   3.194   2.762
24751WAT     H174495   7.720   3.201   2.695
24751WAT     H274496   7.788   3.105   2.807
24752WAT      O74497   7.147   6.227   3.065
24752WAT     H174498   7.239   6.194   3.087
24752WAT     H274499   7.090   6.150   3.038
24753WAT      O74500   2.119   1.467   1.701
24753WAT     H174501   2.072   1.380   1.689
24753WAT     H274502   2.211   1.461   1.661
24754WAT      O74503   9.848   3.036   9.199
24754WAT     H174504   9.920   3.083   9.251
24754WAT     H274505   9.865   2.937   9.201
24755WAT      O74506   8.723   4.662   0.678
24755WAT     H174507   8.803   4.608   0.650
24755WAT     H274508   8.667   4.681   0.597
24756WAT      O74509   5.259   1.297   6.404
24756WAT     H174510   5.162   1.318   6.411
24756WAT     H274511   5.295   1.276   6.495
24757WAT      O74512   5.973   2.626   1.313
24757WAT     H174513   6.043   2.568   1.271
24757WAT     H274514   5.921   2.672   1.240
24758WAT      O74515   1.996   8.303   3.999
24758WAT     H174516   2.012   8.394   3.961
24758WAT     H274517   2.041   8.234   3.941
24759WAT      O74518   9.149   8.155   7.153
24759WAT     H174519   9.157   8.182   7.057
24759WAT     H274520   9.052   8.149   7.178
24760WAT      O74521   5.011   1.824   4.280
24760WAT     H174522   4.973   1.822   4.187
24760WAT     H274523   5.049   1.734   4.302
24761WAT      O74524   0.310   8.169   1.161
24761WAT     H174525   0.409   8.162   1.165
24761WAT     H274526   0.284   8.248   1.104
24762WAT      O74527   6.029   0.458   1.778
24762WAT     H174528   5.954   0.477   1.714
24762WAT     H274529   6.016   0.511   1.861
24763WAT      O74530   6.037   9.199   6.999
24763WAT     H174531   5.957   9.148   6.968
24763WAT     H274532   6.118   9.140   6.994
24764WAT      O74533   8.304   6.918   9.305
24764WAT     H174534   8.276   6.990   9.242
24764WAT     H274535   8.403   6.911   9.305
24765WAT      O74536   3.262   6.518   2.398
24765WAT     H174537   3.290   6.428   2.365
24765WAT     H274538   3.332   6.555   2.458
24766WAT      O74539   2.310   8.485   0.997
24766WAT     H174540   2.329   8.392   0.965
24766WAT     H274541   2.296   8.545   0.918
24767WAT      O74542   4.673   0.771   0.920
24767WAT     H174543   4.632   0.705   0.857
24767WAT     H274544   4.712   0.724   0.998
24768WAT      O74545   4.987   1.949   0.195
24768WAT     H174546   5.020   1.861   0.229
24768WAT     H274547   4.902   1.935   0.144
24769WAT      O74548   4.784   6.574   3.220
24769WAT     H174549   4.858   6.558   3.154
24769WAT     H274550   4.809   6.649   3.281
24770WAT      O74551   3.792   2.213   0.906
24770WAT     H174552   3.762   2.163   0.987
24770WAT     H274553   3.838   2.151   0.843
24771WAT      O74554   3.481   8.070   1.572
24771WAT     H174555   3.391   8.069   1.528
24771WAT     H274556   3.470   8.094   1.668
24772WAT      O74557   5.215   9.114   4.938
24772WAT     H174558   5.298   9.165   4.958
24772WAT     H274559   5.237   9.017   4.925
24773WAT      O74560   5.121   2.851   7.153
24773WAT     H174561   5.216   2.820   7.155
24773WAT     H274562   5.067   2.798   7.217
24774WAT      O74563   9.720   9.209   4.175
24774WAT     H174564   9.726   9.305   4.205
24774WAT     H274565   9.634   9.170   4.206
24775WAT      O74566   4.636   0.536   4.657
24775WAT     H174567   4.632   0.439   4.636
24775WAT     H274568   4.600   0.552   4.749
24776WAT      O74569   3.048   6.919   0.858
24776WAT     H174570   3.015   6.833   0.819
24776WAT     H274571   2.970   6.973   0.890
24777WAT      O74572   4.236   0.648   3.153
24777WAT     H174573   4.263   0.714   3.084
24777WAT     H274574   4.140   0.623   3.141
24778WAT      O74575   5.070   4.744   4.020
24778WAT     H174576   5.065   4.801   4.103
24778WAT     H274577   5.026   4.656   4.037
24779WAT      O74578   9.331   3.786   2.224
24779WAT     H174579   9.335   3.801   2.125
24779WAT     H274580   9.354   3.691   2.244
24780WAT      O74581   2.136   3.731   1.651
24780WAT     H174582   2.163   3.827   1.644
24780WAT     H274583   2.166   3.681   1.570
24781WAT      O74584   9.555   4.619   7.760
24781WAT     H174585   9.649   4.652   7.762
24781WAT     H274586   9.511   4.649   7.675
24782WAT      O74587   7.857   6.762   7.391
24782WAT     H174588   7.784   6.825   7.365
24782WAT     H274589   7.867   6.691   7.320
24783WAT      O74590   1.685   0.088   5.421
24783WAT     H174591   1.604   0.040   5.387
24783WAT     H274592   1.728   0.137   5.345
24784WAT      O74593   8.405   7.583   3.380
24784WAT     H174594   8.388   7.644   3.303
24784WAT     H274595   8.361   7.495   3.364
24785WAT      O74596   5.402   4.152   6.073
24785WAT     H174597   5.372   4.060   6.099
24785WAT     H274598   5.448   4.195   6.150
24786WAT      O74599   3.973   9.012   9.806
24786WAT     H174600   3.953   9.068   9.887
24786WAT     H274601   4.050   9.053   9.756
24787WAT      O74602   9.630   5.403   4.091
24787WAT     H174603   9.624   5.435   4.185
24787WAT     H274604   9.637   5.303   4.090
24788WAT      O74605   5.819   6.019   6.651
24788WAT     H174606   5.740   5.962   6.673
24788WAT     H274607   5.877   6.028   6.732
24789WAT      O74608   9.061   9.000   2.543
24789WAT     H174609   9.001   8.938   2.593
24789WAT     H274610   9.013   9.086   2.525
24790WAT      O74611   4.415   3.601   7.803
24790WAT     H174612   4.434   3.694   7.836
24790WAT     H274613   4.430   3.597   7.704
24791WAT      O74614   9.482   2.364   8.686
24791WAT     H174615   9.476   2.450   8.735
24791WAT     H274616   9.401   2.309   8.704
24792WAT      O74617   6.432   6.104   5.470
24792WAT     H174618   6.492   6.056   5.405
24792WAT     H274619   6.411   6.195   5.435
24793WAT      O74620   7.152   5.001   2.109
24793WAT     H174621   7.065   5.003   2.159
24793WAT     H274622   7.165   4.910   2.068
24794WAT      O74623   0.235   4.439   8.699
24794WAT     H174624   0.195   4.498   8.629
24794WAT     H274625   0.194   4.348   8.694
24795WAT      O74626   0.254   6.880   8.041
24795WAT     H174627   0.245   6.963   8.095
24795WAT     H274628   0.326   6.822   8.080
24796WAT      O74629   0.571   0.289   8.023
24796WAT     H174630   0.607   0.382   8.033
24796WAT     H274631   0.631   0.224   8.070
24797WAT      O74632   2.698   7.147   3.308
24797WAT     H174633   2.787   7.122   3.347
24797WAT     H274634   2.712   7.184   3.216
24798WAT      O74635   8.506   0.950   7.527
24798WAT     H174636   8.502   0.942   7.427
24798WAT     H274637   8.540   1.041   7.552
24799WAT      O74638   6.381   5.027   2.865
24799WAT     H174639   6.437   5.109   2.854
24799WAT     H274640   6.332   5.009   2.780
24800WAT      O74641   4.625   8.416   8.863
24800WAT     H174642   4.602   8.338   8.920
24800WAT     H274643   4.720   8.410   8.835
24801WAT      O74644   0.241   7.092   5.572
24801WAT     H174645   0.244   7.178   5.521
24801WAT     H274646   0.291   7.021   5.522
24802WAT      O74647   0.010   3.748   5.074
24802WAT     H174648  -0.071   3.744   5.015
24802WAT     H274649   0.066   3.666   5.060
24803WAT      O74650   9.591   0.242   7.832
24803WAT     H174651   9.659   0.242   7.905
24803WAT     H274652   9.504   0.209   7.868
24804WAT      O74653   5.951   5.058   8.068
24804WAT     H174654   5.946   5.119   8.147
24804WAT     H274655   5.894   4.977   8.084
24805WAT      O74656   8.593   4.840   1.268
24805WAT     H174657   8.615   4.756   1.219
24805WAT     H274658   8.667   4.906   1.257
24806WAT      O74659   2.433   1.413   2.741
24806WAT     H174660   2.470   1.421   2.834
24806WAT     H274661   2.335   1.428   2.743
24807WAT      O74662   2.901   9.532   2.439
24807WAT     H174663   2.860   9.444   2.417
24807WAT     H274664   2.960   9.523   2.519
24808WAT      O74665   3.867   2.748   1.519
24808WAT     H174666   3.937   2.808   1.480
24808WAT     H274667   3.820   2.699   1.446
24809WAT      O74668   6.888   5.160   1.821
24809WAT     H174669   6.883   5.249   1.777
24809WAT     H274670   6.934   5.168   1.910
24810WAT      O74671   8.826   0.434   0.004
24810WAT     H174672   8.760   0.375   0.050
24810WAT     H274673   8.863   0.387  -0.077
24811WAT      O74674   9.461   5.529   9.642
24811WAT     H174675   9.515   5.569   9.568
24811WAT     H274676   9.377   5.582   9.655
24812WAT      O74677   2.233   4.260   5.265
24812WAT     H174678   2.184   4.177   5.237
24812WAT     H274679   2.254   4.255   5.362
24813WAT      O74680   3.863   6.664   5.862
24813WAT     H174681   3.816   6.647   5.776
24813WAT     H274682   3.941   6.724   5.846
24814WAT      O74683   5.201   8.868   5.857
24814WAT     H174684   5.146   8.951   5.845
24814WAT     H274685   5.252   8.850   5.773
24815WAT      O74686   8.198   9.145   4.054
24815WAT     H174687   8.164   9.208   4.123
24815WAT     H274688   8.254   9.074   4.098
24816WAT      O74689   0.545   3.342   2.432
24816WAT     H174690   0.600   3.261   2.453
24816WAT     H274691   0.519   3.387   2.517
24817WAT      O74692   2.649   0.677   8.801
24817WAT     H174693   2.704   0.638   8.727
24817WAT     H274694   2.698   0.756   8.840
24818WAT      O74695   6.024   3.250   0.311
24818WAT     H174696   6.078   3.332   0.291
24818WAT     H274697   6.045   3.179   0.244
24819WAT      O74698   3.973   3.553   5.623
24819WAT     H174699   4.010   3.508   5.704
24819WAT     H274700   3.928   3.638   5.650
24820WAT      O74701   5.534   6.449   8.542
24820WAT     H174702   5.542   6.539   8.586
24820WAT     H274703   5.501   6.460   8.449
24821WAT      O74704   6.368   0.141   8.088
24821WAT     H174705   6.429   0.131   8.009
24821WAT     H274706   6.310   0.221   8.075
24822WAT      O74707   2.148   5.991   7.071
24822WAT     H174708   2.104   6.079   7.089
24822WAT     H274709   2.238   6.006   7.030
24823WAT      O74710   2.275   1.455   4.480
24823WAT     H174711   2.234   1.419   4.564
24823WAT     H274712   2.338   1.387   4.442
24824WAT      O74713   9.110   2.350   0.477
24824WAT     H174714   9.198   2.336   0.522
24824WAT     H274715   9.110   2.304   0.388
24825WAT      O74716   5.863   5.202   0.944
24825WAT     H174717   5.894   5.285   0.899
24825WAT     H274718   5.856   5.218   1.043
24826WAT      O74719   9.013   8.226   3.287
24826WAT     H174720   9.110   8.249   3.294
24826WAT     H274721   9.004   8.135   3.246
24827WAT      O74722   8.382   7.626   2.374
24827WAT     H174723   8.460   7.572   2.405
24827WAT     H274724   8.399   7.659   2.281
24828WAT      O74725   2.448   7.993   3.681
24828WAT     H174726   2.464   7.896   3.698
24828WAT     H274727   2.535   8.041   3.678
24829WAT      O74728   9.615   8.716   7.806
24829WAT     H174729   9.679   8.647   7.841
24829WAT     H274730   9.526   8.673   7.788
24830WAT      O74731   1.614   3.676   0.704
24830WAT     H174732   1.532   3.628   0.673
24830WAT     H274733   1.692   3.651   0.645
24831WAT      O74734   6.312   3.514   2.531
24831WAT     H174735   6.354   3.495   2.442
24831WAT     H274736   6.276   3.607   2.531
24832WAT      O74737   6.813   4.744   7.285
24832WAT     H174738   6.742   4.797   7.332
24832WAT     H274739   6.895   4.801   7.276
24833WAT      O74740   1.441   6.522   1.196
24833WAT     H174741   1.397   6.561   1.115
24833WAT     H274742   1.372   6.479   1.254
24834WAT      O74743   5.007   4.551   3.474
24834WAT     H174744   5.078   4.483   3.487
24834WAT     H274745   4.931   4.533   3.537
24835WAT      O74746   9.201   5.539   5.214
24835WAT     H174747   9.184   5.443   5.191
24835WAT     H274748   9.297   5.561   5.195
24836WAT      O74749   1.508   5.383   6.976
24836WAT     H174750   1.600   5.358   6.946
24836WAT     H274751   1.479   5.319   7.048
24837WAT      O74752   2.809   5.057   4.051
24837WAT     H174753   2.775   5.097   3.966
24837WAT     H274754   2.908   5.043   4.045
24838WAT      O74755   0.768   0.538   7.427
24838WAT     H174756   0.734   0.482   7.503
24838WAT     H274757   0.814   0.480   7.360
24839WAT      O74758   7.367   1.756   4.432
24839WAT     H174759   7.350   1.803   4.519
24839WAT     H274760   7.334   1.813   4.357
24840WAT      O74761   8.129   8.608   2.030
24840WAT     H174762   8.079   8.662   1.963
24840WAT     H274763   8.068   8.582   2.105
24841WAT      O74764   6.472   0.658   0.727
24841WAT     H174765   6.454   0.597   0.650
24841WAT     H274766   6.411   0.635   0.803
24842WAT      O74767   7.118   2.610   8.726
24842WAT     H174768   7.191   2.676   8.707
24842WAT     H274769   7.150   2.518   8.704
24843WAT      O74770   9.222   0.658   8.046
24843WAT     H174771   9.185   0.589   7.984
24843WAT     H274772   9.214   0.626   8.141
24844WAT      O74773   1.455   3.719   8.647
24844WAT     H174774   1.412   3.794   8.597
24844WAT     H274775   1.524   3.756   8.710
24845WAT      O74776   7.475   8.294   2.401
24845WAT     H174777   7.437   8.306   2.309
24845WAT     H274778   7.567   8.257   2.394
24846WAT      O74779   8.161   0.240   8.693
24846WAT     H174780   8.161   0.192   8.781
24846WAT     H274781   8.234   0.205   8.635
24847WAT      O74782   5.171   8.543   5.330
24847WAT     H174783   5.231   8.585   5.398
24847WAT     H274784   5.132   8.613   5.271
24848WAT      O74785   3.935   8.318   7.136
24848WAT     H174786   3.858   8.358   7.086
24848WAT     H274787   3.956   8.374   7.216
24849WAT      O74788   1.212   1.366   0.019
24849WAT     H174789   1.157   1.290  -0.017
24849WAT     H274790   1.163   1.409   0.095
24850WAT      O74791   1.984   8.287   8.864
24850WAT     H174792   1.973   8.386   8.852
24850WAT     H274793   2.069   8.258   8.820
24851WAT      O74794   6.772   4.756   5.437
24851WAT     H174795   6.847   4.814   5.406
24851WAT     H274796   6.809   4.670   5.473
24852WAT      O74797   5.927   2.033   3.109
24852WAT     H174798   6.023   2.003   3.112
24852WAT     H274799   5.877   1.992   3.184
24853WAT      O74800   3.936   7.652   8.611
24853WAT     H174801   4.017   7.688   8.656
24853WAT     H274802   3.954   7.640   8.513
24854WAT      O74803   2.251   5.233   0.555
24854WAT     H174804   2.271   5.152   0.611
24854WAT     H274805   2.337   5.268   0.516
24855WAT      O74806   2.595   4.925   4.183
24855WAT     H174807   2.678   4.973   4.155
24855WAT     H274808   2.538   4.908   4.103
24856WAT      O74809   7.631   9.395   1.640
24856WAT     H174810   7.701   9.454   1.679
24856WAT     H274811   7.594   9.438   1.557
24857WAT      O74812   9.547   7.257   9.314
24857WAT     H174813   9.471   7.231   9.374
24857WAT     H274814   9.592   7.339   9.350
24858WAT      O74815   1.409   2.068   5.248
24858WAT     H174816   1.458   1.983   5.264
24858WAT     H274817   1.316   2.048   5.215
24859WAT      O74818   3.439   1.358   1.079
24859WAT     H174819   3.465   1.301   1.001
24859WAT     H274820   3.392   1.440   1.047
24860WAT      O74821   9.364   6.779   7.431
24860WAT     H174822   9.409   6.692   7.452
24860WAT     H274823   9.281   6.761   7.378
24861WAT      O74824   0.642   5.231   1.359
24861WAT     H174825   0.651   5.325   1.327
24861WAT     H274826   0.547   5.201   1.349
24862WAT      O74827   2.632   1.599   3.527
24862WAT     H174828   2.627   1.698   3.524
24862WAT     H274829   2.721   1.571   3.564
24863WAT      O74830   1.107   3.107   2.920
24863WAT     H174831   1.158   3.030   2.880
24863WAT     H274832   1.071   3.079   3.009
24864WAT      O74833   7.170   4.775   3.485
24864WAT     H174834   7.207   4.691   3.524
24864WAT     H274835   7.138   4.757   3.392
24865WAT      O74836   0.824   6.213   1.105
24865WAT     H174837   0.863   6.158   1.178
24865WAT     H274838   0.874   6.196   1.020
24866WAT      O74839   7.411   9.647   1.193
24866WAT     H174840   7.473   9.724   1.209
24866WAT     H274841   7.415   9.620   1.097
24867WAT      O74842   4.717   2.295   9.196
24867WAT     H174843   4.731   2.350   9.114
24867WAT     H274844   4.795   2.232   9.207
24868WAT      O74845   6.937   7.264   4.959
24868WAT     H174846   6.932   7.273   5.058
24868WAT     H274847   6.853   7.297   4.918
24869WAT      O74848   2.493   0.923   0.802
24869WAT     H174849   2.397   0.916   0.772
24869WAT     H274850   2.538   0.997   0.753
24870WAT      O74851   1.902   6.535   4.587
24870WAT     H174852   1.810   6.540   4.625
24870WAT     H274853   1.969   6.533   4.662
24871WAT      O74854   1.266   4.426   6.678
24871WAT     H174855   1.312   4.503   6.633
24871WAT     H274856   1.173   4.418   6.643
24872WAT      O74857   0.890   4.935   7.766
24872WAT     H174858   0.858   4.843   7.788
24872WAT     H274859   0.859   4.998   7.837
24873WAT      O74860   7.887   3.805   7.338
24873WAT     H174861   7.846   3.746   7.268
24873WAT     H274862   7.855   3.776   7.428
24874WAT      O74863   8.557   6.705   0.502
24874WAT     H174864   8.611   6.760   0.439
24874WAT     H274865   8.489   6.762   0.547
24875WAT      O74866   7.763   8.020   0.720
24875WAT     H174867   7.831   8.034   0.792
24875WAT     H274868   7.774   8.090   0.649
24876WAT      O74869   2.859   4.737   4.291
24876WAT     H174870   2.776   4.684   4.276
24876WAT     H274871   2.901   4.759   4.202
24877WAT      O74872   2.276   4.320   3.946
24877WAT     H174873   2.306   4.305   3.852
24877WAT     H274874   2.355   4.320   4.007
24878WAT      O74875   7.863   5.498   8.449
24878WAT     H174876   7.788   5.508   8.384
24878WAT     H274877   7.847   5.557   8.528
24879WAT      O74878   2.756   5.539   6.295
24879WAT     H174879   2.735   5.635   6.278
24879WAT     H274880   2.725   5.484   6.218
24880WAT      O74881   5.547   0.018   0.995
24880WAT     H174882   5.538   0.114   0.969
24880WAT     H274883   5.635   0.003   1.039
24881WAT      O74884   2.897   1.655   8.971
24881WAT     H174885   2.942   1.579   9.019
24881WAT     H274886   2.960   1.732   8.964
24882WAT      O74887   2.934   1.241   3.592
24882WAT     H174888   3.030   1.226   3.614
24882WAT     H274889   2.913   1.201   3.503
24883WAT      O74890   2.127   2.337   1.265
24883WAT     H174891   2.101   2.417   1.211
24883WAT     H274892   2.213   2.354   1.312
24884WAT      O74893   7.195   8.985   9.231
24884WAT     H174894   7.170   8.912   9.295
24884WAT     H274895   7.266   8.952   9.170
24885WAT      O74896   4.210   4.989   8.025
24885WAT     H174897   4.179   4.917   7.963
24885WAT     H274898   4.160   4.982   8.112
24886WAT      O74899   3.185   3.888   4.487
24886WAT     H174900   3.180   3.793   4.520
24886WAT     H274901   3.151   3.892   4.393
24887WAT      O74902   3.793   3.591   0.213
24887WAT     H174903   3.891   3.587   0.231
24887WAT     H274904   3.743   3.550   0.290
24888WAT      O74905   9.278   8.217   3.230
24888WAT     H174906   9.314   8.155   3.299
24888WAT     H274907   9.343   8.291   3.213
24889WAT      O74908   8.433   1.620   6.710
24889WAT     H174909   8.351   1.602   6.764
24889WAT     H274910   8.459   1.538   6.659
24890WAT      O74911   7.622   0.036   2.580
24890WAT     H174912   7.692   0.074   2.641
24890WAT     H274913   7.665   0.008   2.494
24891WAT      O74914   0.103   5.379   2.815
24891WAT     H174915   0.158   5.376   2.898
24891WAT     H274916   0.120   5.464   2.765
24892WAT      O74917   4.162   6.320   0.916
24892WAT     H174918   4.235   6.314   0.984
24892WAT     H274919   4.199   6.292   0.827
24893WAT      O74920   9.086   4.199   4.103
24893WAT     H174921   9.119   4.217   4.011
24893WAT     H274922   8.999   4.150   4.098
24894WAT      O74923   0.264   8.383   1.005
24894WAT     H174924   0.340   8.409   0.945
24894WAT     H274925   0.262   8.443   1.084
24895WAT      O74926   5.632   7.483   8.028
24895WAT     H174927   5.722   7.461   7.990
24895WAT     H274928   5.640   7.565   8.086
24896WAT      O74929   6.723   2.941   8.368
24896WAT     H174930   6.687   2.861   8.415
24896WAT     H274931   6.706   2.933   8.270
24897WAT      O74932   4.789   7.759   9.021
24897WAT     H174933   4.723   7.685   9.035
24897WAT     H274934   4.817   7.761   8.925
24898WAT      O74935   1.209   1.599   5.584
24898WAT     H174936   1.142   1.654   5.633
24898WAT     H274937   1.261   1.657   5.521
24899WAT      O74938   2.545   6.674   6.428
24899WAT     H174939   2.605   6.747   6.396
24899WAT     H274940   2.463   6.669   6.371
24900WAT      O74941   6.958   5.949   9.730
24900WAT     H174942   7.047   5.905   9.714
24900WAT     H274943   6.968   6.019   9.801
24901WAT      O74944   5.515   5.305   7.359
24901WAT     H174945   5.501   5.207   7.372
24901WAT     H274946   5.602   5.320   7.312
24902WAT      O74947   1.356   7.186   6.145
24902WAT     H174948   1.299   7.238   6.208
24902WAT     H274949   1.452   7.196   6.171
24903WAT      O74950   0.968   2.686   7.902
24903WAT     H174951   0.986   2.719   7.809
24903WAT     H274952   0.918   2.756   7.953
24904WAT      O74953   4.710   6.295   4.932
24904WAT     H174954   4.611   6.292   4.916
24904WAT     H274955   4.742   6.202   4.953
24905WAT      O74956   5.597   8.880   8.064
24905WAT     H174957   5.616   8.917   7.973
24905WAT     H274958   5.498   8.876   8.078
24906WAT      O74959   5.388   8.934   1.556
24906WAT     H174960   5.290   8.919   1.542
24906WAT     H274961   5.421   8.876   1.631
24907WAT      O74962   6.666   0.942   6.083
24907WAT     H174963   6.656   1.041   6.092
24907WAT     H274964   6.762   0.916   6.100
24908WAT      O74965   5.873   9.229   4.321
24908WAT     H174966   5.855   9.266   4.230
24908WAT     H274967   5.857   9.130   4.321
24909WAT      O74968   9.280   8.675   2.445
24909WAT     H174969   9.262   8.633   2.534
24909WAT     H274970   9.198   8.666   2.387
24910WAT      O74971   4.349   7.893   1.487
24910WAT     H174972   4.406   7.936   1.556
24910WAT     H274973   4.300   7.963   1.436
24911WAT      O74974   0.068   2.640   8.328
24911WAT     H174975   0.134   2.715   8.325
24911WAT     H274976   0.111   2.560   8.370
24912WAT      O74977   5.637   6.382   6.856
24912WAT     H174978   5.698   6.457   6.829
24912WAT     H274979   5.577   6.359   6.779
24913WAT      O74980   7.524   2.264   4.214
24913WAT     H174981   7.456   2.242   4.144
24913WAT     H274982   7.524   2.192   4.284
24914WAT      O74983   1.637   8.818   8.097
24914WAT     H174984   1.552   8.784   8.058
24914WAT     H274985   1.654   8.912   8.067
24915WAT      O74986   0.604   8.379   8.110
24915WAT     H174987   0.642   8.324   8.184
24915WAT     H274988   0.657   8.464   8.102
24916WAT      O74989   9.158   4.953   3.710
24916WAT     H174990   9.243   4.957   3.657
24916WAT     H274991   9.081   4.967   3.649
24917WAT      O74992   4.746   0.496   0.137
24917WAT     H174993   4.838   0.457   0.139
24917WAT     H274994   4.748   0.589   0.172
24918WAT      O74995   0.733   0.356   5.317
24918WAT     H174996   0.641   0.362   5.278
24918WAT     H274997   0.800   0.385   5.249
24919WAT      O74998   4.904   2.522   9.317
24919WAT     H174999   4.808   2.532   9.343
24919WAT     H275000   4.946   2.612   9.306
24920WAT      O75001   6.340   7.980   6.963
24920WAT     H175002   6.289   7.964   7.047
24920WAT     H275003   6.284   8.032   6.899
24921WAT      O75004   8.695   3.595   8.614
24921WAT     H175005   8.769   3.648   8.657
24921WAT     H275006   8.731   3.547   8.534
24922WAT      O75007   8.622   6.358   2.373
24922WAT     H175008   8.651   6.448   2.405
24922WAT     H275009   8.523   6.351   2.377
24923WAT      O75010   2.032   6.248   2.743
24923WAT     H175011   2.127   6.260   2.716
24923WAT     H275012   2.001   6.157   2.715
24924WAT      O75013   3.313   7.443   5.529
24924WAT     H175014   3.360   7.495   5.458
24924WAT     H275015   3.278   7.358   5.491
24925WAT      O75016   3.785   9.524   6.607
24925WAT     H175017   3.725   9.535   6.528
24925WAT     H275018   3.787   9.428   6.635
24926WAT      O75019   4.820   5.593   2.356
24926WAT     H175020   4.818   5.512   2.415
24926WAT     H275021   4.734   5.643   2.366
24927WAT      O75022   8.100   4.429   6.747
24927WAT     H175023   8.034   4.497   6.714
24927WAT     H275024   8.191   4.452   6.714
24928WAT      O75025   0.852   1.649   6.128
24928WAT     H175026   0.860   1.559   6.171
24928WAT     H275027   0.840   1.718   6.199
24929WAT      O75028   3.648   6.513   7.933
24929WAT     H175029   3.743   6.508   7.963
24929WAT     H275030   3.614   6.421   7.911
24930WAT      O75031   7.801   9.136   1.655
24930WAT     H175032   7.793   9.050   1.605
24930WAT     H275033   7.736   9.203   1.619
24931WAT      O75034   7.762   4.887   8.283
24931WAT     H175035   7.809   4.967   8.244
24931WAT     H275036   7.673   4.915   8.320
24932WAT      O75037   5.048   1.870   2.330
24932WAT     H175038   5.000   1.951   2.297
24932WAT     H275039   5.014   1.845   2.421
24933WAT      O75040   3.683   2.264   7.172
24933WAT     H175041   3.661   2.304   7.084
24933WAT     H275042   3.632   2.178   7.184
24934WAT      O75043   6.140   1.261   3.984
24934WAT     H175044   6.135   1.170   4.026
24934WAT     H275045   6.146   1.330   4.056
24935WAT      O75046   0.284   5.779   1.911
24935WAT     H175047   0.333   5.804   1.827
24935WAT     H275048   0.351   5.759   1.983
24936WAT      O75049   0.790   6.896   1.092
24936WAT     H175050   0.750   6.937   1.174
24936WAT     H275051   0.718   6.853   1.037
24937WAT      O75052   2.380   8.553   3.031
24937WAT     H175053   2.363   8.579   3.126
24937WAT     H275054   2.417   8.460   3.029
24938WAT      O75055   6.464   3.329   9.389
24938WAT     H175056   6.427   3.412   9.348
24938WAT     H275057   6.498   3.349   9.481
24939WAT      O75058   0.225   2.849   8.595
24939WAT     H175059   0.295   2.794   8.550
24939WAT     H275060   0.256   2.944   8.600
24940WAT      O75061   3.306   6.778   7.612
24940WAT     H175062   3.293   6.864   7.661
24940WAT     H275063   3.386   6.731   7.649
24941WAT      O75064   1.358   4.482   0.513
24941WAT     H175065   1.274   4.443   0.475
24941WAT     H275066   1.418   4.511   0.439
24942WAT      O75067   4.743   9.240   8.995
24942WAT     H175068   4.668   9.304   9.012
24942WAT     H275069   4.810   9.247   9.069
24943WAT      O75070   7.320   2.712   8.412
24943WAT     H175071   7.342   2.615   8.410
24943WAT     H275072   7.301   2.740   8.506
24944WAT      O75073   9.782   4.730   6.687
24944WAT     H175074   9.692   4.773   6.692
24944WAT     H275075   9.775   4.634   6.716
24945WAT      O75076   0.498   5.869   3.048
24945WAT     H175077   0.500   5.783   3.099
24945WAT     H275078   0.404   5.890   3.021
24946WAT      O75079   4.554   3.975   9.095
24946WAT     H175080   4.538   4.058   9.148
24946WAT     H275081   4.467   3.942   9.057
24947WAT      O75082   3.079   6.847   1.657
24947WAT     H175083   3.113   6.930   1.613
24947WAT     H275084   3.132   6.829   1.740
24948WAT      O75085   5.328   0.348   1.766
24948WAT     H175086   5.384   0.282   1.716
24948WAT     H275087   5.374   0.437   1.767
24949WAT      O75088   9.524   3.538   0.337
24949WAT     H175089   9.561   3.600   0.405
24949WAT     H275090   9.504   3.589   0.253
24950WAT      O75091   8.503   0.959   3.281
24950WAT     H175092   8.414   0.914   3.285
24950WAT     H275093   8.522   1.004   3.368
24951WAT      O75094   4.659   2.442   8.979
24951WAT     H175095   4.694   2.467   8.889
24951WAT     H275096   4.639   2.526   9.031
24952WAT      O75097   1.551   8.028   9.312
24952WAT     H175098   1.578   7.989   9.225
24952WAT     H275099   1.632   8.059   9.362
24953WAT      O75100   3.568   0.613   9.507
24953WAT     H175101   3.600   0.537   9.563
24953WAT     H275102   3.523   0.681   9.565
24954WAT      O75103   6.762   9.224   1.505
24954WAT     H175104   6.813   9.145   1.537
24954WAT     H275105   6.815   9.307   1.521
24955WAT      O75106   9.372   9.124   1.171
24955WAT     H175107   9.417   9.192   1.113
24955WAT     H275108   9.390   9.146   1.267
24956WAT      O75109   0.971   1.283   9.104
24956WAT     H175110   0.926   1.322   9.023
24956WAT     H275111   0.955   1.184   9.106
24957WAT      O75112   8.341   2.930   8.145
24957WAT     H175113   8.246   2.912   8.175
24957WAT     H275114   8.399   2.854   8.174
24958WAT      O75115   0.997   5.240   0.355
24958WAT     H175116   1.035   5.304   0.422
24958WAT     H275117   0.967   5.290   0.274
24959WAT      O75118   1.659   6.233   7.456
24959WAT     H175119   1.693   6.326   7.443
24959WAT     H275120   1.559   6.234   7.461
24960WAT      O75121   6.151   2.095   9.816
24960WAT     H175122   6.211   2.022   9.782
24960WAT     H275123   6.112   2.068   9.903
24961WAT      O75124   8.325   9.378   2.976
24961WAT     H175125   8.255   9.336   2.918
24961WAT     H275126   8.296   9.470   3.003
24962WAT      O75127   3.605   1.372   7.999
24962WAT     H175128   3.524   1.427   7.978
24962WAT     H275129   3.687   1.419   7.965
24963WAT      O75130   0.146   0.466   6.758
24963WAT     H175131   0.178   0.560   6.744
24963WAT     H275132   0.210   0.402   6.715
24964WAT      O75133   1.621   5.842   2.606
24964WAT     H175134   1.664   5.758   2.574
24964WAT     H275135   1.596   5.899   2.528
24965WAT      O75136   0.894   5.848   7.231
24965WAT     H175137   0.841   5.785   7.287
24965WAT     H275138   0.991   5.826   7.238
24966WAT      O75139   8.573   1.405   9.086
24966WAT     H175140   8.628   1.442   9.011
24966WAT     H275141   8.633   1.371   9.158
24967WAT      O75142   8.998   7.076   4.734
24967WAT     H175143   9.055   7.112   4.661
24967WAT     H275144   9.015   6.978   4.745
24968WAT      O75145   7.386   0.286   6.049
24968WAT     H175146   7.399   0.287   6.148
24968WAT     H275147   7.453   0.225   6.007
24969WAT      O75148   0.221   8.222   2.232
24969WAT     H175149   0.291   8.272   2.282
24969WAT     H275150   0.212   8.261   2.140
24970WAT      O75151   2.002   6.360   1.546
24970WAT     H175152   1.940   6.286   1.568
24970WAT     H275153   2.090   6.345   1.592
24971WAT      O75154   7.395   8.764   9.395
24971WAT     H175155   7.416   8.799   9.303
24971WAT     H275156   7.298   8.738   9.398
24972WAT      O75157   1.231   3.823   5.923
24972WAT     H175158   1.322   3.789   5.898
24972WAT     H275159   1.217   3.814   6.021
24973WAT      O75160   8.848   6.579   4.878
24973WAT     H175161   8.764   6.578   4.932
24973WAT     H275162   8.887   6.670   4.878
24974WAT      O75163   4.039   6.856   7.667
24974WAT     H175164   4.038   6.779   7.730
24974WAT     H275165   4.113   6.919   7.692
24975WAT      O75166   3.794   2.545   0.097
24975WAT     H175167   3.781   2.618   0.165
24975WAT     H275168   3.811   2.458   0.144
24976WAT      O75169   2.738   4.641   5.205
24976WAT     H175170   2.681   4.657   5.285
24976WAT     H275171   2.757   4.727   5.159
24977WAT      O75172   4.950   9.372   8.275
24977WAT     H175173   4.974   9.466   8.300
24977WAT     H275174   4.865   9.346   8.320
24978WAT      O75175   3.737   1.862   0.954
24978WAT     H175176   3.692   1.933   1.008
24978WAT     H275177   3.762   1.899   0.864
24979WAT      O75178   5.082   4.740   8.007
24979WAT     H175179   5.174   4.726   7.969
24979WAT     H275180   5.083   4.720   8.104
24980WAT      O75181   3.484   6.521   3.089
24980WAT     H175182   3.468   6.612   3.129
24980WAT     H275183   3.472   6.451   3.159
24981WAT      O75184   5.685   7.200   6.681
24981WAT     H175185   5.644   7.290   6.697
24981WAT     H275186   5.696   7.185   6.583
24982WAT      O75187   8.826   8.714   0.043
24982WAT     H175188   8.853   8.733   0.137
24982WAT     H275189   8.783   8.624   0.037
24983WAT      O75190   8.166   1.209   8.307
24983WAT     H175191   8.166   1.111   8.289
24983WAT     H275192   8.170   1.259   8.220
24984WAT      O75193   6.076   3.464   7.468
24984WAT     H175194   6.162   3.508   7.442
24984WAT     H275195   6.044   3.502   7.555
24985WAT      O75196   9.362   4.807   5.289
24985WAT     H175197   9.379   4.903   5.269
24985WAT     H275198   9.442   4.766   5.332
24986WAT      O75199   9.774   5.287   6.214
24986WAT     H175200   9.839   5.354   6.179
24986WAT     H275201   9.795   5.266   6.310
24987WAT      O75202   9.585   9.158   6.166
24987WAT     H175203   9.593   9.165   6.266
24987WAT     H275204   9.609   9.246   6.125
24988WAT      O75205   0.584   3.298   9.723
24988WAT     H175206   0.557   3.236   9.797
24988WAT     H275207   0.658   3.358   9.755
24989WAT      O75208   1.983   8.604   0.260
24989WAT     H175209   1.958   8.540   0.188
24989WAT     H275210   2.010   8.691   0.219
24990WAT      O75211   1.205   4.402   9.182
24990WAT     H175212   1.183   4.311   9.215
24990WAT     H275213   1.121   4.456   9.175
24991WAT      O75214   9.546   7.334   4.978
24991WAT     H175215   9.529   7.280   5.061
24991WAT     H275216   9.621   7.398   4.994
24992WAT      O75217   9.079   1.889   9.285
24992WAT     H175218   9.062   1.838   9.201
24992WAT     H275219   9.112   1.980   9.263
24993WAT      O75220   6.116   7.274   5.245
24993WAT     H175221   6.119   7.316   5.336
24993WAT     H275222   6.174   7.325   5.182
24994WAT      O75223   6.145   7.457   2.481
24994WAT     H175224   6.100   7.519   2.545
24994WAT     H275225   6.242   7.450   2.504
24995WAT      O75226   6.461   5.693   2.162
24995WAT     H175227   6.542   5.742   2.196
24995WAT     H275228   6.479   5.595   2.161
24996WAT      O75229   1.854   7.906   5.867
24996WAT     H175230   1.894   7.946   5.785
24996WAT     H275231   1.754   7.910   5.861
24997WAT      O75232   7.689   8.358   7.748
24997WAT     H175233   7.617   8.288   7.746
24997WAT     H275234   7.752   8.339   7.822
24998WAT      O75235   4.848   0.388   3.494
24998WAT     H175236   4.936   0.423   3.462
24998WAT     H275237   4.777   0.456   3.476
24999WAT      O75238   7.846   5.253   6.361
24999WAT     H175239   7.917   5.229   6.428
24999WAT     H275240   7.848   5.351   6.343
25000WAT      O75241   5.828   6.459   5.704
25000WAT     H175242   5.881   6.399   5.764
25000WAT     H275243   5.825   6.421   5.612
25001WAT      O75244   2.336   3.999   4.954
25001WAT     H175245   2.273   4.047   4.892
25001WAT     H275246   2.426   4.042   4.951
25002WAT      O75247   0.125   1.943   6.175
25002WAT     H175248   0.084   1.854   6.193
25002WAT     H275249   0.136   1.956   6.076
25003WAT      O75250   7.859   1.459   5.092
25003WAT     H175251   7.876   1.372   5.046
25003WAT     H275252   7.885   1.452   5.189
25004WAT      O75253   1.618   3.034   5.620
25004WAT     H175254   1.664   2.947   5.602
25004WAT     H275255   1.568   3.063   5.538
25005WAT      O75256   7.529   1.583   2.143
25005WAT     H175257   7.548   1.658   2.080
25005WAT     H275258   7.548   1.612   2.237
25006WAT      O75259   4.300   5.484   1.324
25006WAT     H175260   4.372   5.415   1.321
25006WAT     H275261   4.336   5.567   1.366
25007WAT      O75262   8.708   4.003   7.852
25007WAT     H175263   8.660   3.943   7.788
25007WAT     H275264   8.641   4.048   7.913
25008WAT      O75265   6.799   1.100   3.815
25008WAT     H175266   6.857   1.161   3.760
25008WAT     H275267   6.721   1.070   3.761
25009WAT      O75268   6.259   4.715   1.033
25009WAT     H175269   6.355   4.693   1.018
25009WAT     H275270   6.247   4.814   1.033
25010WAT      O75271   5.957   3.469   8.377
25010WAT     H175272   5.958   3.413   8.460
25010WAT     H275273   5.875   3.448   8.324
25011WAT      O75274   5.967   3.404   2.922
25011WAT     H175275   6.013   3.490   2.945
25011WAT     H275276   5.878   3.401   2.966
25012WAT      O75277   4.669   8.896   9.434
25012WAT     H175278   4.752   8.843   9.414
25012WAT     H275279   4.695   8.984   9.474
25013WAT      O75280   6.188   4.256   8.300
25013WAT     H175281   6.219   4.206   8.219
25013WAT     H275282   6.124   4.327   8.272
25014WAT      O75283   9.703   3.101   6.156
25014WAT     H175284   9.648   3.019   6.141
25014WAT     H275285   9.699   3.159   6.074
25015WAT      O75286   2.200   9.088   5.314
25015WAT     H175287   2.220   9.147   5.393
25015WAT     H275288   2.110   9.113   5.277
25016WAT      O75289   1.048   7.111   2.852
25016WAT     H175290   0.979   7.058   2.901
25016WAT     H275291   1.124   7.051   2.825
25017WAT      O75292   6.367   9.411   5.279
25017WAT     H175293   6.426   9.332   5.292
25017WAT     H275294   6.274   9.380   5.259
25018WAT      O75295   4.792   6.211   4.642
25018WAT     H175296   4.801   6.112   4.638
25018WAT     H275297   4.750   6.237   4.729
25019WAT      O75298   4.676   4.711   2.363
25019WAT     H175299   4.741   4.718   2.286
25019WAT     H275300   4.603   4.777   2.351
25020WAT      O75301   6.021   5.644   0.776
25020WAT     H175302   6.034   5.549   0.805
25020WAT     H275303   5.931   5.676   0.805
25021WAT      O75304   8.066   4.284   5.492
25021WAT     H175305   8.163   4.307   5.489
25021WAT     H275306   8.040   4.235   5.409
25022WAT      O75307   4.020   6.352   2.815
25022WAT     H175308   4.118   6.363   2.805
25022WAT     H275309   3.998   6.337   2.912
25023WAT      O75310   1.965   5.697   1.853
25023WAT     H175311   2.053   5.744   1.843
25023WAT     H275312   1.980   5.599   1.863
25024WAT      O75313   1.240   3.220   6.864
25024WAT     H175314   1.150   3.264   6.874
25024WAT     H275315   1.312   3.284   6.890
25025WAT      O75316   6.254   3.788   7.489
25025WAT     H175317   6.168   3.798   7.539
25025WAT     H275318   6.256   3.854   7.414
25026WAT      O75319   5.330   5.774   2.149
25026WAT     H175320   5.355   5.859   2.102
25026WAT     H275321   5.357   5.696   2.092
25027WAT      O75322   9.222   7.165   0.787
25027WAT     H175323   9.135   7.172   0.739
25027WAT     H275324   9.206   7.167   0.886
25028WAT      O75325   0.819   3.437   2.672
25028WAT     H175326   0.832   3.490   2.588
25028WAT     H275327   0.898   3.449   2.732
25029WAT      O75328   6.614   2.087   8.257
25029WAT     H175329   6.641   2.019   8.189
25029WAT     H275330   6.683   2.159   8.262
25030WAT      O75331   6.690   3.289   4.974
25030WAT     H175332   6.653   3.279   4.881
25030WAT     H275333   6.738   3.377   4.981
25031WAT      O75334   7.870   4.425   1.223
25031WAT     H175335   7.848   4.472   1.309
25031WAT     H275336   7.789   4.378   1.189
25032WAT      O75337   0.166   0.443   5.648
25032WAT     H175338   0.187   0.365   5.707
25032WAT     H275339   0.248   0.470   5.598
25033WAT      O75340   9.147   7.479   1.703
25033WAT     H175341   9.182   7.552   1.643
25033WAT     H275342   9.212   7.404   1.705
25034WAT      O75343   0.609   0.083   2.209
25034WAT     H175344   0.545   0.054   2.138
25034WAT     H275345   0.564   0.074   2.298
25035WAT      O75346   9.105   3.927   7.487
25035WAT     H175347   9.168   3.904   7.413
25035WAT     H275348   9.156   3.940   7.572
25036WAT      O75349   0.533   8.288   5.129
25036WAT     H175350   0.607   8.224   5.149
25036WAT     H275351   0.527   8.302   5.030
25037WAT      O75352   6.936   4.551   8.352
25037WAT     H175353   6.862   4.613   8.327
25037WAT     H275354   6.978   4.582   8.438
25038WAT      O75355   3.743   7.393   2.082
25038WAT     H175356   3.777   7.334   2.156
25038WAT     H275357   3.758   7.489   2.106
25039WAT      O75358   5.306   2.393   5.170
25039WAT     H175359   5.271   2.483   5.198
25039WAT     H275360   5.364   2.403   5.090
25040WAT      O75361   6.189   1.302   4.705
25040WAT     H175362   6.251   1.319   4.628
25040WAT     H275363   6.228   1.342   4.788
25041WAT      O75364   0.809   7.459   7.620
25041WAT     H175365   0.812   7.548   7.575
25041WAT     H275366   0.834   7.388   7.554
25042WAT      O75367   1.805   1.059   6.809
25042WAT     H175368   1.746   1.136   6.834
25042WAT     H275369   1.758   0.973   6.830
25043WAT      O75370   2.881   5.645   9.786
25043WAT     H175371   2.816   5.708   9.828
25043WAT     H275372   2.863   5.552   9.817
25044WAT      O75373   5.557   3.999   5.654
25044WAT     H175374   5.488   4.003   5.582
25044WAT     H275375   5.545   4.076   5.717
25045WAT      O75376   8.141   9.823   0.738
25045WAT     H175377   8.152   9.824   0.837
25045WAT     H275378   8.045   9.836   0.714
25046WAT      O75379   0.435   1.237   4.772
25046WAT     H175380   0.366   1.231   4.700
25046WAT     H275381   0.454   1.145   4.807
25047WAT      O75382   4.158   7.848   9.259
25047WAT     H175383   4.068   7.806   9.265
25047WAT     H275384   4.198   7.827   9.170
25048WAT      O75385   4.881   2.240   9.867
25048WAT     H175386   4.969   2.193   9.858
25048WAT     H275387   4.815   2.178   9.908
25049WAT      O75388   1.384   2.877   8.189
25049WAT     H175389   1.388   2.888   8.089
25049WAT     H275390   1.461   2.925   8.231
25050WAT      O75391   2.844   1.863   4.727
25050WAT     H175392   2.763   1.805   4.741
25050WAT     H275393   2.819   1.958   4.746
25051WAT      O75394   3.912   4.104   9.491
25051WAT     H175395   3.976   4.060   9.554
25051WAT     H275396   3.837   4.042   9.470
25052WAT      O75397   9.098   1.028   4.590
25052WAT     H175398   9.017   0.970   4.597
25052WAT     H275399   9.124   1.061   4.680
25053WAT      O75400   9.426   0.792   6.868
25053WAT     H175401   9.446   0.731   6.791
25053WAT     H275402   9.355   0.857   6.842
25054WAT      O75403   4.938   2.827   1.419
25054WAT     H175404   4.930   2.731   1.394
25054WAT     H275405   5.008   2.837   1.490
25055WAT      O75406   3.546   5.827   3.927
25055WAT     H175407   3.568   5.795   3.835
25055WAT     H275408   3.448   5.846   3.932
25056WAT      O75409   3.797   1.946   3.069
25056WAT     H175410   3.843   1.912   3.151
25056WAT     H275411   3.699   1.951   3.086
25057WAT      O75412   1.195   9.629   6.348
25057WAT     H175413   1.212   9.593   6.256
25057WAT     H275414   1.222   9.561   6.416
25058WAT      O75415   0.621   0.820   2.150
25058WAT     H175416   0.539   0.829   2.206
25058WAT     H275417   0.658   0.728   2.159
25059WAT      O75418   8.485   2.310   3.523
25059WAT     H175419   8.564   2.328   3.583
25059WAT     H275420   8.440   2.226   3.553
25060WAT      O75421   9.382   5.272   9.607
25060WAT     H175422   9.419   5.352   9.654
25060WAT     H275423   9.456   5.214   9.576
25061WAT      O75424   3.551   0.477   4.705
25061WAT     H175425   3.619   0.418   4.661
25061WAT     H275426   3.598   0.547   4.758
25062WAT      O75427   5.061   0.547   1.943
25062WAT     H175428   5.060   0.467   1.883
25062WAT     H275429   5.037   0.519   2.036
25063WAT      O75430   5.366   3.892   1.820
25063WAT     H175431   5.380   3.991   1.814
25063WAT     H275432   5.321   3.870   1.906
25064WAT      O75433   6.573   9.557   7.830
25064WAT     H175434   6.578   9.461   7.804
25064WAT     H275435   6.517   9.567   7.912
25065WAT      O75436   1.579   8.510   0.347
25065WAT     H175437   1.634   8.576   0.398
25065WAT     H275438   1.534   8.448   0.412
25066WAT      O75439   5.619   7.049   6.889
25066WAT     H175440   5.607   7.116   6.962
25066WAT     H275441   5.622   7.097   6.801
25067WAT      O75442   0.430   3.546   0.344
25067WAT     H175443   0.357   3.607   0.313
25067WAT     H275444   0.414   3.521   0.439
25068WAT      O75445   3.929   6.407   8.679
25068WAT     H175446   4.029   6.407   8.686
25068WAT     H275447   3.902   6.372   8.589
25069WAT      O75448   3.598   8.152   0.013
25069WAT     H175449   3.606   8.251   0.020
25069WAT     H275450   3.690   8.111   0.010
25070WAT      O75451   4.389   4.013   5.991
25070WAT     H175452   4.400   3.918   6.020
25070WAT     H275453   4.409   4.073   6.068
25071WAT      O75454   1.437   0.100   1.105
25071WAT     H175455   1.477   0.171   1.047
25071WAT     H275456   1.339   0.095   1.088
25072WAT      O75457   9.564   9.235   1.956
25072WAT     H175458   9.604   9.152   1.916
25072WAT     H275459   9.482   9.210   2.007
25073WAT      O75460   9.298   4.904   2.697
25073WAT     H175461   9.245   4.890   2.781
25073WAT     H275462   9.263   4.845   2.625
25074WAT      O75463   1.841   5.221   4.353
25074WAT     H175464   1.934   5.244   4.384
25074WAT     H275465   1.789   5.306   4.341
25075WAT      O75466   2.009   4.694   1.669
25075WAT     H175467   2.071   4.652   1.735
25075WAT     H275468   2.032   4.663   1.577
25076WAT      O75469   1.141   7.167   3.746
25076WAT     H175470   1.235   7.183   3.714
25076WAT     H275471   1.111   7.244   3.801
25077WAT      O75472   3.315   9.662   7.162
25077WAT     H175473   3.338   9.619   7.074
25077WAT     H275474   3.216   9.664   7.174
25078WAT      O75475   3.682   5.761   5.067
25078WAT     H175476   3.659   5.707   4.987
25078WAT     H275477   3.598   5.802   5.105
25079WAT      O75478   4.820   2.508   2.250
25079WAT     H175479   4.848   2.424   2.204
25079WAT     H275480   4.729   2.497   2.289
25080WAT      O75481   6.841   0.080   4.209
25080WAT     H175482   6.887   0.013   4.151
25080WAT     H275483   6.906   0.150   4.238
25081WAT      O75484   0.682   5.926   6.244
25081WAT     H175485   0.625   5.898   6.322
25081WAT     H275486   0.622   5.961   6.171
25082WAT      O75487   1.785   0.911   1.474
25082WAT     H175488   1.872   0.946   1.440
25082WAT     H275489   1.748   0.974   1.543
25083WAT      O75490   0.726   9.093   1.071
25083WAT     H175491   0.650   9.147   1.110
25083WAT     H275492   0.766   9.036   1.142
25084WAT      O75493   1.733   5.262   0.842
25084WAT     H175494   1.826   5.292   0.864
25084WAT     H275495   1.737   5.174   0.794
25085WAT      O75496   6.382   3.527   0.056
25085WAT     H175497   6.395   3.445   0.001
25085WAT     H275498   6.426   3.515   0.145
25086WAT      O75499   7.288   6.991   0.906
25086WAT     H175500   7.323   6.936   0.830
25086WAT     H275501   7.259   7.080   0.871
25087WAT      O75502   0.057   1.088   5.010
25087WAT     H175503  -0.039   1.063   4.994
25087WAT     H275504   0.076   1.178   4.970
25088WAT      O75505   4.962   2.121   4.758
25088WAT     H175506   5.010   2.036   4.735
25088WAT     H275507   4.918   2.111   4.848
25089WAT      O75508   4.320   2.351   9.010
25089WAT     H175509   4.356   2.301   9.089
25089WAT     H275510   4.238   2.402   9.038
25090WAT      O75511   9.826   6.904   2.168
25090WAT     H175512   9.840   7.001   2.145
25090WAT     H275513   9.749   6.896   2.231
25091WAT      O75514   8.903   1.181   2.686
25091WAT     H175515   8.863   1.267   2.718
25091WAT     H275516   8.992   1.167   2.730
25092WAT      O75517   5.394   2.347   7.996
25092WAT     H175518   5.400   2.446   7.982
25092WAT     H275519   5.470   2.302   7.949
25093WAT      O75520   7.985   9.318   5.739
25093WAT     H175521   8.003   9.220   5.727
25093WAT     H275522   8.019   9.368   5.660
25094WAT      O75523   2.484   0.374   7.902
25094WAT     H175524   2.510   0.391   7.807
25094WAT     H275525   2.561   0.334   7.951
25095WAT      O75526   6.026   0.227   0.319
25095WAT     H175527   6.100   0.202   0.256
25095WAT     H275528   6.018   0.327   0.323
25096WAT      O75529   8.960   6.597   8.618
25096WAT     H175530   8.961   6.502   8.651
25096WAT     H275531   8.913   6.601   8.530
25097WAT      O75532   8.399   1.100   6.871
25097WAT     H175533   8.433   1.139   6.785
25097WAT     H275534   8.358   1.172   6.926
25098WAT      O75535   5.319   4.060   7.114
25098WAT     H175536   5.229   4.102   7.122
25098WAT     H275537   5.369   4.072   7.200
25099WAT      O75538   0.405   8.394   6.649
25099WAT     H175539   0.487   8.343   6.626
25099WAT     H275540   0.330   8.331   6.668
25100WAT      O75541   2.170   5.095   1.849
25100WAT     H175542   2.083   5.088   1.800
25100WAT     H275543   2.238   5.136   1.789
25101WAT      O75544   8.760   9.602   4.646
25101WAT     H175545   8.856   9.611   4.672
25101WAT     H275546   8.740   9.507   4.624
25102WAT      O75547   5.402   9.667   0.224
25102WAT     H175548   5.394   9.708   0.314
25102WAT     H275549   5.419   9.569   0.233
25103WAT      O75550   5.238   3.126   8.274
25103WAT     H175551   5.221   3.224   8.280
25103WAT     H275552   5.157   3.076   8.305
25104WAT      O75553   9.022   7.106   6.804
25104WAT     H175554   9.079   7.042   6.856
25104WAT     H275555   9.016   7.193   6.853
25105WAT      O75556   5.932   4.463   6.404
25105WAT     H175557   6.013   4.521   6.399
25105WAT     H275558   5.934   4.396   6.329
25106WAT      O75559   9.135   3.820   5.709
25106WAT     H175560   9.157   3.751   5.778
25106WAT     H275561   9.154   3.911   5.745
25107WAT      O75562   1.594   6.897   2.314
25107WAT     H175563   1.504   6.937   2.297
25107WAT     H275564   1.597   6.858   2.406
25108WAT      O75565   6.898   9.492   4.446
25108WAT     H175566   6.873   9.437   4.367
25108WAT     H275567   6.854   9.581   4.441
25109WAT      O75568   4.884   3.757   1.888
25109WAT     H175569   4.929   3.809   1.815
25109WAT     H275570   4.895   3.660   1.871
25110WAT      O75571   6.035   5.416   6.899
25110WAT     H175572   6.074   5.389   6.810
25110WAT     H275573   5.976   5.342   6.933
25111WAT      O75574   4.328   3.722   7.314
25111WAT     H175575   4.287   3.806   7.350
25111WAT     H275576   4.386   3.743   7.236
25112WAT      O75577   2.300   7.589   7.608
25112WAT     H175578   2.306   7.663   7.675
25112WAT     H275579   2.272   7.627   7.520
25113WAT      O75580   3.972   3.564   8.307
25113WAT     H175581   3.950   3.508   8.387
25113WAT     H275582   3.917   3.534   8.229
25114WAT      O75583   9.598   8.570   2.960
25114WAT     H175584   9.524   8.636   2.947
25114WAT     H275585   9.670   8.612   3.016
25115WAT      O75586   5.445   7.462   7.834
25115WAT     H175587   5.376   7.390   7.846
25115WAT     H275588   5.493   7.477   7.920
25116WAT      O75589   3.261   2.788   4.937
25116WAT     H175590   3.329   2.722   4.968
25116WAT     H275591   3.292   2.881   4.958
25117WAT      O75592   4.724   4.048   0.691
25117WAT     H175593   4.692   4.132   0.735
25117WAT     H275594   4.688   4.043   0.598
25118WAT      O75595   9.258   1.322   7.264
25118WAT     H175596   9.319   1.261   7.214
25118WAT     H275597   9.182   1.269   7.303
25119WAT      O75598   3.908   6.894   0.162
25119WAT     H175599   3.932   6.975   0.216
25119WAT     H275600   3.939   6.812   0.209
25120WAT      O75601   8.542   3.464   6.846
25120WAT     H175602   8.449   3.451   6.882
25120WAT     H275603   8.539   3.464   6.747
25121WAT      O75604   6.260   1.959   2.617
25121WAT     H175605   6.352   1.954   2.657
25121WAT     H275606   6.264   2.007   2.530
25122WAT      O75607   5.486   4.962   2.062
25122WAT     H175608   5.558   4.968   1.993
25122WAT     H275609   5.519   4.912   2.142
25123WAT      O75610   1.517   3.136   3.055
25123WAT     H175611   1.487   3.221   3.011
25123WAT     H275612   1.444   3.068   3.050
25124WAT      O75613   1.102   0.683   4.555
25124WAT     H175614   1.110   0.697   4.654
25124WAT     H275615   1.176   0.624   4.523
25125WAT      O75616   7.401   5.913   8.845
25125WAT     H175617   7.470   5.840   8.845
25125WAT     H275618   7.320   5.882   8.896
25126WAT      O75619   0.922   8.734   9.537
25126WAT     H175620   0.918   8.752   9.439
25126WAT     H275621   0.985   8.659   9.555
25127WAT      O75622   3.726   9.237   8.873
25127WAT     H175623   3.687   9.183   8.798
25127WAT     H275624   3.720   9.334   8.851
25128WAT      O75625   1.978   1.570   8.397
25128WAT     H175626   1.991   1.557   8.495
25128WAT     H275627   1.887   1.540   8.370
25129WAT      O75628   8.008   0.982   6.723
25129WAT     H175629   8.106   0.961   6.723
25129WAT     H275630   7.965   0.940   6.643
25130WAT      O75631   7.311   2.620   7.250
25130WAT     H175632   7.304   2.526   7.214
25130WAT     H275633   7.226   2.669   7.232
25131WAT      O75634   8.968   3.515   9.816
25131WAT     H175635   9.056   3.515   9.767
25131WAT     H275636   8.963   3.596   9.875
25132WAT      O75637   8.052   5.450   2.440
25132WAT     H175638   8.152   5.455   2.439
25132WAT     H275639   8.015   5.528   2.389
25133WAT      O75640   1.369   0.527   5.002
25133WAT     H175641   1.362   0.528   5.102
25133WAT     H275642   1.455   0.569   4.975
25134WAT      O75643   8.147   6.106   0.926
25134WAT     H175644   8.154   6.175   0.854
25134WAT     H275645   8.069   6.046   0.908
25135WAT      O75646   0.784   2.979   6.185
25135WAT     H175647   0.829   2.991   6.274
25135WAT     H275648   0.830   3.037   6.117
25136WAT      O75649   9.407   0.297   5.431
25136WAT     H175650   9.352   0.240   5.370
25136WAT     H275651   9.497   0.313   5.390
25137WAT      O75652   1.580   6.564   0.352
25137WAT     H175653   1.509   6.628   0.381
25137WAT     H275654   1.541   6.472   0.344
25138WAT      O75655   0.265   0.938   0.825
25138WAT     H175656   0.252   0.843   0.856
25138WAT     H275657   0.362   0.958   0.819
25139WAT      O75658   2.781   5.622   4.711
25139WAT     H175659   2.821   5.711   4.735
25139WAT     H275660   2.836   5.549   4.751
25140WAT      O75661   4.247   3.544   4.534
25140WAT     H175662   4.204   3.467   4.487
25140WAT     H275663   4.185   3.578   4.605
25141WAT      O75664   0.833   4.458   6.311
25141WAT     H175665   0.829   4.373   6.259
25141WAT     H275666   0.878   4.529   6.256
25142WAT      O75667   5.219   5.269   3.794
25142WAT     H175668   5.191   5.174   3.809
25142WAT     H275669   5.306   5.285   3.840
25143WAT      O75670   3.860   3.386   9.247
25143WAT     H175671   3.785   3.436   9.290
25143WAT     H275672   3.826   3.333   9.170
25144WAT      O75673   8.142   4.402   0.093
25144WAT     H175674   8.221   4.407   0.031
25144WAT     H275675   8.133   4.488   0.143
25145WAT      O75676   6.139   4.350   1.658
25145WAT     H175677   6.042   4.331   1.672
25145WAT     H275678   6.187   4.344   1.746
25146WAT      O75679   7.499   1.674   2.390
25146WAT     H175680   7.429   1.742   2.411
25146WAT     H275681   7.489   1.596   2.452
25147WAT      O75682   3.129   3.245   1.728
25147WAT     H175683   3.155   3.277   1.637
25147WAT     H275684   3.036   3.276   1.749
25148WAT      O75685   6.877   8.206   2.622
25148WAT     H175686   6.972   8.235   2.635
25148WAT     H275687   6.837   8.257   2.546
25149WAT      O75688   3.541   6.958   4.355
25149WAT     H175689   3.617   6.993   4.410
25149WAT     H275690   3.492   7.034   4.314
25150WAT      O75691   7.828   3.650   7.107
25150WAT     H175692   7.814   3.564   7.057
25150WAT     H275693   7.914   3.691   7.077
25151WAT      O75694   2.073   5.434   9.879
25151WAT     H175695   2.134   5.493   9.827
25151WAT     H275696   2.125   5.356   9.915
25152WAT      O75697   6.024   2.778   4.434
25152WAT     H175698   5.961   2.773   4.356
25152WAT     H275699   6.069   2.689   4.445
25153WAT      O75700   5.375   6.912   1.037
25153WAT     H175701   5.458   6.903   0.981
25153WAT     H275702   5.326   6.994   1.010
25154WAT      O75703   0.925   6.219   8.268
25154WAT     H175704   0.902   6.313   8.244
25154WAT     H275705   0.853   6.181   8.326
25155WAT      O75706   3.638   5.866   3.139
25155WAT     H175707   3.685   5.942   3.184
25155WAT     H275708   3.635   5.883   3.040
25156WAT      O75709   3.868   7.603   0.020
25156WAT     H175710   3.918   7.604  -0.067
25156WAT     H275711   3.770   7.615   0.002
25157WAT      O75712   5.386   2.928   5.734
25157WAT     H175713   5.369   2.864   5.809
25157WAT     H275714   5.402   3.019   5.771
25158WAT      O75715   5.941   6.008   1.998
25158WAT     H175716   5.907   6.029   2.090
25158WAT     H275717   5.949   6.093   1.946
25159WAT      O75718   1.266   8.944   4.100
25159WAT     H175719   1.346   8.902   4.144
25159WAT     H275720   1.183   8.900   4.133
25160WAT      O75721   7.188   1.267   8.054
25160WAT     H175722   7.209   1.194   7.990
25160WAT     H275723   7.138   1.340   8.007
25161WAT      O75724   2.501   6.763   8.990
25161WAT     H175725   2.589   6.812   8.985
25161WAT     H275726   2.468   6.764   9.085
25162WAT      O75727   7.751   8.852   9.507
25162WAT     H175728   7.716   8.780   9.568
25162WAT     H275729   7.778   8.811   9.420
25163WAT      O75730   5.866   7.803   9.313
25163WAT     H175731   5.795   7.844   9.257
25163WAT     H275732   5.841   7.809   9.410
25164WAT      O75733   1.397   4.023   6.740
25164WAT     H175734   1.450   4.108   6.749
25164WAT     H275735   1.426   3.974   6.658
25165WAT      O75736   6.588   0.800   3.309
25165WAT     H175737   6.583   0.701   3.293
25165WAT     H275738   6.509   0.845   3.267
25166WAT      O75739   3.784   7.307   3.965
25166WAT     H175740   3.806   7.242   4.037
25166WAT     H275741   3.697   7.281   3.923
25167WAT      O75742   7.098   0.750   0.719
25167WAT     H175743   7.115   0.655   0.747
25167WAT     H275744   7.004   0.775   0.744
25168WAT      O75745   9.435   0.228   0.134
25168WAT     H175746   9.514   0.282   0.106
25168WAT     H275747   9.431   0.144   0.079
25169WAT      O75748   6.398   6.402   5.396
25169WAT     H175749   6.483   6.407   5.448
25169WAT     H275750   6.388   6.485   5.341
25170WAT      O75751   9.300   0.632   8.343
25170WAT     H175752   9.270   0.675   8.428
25170WAT     H275753   9.399   0.634   8.337
25171WAT      O75754   1.752   4.267   3.812
25171WAT     H175755   1.809   4.332   3.762
25171WAT     H275756   1.775   4.269   3.909
25172WAT      O75757   8.467   5.664   6.460
25172WAT     H175758   8.413   5.748   6.463
25172WAT     H275759   8.428   5.597   6.523
25173WAT      O75760   9.134   7.826   9.443
25173WAT     H175761   9.145   7.892   9.368
25173WAT     H275762   9.222   7.816   9.490
25174WAT      O75763   4.750   2.568   3.095
25174WAT     H175764   4.732   2.649   3.150
25174WAT     H275765   4.800   2.501   3.149
25175WAT      O75766   8.028   7.089   6.499
25175WAT     H175767   8.099   7.152   6.531
25175WAT     H275768   8.054   7.054   6.409
25176WAT      O75769   6.978   8.981   0.366
25176WAT     H175770   6.929   9.066   0.347
25176WAT     H275771   6.913   8.905   0.372
25177WAT      O75772   0.512   9.005   8.573
25177WAT     H175773   0.566   8.978   8.494
25177WAT     H275774   0.427   9.049   8.542
25178WAT      O75775   6.990   5.632   1.565
25178WAT     H175776   7.005   5.533   1.571
25178WAT     H275777   6.969   5.657   1.471
25179WAT      O75778   8.732   2.893   9.588
25179WAT     H175779   8.825   2.870   9.561
25179WAT     H275780   8.667   2.840   9.532
25180WAT      O75781   8.710   8.784   8.625
25180WAT     H175782   8.632   8.723   8.635
25180WAT     H275783   8.711   8.823   8.533
25181WAT      O75784   4.344   9.283   1.793
25181WAT     H175785   4.248   9.309   1.804
25181WAT     H275786   4.372   9.297   1.698
25182WAT      O75787   1.290   8.142   9.734
25182WAT     H175788   1.388   8.137   9.712
25182WAT     H275789   1.257   8.235   9.718
25183WAT      O75790   6.282   4.278   2.301
25183WAT     H175791   6.348   4.305   2.371
25183WAT     H275792   6.317   4.200   2.250
25184WAT      O75793   8.186   1.247   8.774
25184WAT     H175794   8.146   1.291   8.694
25184WAT     H275795   8.239   1.313   8.826
25185WAT      O75796   0.190   4.874   3.810
25185WAT     H175797   0.234   4.812   3.875
25185WAT     H275798   0.253   4.948   3.788
25186WAT      O75799   0.908   3.351   0.534
25186WAT     H175800   0.886   3.279   0.600
25186WAT     H275801   0.823   3.395   0.504
25187WAT      O75802   3.443   7.524   3.661
25187WAT     H175803   3.425   7.565   3.571
25187WAT     H275804   3.464   7.427   3.649
25188WAT      O75805   5.390   9.153   6.637
25188WAT     H175806   5.364   9.201   6.553
25188WAT     H275807   5.402   9.220   6.711
25189WAT      O75808   4.003   7.238   1.506
25189WAT     H175809   3.915   7.251   1.554
25189WAT     H275810   4.063   7.182   1.563
25190WAT      O75811   1.246   8.013   0.300
25190WAT     H175812   1.158   7.968   0.309
25190WAT     H275813   1.299   7.969   0.228
25191WAT      O75814   9.852   5.341   4.481
25191WAT     H175815   9.925   5.393   4.526
25191WAT     H275816   9.825   5.265   4.540
25192WAT      O75817   8.426   5.710   1.458
25192WAT     H175818   8.412   5.794   1.406
25192WAT     H275819   8.385   5.633   1.410
25193WAT      O75820   4.134   3.782   1.377
25193WAT     H175821   4.123   3.880   1.360
25193WAT     H275822   4.095   3.760   1.467
25194WAT      O75823   2.952   6.379   0.677
25194WAT     H175824   2.875   6.396   0.739
25194WAT     H275825   3.027   6.440   0.700
25195WAT      O75826   5.145   6.239   2.143
25195WAT     H175827   5.222   6.219   2.204
25195WAT     H275828   5.102   6.325   2.171
25196WAT      O75829   1.939   0.288   3.890
25196WAT     H175830   2.032   0.311   3.862
25196WAT     H275831   1.927   0.311   3.987
25197WAT      O75832   2.161   6.240   9.218
25197WAT     H175833   2.190   6.158   9.169
25197WAT     H275834   2.123   6.306   9.154
25198WAT      O75835   3.316   8.685   1.005
25198WAT     H175836   3.381   8.680   1.080
25198WAT     H275837   3.288   8.592   0.979
25199WAT      O75838   6.467   2.261   3.871
25199WAT     H175839   6.504   2.328   3.935
25199WAT     H275840   6.509   2.273   3.781
25200WAT      O75841   4.568   1.849   5.982
25200WAT     H175842   4.637   1.917   6.010
25200WAT     H275843   4.611   1.759   5.977
25201WAT      O75844   4.604   3.074   5.877
25201WAT     H175845   4.523   3.028   5.840
25201WAT     H275846   4.575   3.153   5.931
25202WAT      O75847   6.777   3.220   5.941
25202WAT     H175848   6.865   3.201   5.896
25202WAT     H275849   6.740   3.134   5.977
25203WAT      O75850   8.203   0.478   6.891
25203WAT     H175851   8.158   0.389   6.882
25203WAT     H275852   8.228   0.494   6.987
25204WAT      O75853   0.807   8.917   0.688
25204WAT     H175854   0.878   8.948   0.625
25204WAT     H275855   0.774   8.995   0.742
25205WAT      O75856   4.885   8.183   3.627
25205WAT     H175857   4.911   8.218   3.537
25205WAT     H275858   4.808   8.120   3.618
25206WAT      O75859   3.412   1.681   5.087
25206WAT     H175860   3.353   1.700   5.165
25206WAT     H275861   3.496   1.636   5.119
25207WAT      O75862   9.306   3.789   7.017
25207WAT     H175863   9.279   3.712   6.960
25207WAT     H275864   9.223   3.834   7.052
25208WAT      O75865   6.757   8.006   3.772
25208WAT     H175866   6.716   7.917   3.793
25208WAT     H275867   6.832   8.023   3.837
25209WAT      O75868   6.594   3.109   0.327
25209WAT     H175869   6.523   3.108   0.255
25209WAT     H275870   6.553   3.136   0.414
25210WAT      O75871   2.161   1.689   3.530
25210WAT     H175872   2.095   1.715   3.459
25210WAT     H275873   2.228   1.761   3.541
25211WAT      O75874   8.885   3.159   3.388
25211WAT     H175875   8.837   3.072   3.376
25211WAT     H275876   8.820   3.234   3.378
25212WAT      O75877   2.590   2.516   4.166
25212WAT     H175878   2.658   2.575   4.122
25212WAT     H275879   2.609   2.511   4.264
25213WAT      O75880   0.091   8.519   6.440
25213WAT     H175881   0.069   8.614   6.415
25213WAT     H275882   0.180   8.494   6.401
25214WAT      O75883   1.094   1.792   1.887
25214WAT     H175884   1.065   1.797   1.983
25214WAT     H275885   1.170   1.856   1.872
25215WAT      O75886   2.749   6.667   4.874
25215WAT     H175887   2.689   6.705   4.804
25215WAT     H275888   2.786   6.741   4.930
25216WAT      O75889   0.008   5.515   9.513
25216WAT     H175890   0.086   5.482   9.459
25216WAT     H275891  -0.026   5.600   9.473
25217WAT      O75892   4.106   4.910   2.701
25217WAT     H175893   4.017   4.953   2.712
25217WAT     H275894   4.143   4.883   2.790
25218WAT      O75895   9.851   2.610   7.337
25218WAT     H175896   9.883   2.552   7.412
25218WAT     H275897   9.793   2.682   7.372
25219WAT      O75898   2.313   9.230   3.295
25219WAT     H175899   2.366   9.185   3.223
25219WAT     H275900   2.328   9.183   3.382
25220WAT      O75901   0.217   7.495   9.129
25220WAT     H175902   0.148   7.489   9.057
25220WAT     H275903   0.297   7.441   9.103
25221WAT      O75904   1.590   2.476   0.095
25221WAT     H175905   1.675   2.523   0.073
25221WAT     H275906   1.569   2.409   0.023
25222WAT      O75907   2.291   6.353   6.656
25222WAT     H175908   2.380   6.373   6.695
25222WAT     H275909   2.299   6.278   6.590
25223WAT      O75910   0.506   2.240   0.836
25223WAT     H175911   0.487   2.144   0.853
25223WAT     H275912   0.423   2.285   0.802
25224WAT      O75913   8.861   0.371   5.447
25224WAT     H175914   8.778   0.420   5.419
25224WAT     H275915   8.847   0.273   5.436
25225WAT      O75916   5.579   4.430   6.989
25225WAT     H175917   5.536   4.503   7.042
25225WAT     H275918   5.634   4.470   6.916
25226WAT      O75919   5.342   1.441   3.868
25226WAT     H175920   5.389   1.363   3.826
25226WAT     H275921   5.405   1.519   3.873
25227WAT      O75922   1.426   3.830   6.916
25227WAT     H175923   1.410   3.907   6.854
25227WAT     H275924   1.523   3.823   6.936
25228WAT      O75925   0.232   5.143   9.541
25228WAT     H175926   0.270   5.151   9.633
25228WAT     H275927   0.217   5.046   9.520
25229WAT      O75928   8.162   4.158   4.688
25229WAT     H175929   8.183   4.189   4.781
25229WAT     H275930   8.097   4.221   4.645
25230WAT      O75931   8.060   3.909   4.787
25230WAT     H175932   8.000   3.927   4.865
25230WAT     H275933   8.106   3.993   4.760
25231WAT      O75934   6.962   3.612   2.437
25231WAT     H175935   7.007   3.523   2.438
25231WAT     H275936   7.031   3.684   2.445
25232WAT      O75937   1.295   0.720   5.789
25232WAT     H175938   1.200   0.702   5.764
25232WAT     H275939   1.298   0.757   5.882
25233WAT      O75940   8.360   3.015   3.714
25233WAT     H175941   8.265   3.036   3.740
25233WAT     H275942   8.379   2.920   3.735
25234WAT      O75943   2.870   5.367   0.008
25234WAT     H175944   2.839   5.426   0.083
25234WAT     H275945   2.942   5.306   0.043
25235WAT      O75946   9.113   7.591   4.001
25235WAT     H175947   9.208   7.573   4.027
25235WAT     H275948   9.104   7.686   3.971
25236WAT      O75949   2.282   8.752   2.099
25236WAT     H175950   2.249   8.693   2.172
25236WAT     H275951   2.295   8.699   2.016
25237WAT      O75952   6.381   7.690   3.912
25237WAT     H175953   6.443   7.755   3.955
25237WAT     H275954   6.294   7.735   3.891
25238WAT      O75955   4.735   6.478   3.652
25238WAT     H175956   4.735   6.430   3.565
25238WAT     H275957   4.809   6.442   3.710
25239WAT      O75958   3.133   3.130   7.420
25239WAT     H175959   3.109   3.179   7.336
25239WAT     H275960   3.079   3.166   7.496
25240WAT      O75961   9.457   3.628   3.714
25240WAT     H175962   9.369   3.590   3.742
25240WAT     H275963   9.508   3.659   3.794
25241WAT      O75964   3.785   3.490   3.770
25241WAT     H175965   3.802   3.429   3.693
25241WAT     H275966   3.811   3.583   3.745
25242WAT      O75967   4.400   8.722   2.094
25242WAT     H175968   4.379   8.818   2.078
25242WAT     H275969   4.496   8.711   2.118
25243WAT      O75970   9.550   1.467   4.028
25243WAT     H175971   9.526   1.498   3.935
25243WAT     H275972   9.526   1.539   4.094
25244WAT      O75973   7.077   7.761   5.070
25244WAT     H175974   7.173   7.769   5.044
25244WAT     H275975   7.044   7.850   5.101
25245WAT      O75976   7.282   5.011   4.878
25245WAT     H175977   7.336   5.072   4.820
25245WAT     H275978   7.215   4.962   4.822
25246WAT      O75979   2.643   6.371   6.119
25246WAT     H175980   2.654   6.403   6.213
25246WAT     H275981   2.621   6.448   6.060
25247WAT      O75982   8.443   1.665   2.540
25247WAT     H175983   8.370   1.728   2.515
25247WAT     H275984   8.435   1.581   2.486
25248WAT      O75985   5.075   9.629   6.583
25248WAT     H175986   5.170   9.600   6.572
25248WAT     H275987   5.043   9.603   6.674
25249WAT      O75988   1.487   5.260   8.145
25249WAT     H175989   1.445   5.324   8.080
25249WAT     H275990   1.418   5.226   8.208
25250WAT      O75991   6.786   7.345   5.469
25250WAT     H175992   6.844   7.265   5.485
25250WAT     H275993   6.728   7.360   5.549
25251WAT      O75994   9.732   7.024   7.705
25251WAT     H175995   9.768   6.953   7.646
25251WAT     H275996   9.738   7.113   7.659
25252WAT      O75997   3.789   9.249   6.365
25252WAT     H175998   3.851   9.327   6.377
25252WAT     H275999   3.713   9.257   6.429
25253WAT      O76000   4.751   9.393   0.663
25253WAT     H176001   4.832   9.400   0.721
25253WAT     H276002   4.749   9.471   0.600
25254WAT      O76003   3.939   3.049   6.411
25254WAT     H176004   3.991   3.108   6.472
25254WAT     H276005   3.870   3.103   6.363
25255WAT      O76006   0.905   6.021   4.915
25255WAT     H176007   0.933   5.939   4.965
25255WAT     H276008   0.823   6.060   4.958
25256WAT      O76009   6.633   5.761   3.975
25256WAT     H176010   6.660   5.814   4.056
25256WAT     H276011   6.619   5.823   3.898
25257WAT      O76012   6.794   0.919   3.145
25257WAT     H176013   6.819   1.008   3.107
25257WAT     H276014   6.715   0.929   3.205
25258WAT      O76015   0.759   8.773   4.448
25258WAT     H176016   0.855   8.757   4.423
25258WAT     H276017   0.750   8.862   4.493
25259WAT      O76018   1.428   4.882   2.783
25259WAT     H176019   1.446   4.786   2.805
25259WAT     H276020   1.374   4.923   2.857
25260WAT      O76021   5.149   6.418   1.719
25260WAT     H176022   5.122   6.351   1.788
25260WAT     H276023   5.239   6.455   1.742
25261WAT      O76024   7.539   9.415   4.521
25261WAT     H176025   7.628   9.449   4.490
25261WAT     H276026   7.521   9.326   4.479
25262WAT      O76027   2.753   4.420   5.052
25262WAT     H176028   2.672   4.366   5.073
25262WAT     H276029   2.756   4.501   5.110
25263WAT      O76030   8.656   7.846   5.303
25263WAT     H176031   8.618   7.775   5.361
25263WAT     H276032   8.666   7.812   5.210
25264WAT      O76033   0.854   3.207   7.059
25264WAT     H176034   0.890   3.145   6.989
25264WAT     H276035   0.767   3.172   7.093
25265WAT      O76036   0.314   9.528   4.644
25265WAT     H176037   0.266   9.495   4.726
25265WAT     H276038   0.341   9.623   4.658
25266WAT      O76039   6.416   0.893   9.314
25266WAT     H176040   6.362   0.967   9.273
25266WAT     H276041   6.421   0.816   9.250
25267WAT      O76042   6.655   0.969   0.983
25267WAT     H176043   6.636   0.990   0.887
25267WAT     H276044   6.750   0.991   1.004
25268WAT      O76045   8.750   6.635   9.768
25268WAT     H176046   8.816   6.562   9.787
25268WAT     H276047   8.774   6.716   9.821
25269WAT      O76048   5.347   4.490   9.225
25269WAT     H176049   5.425   4.547   9.198
25269WAT     H276050   5.303   4.530   9.305
25270WAT      O76051   8.788   7.169   0.192
25270WAT     H176052   8.766   7.260   0.226
25270WAT     H276053   8.850   7.124   0.257
25271WAT      O76054   1.257   7.124   8.274
25271WAT     H176055   1.321   7.086   8.341
25271WAT     H276056   1.277   7.086   8.184
25272WAT      O76057   7.296   2.812   9.222
25272WAT     H176058   7.198   2.832   9.215
25272WAT     H276059   7.347   2.898   9.216
25273WAT      O76060   8.189   3.311   4.263
25273WAT     H176061   8.242   3.377   4.209
25273WAT     H276062   8.239   3.225   4.270
25274WAT      O76063   9.874   3.105   5.312
25274WAT     H176064   9.800   3.039   5.298
25274WAT     H276065   9.943   3.093   5.240
25275WAT      O76066   2.012   3.946   2.462
25275WAT     H176067   2.024   3.848   2.449
25275WAT     H276068   2.021   3.969   2.559
25276WAT      O76069   1.746   3.227   6.576
25276WAT     H176070   1.692   3.254   6.656
25276WAT     H276071   1.769   3.308   6.523
25277WAT      O76072   6.658   3.965   3.393
25277WAT     H176073   6.570   3.935   3.428
25277WAT     H276074   6.728   3.958   3.464
25278WAT      O76075   2.226   2.565   6.155
25278WAT     H176076   2.272   2.477   6.142
25278WAT     H276077   2.292   2.632   6.188
25279WAT      O76078   2.257   4.218   8.099
25279WAT     H176079   2.286   4.188   8.008
25279WAT     H276080   2.189   4.154   8.135
25280WAT      O76081   0.934   1.805   7.771
25280WAT     H176082   0.885   1.876   7.719
25280WAT     H276083   0.873   1.764   7.838
25281WAT      O76084   6.979   3.088   3.609
25281WAT     H176085   6.930   3.144   3.675
25281WAT     H276086   6.927   3.084   3.523
25282WAT      O76087   9.542   5.057   3.746
25282WAT     H176088   9.478   5.015   3.682
25282WAT     H276089   9.630   5.073   3.700
25283WAT      O76090   4.879   8.159   8.003
25283WAT     H176091   4.808   8.174   8.072
25283WAT     H276092   4.851   8.202   7.917
25284WAT      O76093   2.577   5.405   7.837
25284WAT     H176094   2.589   5.340   7.762
25284WAT     H276095   2.481   5.408   7.864
25285WAT      O76096   0.156   2.412   5.901
25285WAT     H176097   0.200   2.381   5.985
25285WAT     H276098   0.192   2.500   5.874
25286WAT      O76099   7.475   2.918   4.008
25286WAT     H176100   7.496   2.848   3.940
25286WAT     H276101   7.486   2.879   4.100
25287WAT      O76102   6.093   1.439   9.847
25287WAT     H176103   6.121   1.395   9.762
25287WAT     H276104   5.996   1.419   9.865
25288WAT      O76105   8.600   0.353   3.926
25288WAT     H176106   8.501   0.345   3.915
25288WAT     H276107   8.628   0.447   3.910
25289WAT      O76108   3.797   0.644   0.145
25289WAT     H176109   3.773   0.628   0.240
25289WAT     H276110   3.770   0.736   0.118
25290WAT      O76111   5.174   5.722   8.530
25290WAT     H176112   5.134   5.722   8.439
25290WAT     H276113   5.172   5.629   8.568
25291WAT      O76114   1.120   8.507   4.881
25291WAT     H176115   1.165   8.539   4.798
25291WAT     H276116   1.180   8.521   4.959
25292WAT      O76117   2.504   3.196   4.222
25292WAT     H176118   2.437   3.187   4.295
25292WAT     H276119   2.498   3.287   4.181
25293WAT      O76120   4.263   9.774   4.257
25293WAT     H176121   4.293   9.785   4.162
25293WAT     H276122   4.266   9.862   4.304
25294WAT      O76123   6.407   6.282   3.225
25294WAT     H176124   6.409   6.368   3.277
25294WAT     H276125   6.460   6.213   3.274
25295WAT      O76126   3.430   0.456   7.071
25295WAT     H176127   3.470   0.474   6.981
25295WAT     H276128   3.395   0.541   7.110
25296WAT      O76129   1.817   2.554   5.084
25296WAT     H176130   1.806   2.617   5.161
25296WAT     H276131   1.896   2.583   5.029
25297WAT      O76132   5.511   7.232   8.029
25297WAT     H176133   5.557   7.321   8.029
25297WAT     H276134   5.446   7.228   7.953
25298WAT      O76135   4.716   5.240   8.845
25298WAT     H176136   4.743   5.144   8.835
25298WAT     H276137   4.715   5.284   8.756
25299WAT      O76138   5.878   7.620   5.754
25299WAT     H176139   5.899   7.694   5.817
25299WAT     H276140   5.880   7.533   5.802
25300WAT      O76141   2.456   8.461   0.014
25300WAT     H176142   2.365   8.446  -0.026
25300WAT     H276143   2.525   8.434  -0.053
25301WAT      O76144   9.096   8.708   9.571
25301WAT     H176145   9.095   8.637   9.641
25301WAT     H276146   9.009   8.759   9.574
25302WAT      O76147   7.506   7.677   6.096
25302WAT     H176148   7.510   7.635   6.187
25302WAT     H276149   7.480   7.773   6.106
25303WAT      O76150   6.757   5.423   9.586
25303WAT     H176151   6.829   5.488   9.609
25303WAT     H276152   6.789   5.330   9.601
25304WAT      O76153   1.386   1.939   8.574
25304WAT     H176154   1.368   1.996   8.654
25304WAT     H276155   1.477   1.900   8.580
25305WAT      O76156   6.280   1.635   4.326
25305WAT     H176157   6.241   1.592   4.407
25305WAT     H276158   6.373   1.666   4.346
25306WAT      O76159   5.638   2.856   5.932
25306WAT     H176160   5.548   2.844   5.975
25306WAT     H276161   5.687   2.929   5.980
25307WAT      O76162   0.502   1.880   2.362
25307WAT     H176163   0.466   1.787   2.370
25307WAT     H276164   0.496   1.910   2.266
25308WAT      O76165   5.856   8.156   8.129
25308WAT     H176166   5.864   8.088   8.202
25308WAT     H276167   5.901   8.121   8.047
25309WAT      O76168   7.752   0.458   0.787
25309WAT     H176169   7.781   0.537   0.840
25309WAT     H276170   7.776   0.470   0.691
25310WAT      O76171   9.181   2.950   7.850
25310WAT     H176172   9.216   2.945   7.944
25310WAT     H276173   9.142   3.041   7.834
25311WAT      O76174   0.184   2.708   2.703
25311WAT     H176175   0.245   2.675   2.632
25311WAT     H276176   0.202   2.659   2.788
25312WAT      O76177   6.888   9.646   5.115
25312WAT     H176178   6.943   9.702   5.053
25312WAT     H276179   6.804   9.618   5.069
25313WAT      O76180   8.525   9.308   7.047
25313WAT     H176181   8.503   9.397   7.007
25313WAT     H276182   8.600   9.320   7.113
25314WAT      O76183   6.862   2.804   7.975
25314WAT     H176184   6.936   2.863   7.942
25314WAT     H276185   6.830   2.745   7.901
25315WAT      O76186   7.081   3.373   7.536
25315WAT     H176187   7.125   3.306   7.476
25315WAT     H276188   6.982   3.369   7.523
25316WAT      O76189   2.401   2.999   8.762
25316WAT     H176190   2.497   2.973   8.776
25316WAT     H276191   2.342   2.924   8.792
25317WAT      O76192   3.552   7.005   5.270
25317WAT     H176193   3.593   7.011   5.361
25317WAT     H276194   3.453   7.000   5.278
25318WAT      O76195   8.163   6.967   8.298
25318WAT     H176196   8.128   7.048   8.346
25318WAT     H276197   8.241   6.930   8.348
25319WAT      O76198   6.825   4.899   7.623
25319WAT     H176199   6.827   4.917   7.721
25319WAT     H276200   6.825   4.800   7.607
25320WAT      O76201   5.860   2.853   6.358
25320WAT     H176202   5.849   2.821   6.453
25320WAT     H276203   5.872   2.774   6.298
25321WAT      O76204   8.841   7.461   3.673
25321WAT     H176205   8.934   7.426   3.683
25321WAT     H276206   8.776   7.391   3.702
25322WAT      O76207   8.103   2.179   2.963
25322WAT     H176208   8.135   2.112   2.896
25322WAT     H276209   8.075   2.262   2.915
25323WAT      O76210   5.039   3.598   7.680
25323WAT     H176211   5.006   3.685   7.644
25323WAT     H276212   4.970   3.527   7.665
25324WAT      O76213   8.504   3.443   8.298
25324WAT     H176214   8.447   3.369   8.262
25324WAT     H276215   8.451   3.499   8.361
25325WAT      O76216   2.243   4.995   0.738
25325WAT     H176217   2.249   4.906   0.693
25325WAT     H276218   2.184   4.987   0.819
25326WAT      O76219   2.889   7.562   9.736
25326WAT     H176220   2.913   7.474   9.697
25326WAT     H276221   2.793   7.562   9.764
25327WAT      O76222   5.299   0.730   0.197
25327WAT     H176223   5.327   0.667   0.270
25327WAT     H276224   5.369   0.731   0.125
25328WAT      O76225   0.909   9.498   4.153
25328WAT     H176226   1.000   9.521   4.187
25328WAT     H276227   0.880   9.566   4.086
25329WAT      O76228   7.256   7.044   4.705
25329WAT     H176229   7.211   6.962   4.670
25329WAT     H276230   7.351   7.024   4.727
25330WAT      O76231   0.397   5.082   0.830
25330WAT     H176232   0.439   5.123   0.911
25330WAT     H276233   0.468   5.057   0.765
25331WAT      O76234   4.259   6.677   6.301
25331WAT     H176235   4.163   6.652   6.294
25331WAT     H276236   4.268   6.761   6.355
25332WAT      O76237   2.720   6.033   1.288
25332WAT     H176238   2.792   6.089   1.247
25332WAT     H276239   2.740   5.937   1.273
25333WAT      O76240   7.466   3.566   5.923
25333WAT     H176241   7.543   3.565   5.986
25333WAT     H276242   7.494   3.610   5.837
25334WAT      O76243   7.784   8.853   2.140
25334WAT     H176244   7.866   8.910   2.149
25334WAT     H276245   7.728   8.861   2.222
25335WAT      O76246   4.855   8.565   9.110
25335WAT     H176247   4.786   8.629   9.145
25335WAT     H276248   4.912   8.611   9.042
25336WAT      O76249   3.447   2.070   9.395
25336WAT     H176250   3.509   2.077   9.317
25336WAT     H276251   3.499   2.086   9.480
25337WAT      O76252   4.857   0.151   6.621
25337WAT     H176253   4.797   0.119   6.695
25337WAT     H276254   4.936   0.091   6.614
25338WAT      O76255   5.151   0.842   5.582
25338WAT     H176256   5.054   0.840   5.556
25338WAT     H276257   5.207   0.850   5.499
25339WAT      O76258   1.652   0.427   2.287
25339WAT     H176259   1.643   0.328   2.287
25339WAT     H276260   1.578   0.467   2.341
25340WAT      O76261   2.146   4.560   7.992
25340WAT     H176262   2.240   4.574   8.021
25340WAT     H276263   2.099   4.649   7.988
25341WAT      O76264   8.263   6.248   8.684
25341WAT     H176265   8.201   6.178   8.719
25341WAT     H276266   8.220   6.338   8.693
25342WAT      O76267   4.901   5.016   6.718
25342WAT     H176268   4.981   4.971   6.677
25342WAT     H276269   4.932   5.081   6.787
25343WAT      O76270   4.423   0.736   0.305
25343WAT     H176271   4.431   0.711   0.209
25343WAT     H276272   4.489   0.808   0.326
25344WAT      O76273   4.491   7.645   0.396
25344WAT     H176274   4.552   7.578   0.437
25344WAT     H276275   4.528   7.675   0.309
25345WAT      O76276   2.865   2.116   1.180
25345WAT     H176277   2.805   2.112   1.100
25345WAT     H276278   2.856   2.205   1.224
25346WAT      O76279   0.606   5.417   2.438
25346WAT     H176280   0.658   5.429   2.523
25346WAT     H276281   0.650   5.347   2.382
25347WAT      O76282   3.539   7.086   1.975
25347WAT     H176283   3.478   7.041   1.909
25347WAT     H276284   3.506   7.178   1.994
25348WAT      O76285   4.811   5.256   1.172
25348WAT     H176286   4.885   5.285   1.111
25348WAT     H276287   4.729   5.311   1.154
25349WAT      O76288   2.496   7.415   9.567
25349WAT     H176289   2.449   7.488   9.517
25349WAT     H276290   2.432   7.341   9.588
25350WAT      O76291   8.907   8.327   2.855
25350WAT     H176292   8.837   8.373   2.800
25350WAT     H276293   8.978   8.292   2.794
25351WAT      O76294   8.332   8.512   8.909
25351WAT     H176295   8.272   8.581   8.949
25351WAT     H276296   8.285   8.465   8.834
25352WAT      O76297   9.191   2.051   8.616
25352WAT     H176298   9.281   2.020   8.582
25352WAT     H276299   9.203   2.128   8.677
25353WAT      O76300   3.669   0.872   7.597
25353WAT     H176301   3.571   0.888   7.587
25353WAT     H276302   3.715   0.894   7.511
25354WAT      O76303   0.301   4.945   6.696
25354WAT     H176304   0.207   4.969   6.673
25354WAT     H276305   0.364   5.009   6.651
25355WAT      O76306   6.751   0.945   7.849
25355WAT     H176307   6.688   1.014   7.885
25355WAT     H276308   6.762   0.872   7.916
25356WAT      O76309   2.161   2.543   5.870
25356WAT     H176310   2.174   2.548   5.969
25356WAT     H276311   2.064   2.556   5.848
25357WAT      O76312   6.213   9.685   6.108
25357WAT     H176313   6.227   9.674   6.009
25357WAT     H276314   6.264   9.614   6.156
25358WAT      O76315   6.664   6.886   7.068
25358WAT     H176316   6.652   6.815   7.138
25358WAT     H276317   6.579   6.938   7.058
25359WAT      O76318   2.415   7.057   1.769
25359WAT     H176319   2.426   7.114   1.687
25359WAT     H276320   2.476   6.978   1.762
25360WAT      O76321   8.239   7.713   5.526
25360WAT     H176322   8.208   7.770   5.602
25360WAT     H276323   8.296   7.767   5.464
25361WAT      O76324   6.956   3.756   0.809
25361WAT     H176325   6.863   3.777   0.837
25361WAT     H276326   6.990   3.827   0.747
25362WAT      O76327   0.537   9.619   8.120
25362WAT     H176328   0.504   9.691   8.181
25362WAT     H276329   0.487   9.534   8.139
25363WAT      O76330   9.744   3.682   8.047
25363WAT     H176331   9.651   3.646   8.036
25363WAT     H276332   9.751   3.770   8.002
25364WAT      O76333   1.154   2.213   2.813
25364WAT     H176334   1.138   2.145   2.885
25364WAT     H276335   1.071   2.267   2.799
25365WAT      O76336   1.927   0.338   8.129
25365WAT     H176337   2.019   0.355   8.163
25365WAT     H276338   1.891   0.255   8.171
25366WAT      O76339   3.070   7.953   2.343
25366WAT     H176340   3.016   8.032   2.314
25366WAT     H276341   3.016   7.899   2.409
25367WAT      O76342   8.240   4.247   2.673
25367WAT     H176343   8.249   4.196   2.588
25367WAT     H276344   8.306   4.322   2.674
25368WAT      O76345   5.475   4.182   8.937
25368WAT     H176346   5.510   4.180   9.030
25368WAT     H276347   5.412   4.260   8.927
25369WAT      O76348   5.135   4.387   4.069
25369WAT     H176349   5.157   4.384   4.166
25369WAT     H276350   5.046   4.432   4.057
25370WAT      O76351   7.015   0.041   0.130
25370WAT     H176352   7.111   0.047   0.159
25370WAT     H276353   6.994   0.116   0.067
25371WAT      O76354   5.564   3.443   8.936
25371WAT     H176355   5.568   3.543   8.945
25371WAT     H276356   5.656   3.405   8.941
25372WAT      O76357   5.812   5.454   3.293
25372WAT     H176358   5.912   5.456   3.291
25372WAT     H276359   5.777   5.530   3.239
25373WAT      O76360   2.850   8.632   1.698
25373WAT     H176361   2.913   8.621   1.621
25373WAT     H276362   2.765   8.674   1.666
25374WAT      O76363   4.922   3.146   6.832
25374WAT     H176364   4.985   3.181   6.902
25374WAT     H276365   4.841   3.109   6.877
25375WAT      O76366   8.454   9.363   4.215
25375WAT     H176367   8.481   9.381   4.310
25375WAT     H276368   8.508   9.287   4.179
25376WAT      O76369   7.487   8.584   0.875
25376WAT     H176370   7.532   8.594   0.786
25376WAT     H276371   7.391   8.612   0.866
25377WAT      O76372   6.017   7.782   5.940
25377WAT     H176373   6.000   7.742   6.030
25377WAT     H276374   6.091   7.732   5.894
25378WAT      O76375   7.760   7.855   6.828
25378WAT     H176376   7.753   7.952   6.804
25378WAT     H276377   7.765   7.846   6.927
25379WAT      O76378   4.093   6.599   9.752
25379WAT     H176379   4.169   6.608   9.687
25379WAT     H276380   4.048   6.688   9.762
25380WAT      O76381   1.161   7.883   2.607
25380WAT     H176382   1.118   7.898   2.695
25380WAT     H276383   1.205   7.793   2.606
25381WAT      O76384   0.720   4.464   0.227
25381WAT     H176385   0.691   4.386   0.283
25381WAT     H276386   0.819   4.477   0.235
25382WAT      O76387   1.452   1.622   0.297
25382WAT     H176388   1.381   1.677   0.340
25382WAT     H276389   1.437   1.525   0.318
25383WAT      O76390   3.210   8.764   1.351
25383WAT     H176391   3.136   8.744   1.287
25383WAT     H276392   3.236   8.861   1.344
25384WAT      O76393   7.779   3.465   5.479
25384WAT     H176394   7.783   3.411   5.395
25384WAT     H276395   7.697   3.439   5.531
25385WAT      O76396   4.878   9.020   2.451
25385WAT     H176397   4.861   9.119   2.442
25385WAT     H276398   4.942   9.004   2.526
25386WAT      O76399   0.025   1.313   5.993
25386WAT     H176400   0.041   1.351   6.084
25386WAT     H276401   0.092   1.242   5.973
25387WAT      O76402   8.278   2.271   7.746
25387WAT     H176403   8.276   2.194   7.682
25387WAT     H276404   8.369   2.277   7.786
25388WAT      O76405   8.084   1.686   6.174
25388WAT     H176406   7.994   1.672   6.132
25388WAT     H276407   8.096   1.783   6.196
25389WAT      O76408   6.681   3.211   0.830
25389WAT     H176409   6.751   3.263   0.780
25389WAT     H276410   6.594   3.260   0.824
25390WAT      O76411   5.917   8.517   1.147
25390WAT     H176412   5.892   8.533   1.052
25390WAT     H276413   5.910   8.603   1.199
25391WAT      O76414   0.377   5.106   8.583
25391WAT     H176415   0.356   5.008   8.573
25391WAT     H276416   0.429   5.120   8.667
25392WAT      O76417   2.801   3.336   2.766
25392WAT     H176418   2.722   3.281   2.739
25392WAT     H276419   2.780   3.386   2.849
25393WAT      O76420   6.193   6.416   5.608
25393WAT     H176421   6.258   6.406   5.533
25393WAT     H276422   6.196   6.510   5.643
25394WAT      O76423   1.674   7.296   3.980
25394WAT     H176424   1.773   7.310   3.976
25394WAT     H276425   1.628   7.360   3.918
25395WAT      O76426   0.929   2.994   6.842
25395WAT     H176427   1.021   2.988   6.881
25395WAT     H276428   0.892   2.903   6.828
25396WAT      O76429   1.716   9.414   5.845
25396WAT     H176430   1.762   9.499   5.823
25396WAT     H276431   1.785   9.341   5.856
25397WAT      O76432   0.739   7.894   5.837
25397WAT     H176433   0.643   7.924   5.843
25397WAT     H276434   0.788   7.953   5.772
25398WAT      O76435   3.646   3.428   3.509
25398WAT     H176436   3.583   3.422   3.431
25398WAT     H276437   3.621   3.507   3.565
25399WAT      O76438   0.659   5.397   6.814
25399WAT     H176439   0.731   5.459   6.846
25399WAT     H276440   0.578   5.450   6.791
25400WAT      O76441   1.577   9.680   0.063
25400WAT     H176442   1.484   9.671   0.028
25400WAT     H276443   1.633   9.605   0.030
25401WAT      O76444   1.968   9.163   7.980
25401WAT     H176445   1.979   9.246   8.036
25401WAT     H276446   2.058   9.122   7.964
25402WAT      O76447   0.169   7.482   4.723
25402WAT     H176448   0.201   7.389   4.703
25402WAT     H276449   0.178   7.499   4.822
25403WAT      O76450   1.083   6.859   6.786
25403WAT     H176451   1.173   6.837   6.749
25403WAT     H276452   1.019   6.787   6.761
25404WAT      O76453   5.773   1.189   7.740
25404WAT     H176454   5.806   1.110   7.688
25404WAT     H276455   5.845   1.257   7.747
25405WAT      O76456   7.630   2.246   0.620
25405WAT     H176457   7.601   2.152   0.603
25405WAT     H276458   7.707   2.268   0.561
25406WAT      O76459   1.138   1.425   6.836
25406WAT     H176460   1.178   1.490   6.900
25406WAT     H276461   1.128   1.468   6.746
25407WAT      O76462   7.709   6.175   0.506
25407WAT     H176463   7.801   6.183   0.544
25407WAT     H276464   7.715   6.146   0.410
25408WAT      O76465   2.995   5.892   8.766
25408WAT     H176466   3.069   5.941   8.721
25408WAT     H276467   2.982   5.927   8.859
25409WAT      O76468   8.152   1.551   6.726
25409WAT     H176469   8.128   1.454   6.734
25409WAT     H276470   8.140   1.581   6.632
25410WAT      O76471   1.711   5.282   8.324
25410WAT     H176472   1.768   5.343   8.268
25410WAT     H276473   1.628   5.260   8.274
25411WAT      O76474   3.372   0.078   8.266
25411WAT     H176475   3.455   0.058   8.214
25411WAT     H276476   3.309   0.131   8.209
25412WAT      O76477   1.927   6.502   5.058
25412WAT     H176478   1.835   6.536   5.077
25412WAT     H276479   1.927   6.402   5.063
25413WAT      O76480   0.491   9.039   4.901
25413WAT     H176481   0.450   9.038   4.993
25413WAT     H276482   0.552   9.118   4.894
25414WAT      O76483   5.571   1.436   8.230
25414WAT     H176484   5.615   1.370   8.292
25414WAT     H276485   5.587   1.409   8.135
25415WAT      O76486   2.421   3.723   1.996
25415WAT     H176487   2.429   3.778   2.079
25415WAT     H276488   2.325   3.707   1.976
25416WAT      O76489   2.335   6.989   8.974
25416WAT     H176490   2.375   7.049   8.905
25416WAT     H276491   2.394   6.909   8.988
25417WAT      O76492   4.660   4.392   8.223
25417WAT     H176493   4.742   4.432   8.182
25417WAT     H276494   4.654   4.417   8.319
25418WAT      O76495   4.201   6.803   1.105
25418WAT     H176496   4.237   6.771   1.193
25418WAT     H276497   4.253   6.884   1.076
25419WAT      O76498   7.577   3.169   4.683
25419WAT     H176499   7.619   3.201   4.769
25419WAT     H276500   7.478   3.160   4.697
25420WAT      O76501   8.984   6.454   5.803
25420WAT     H176502   8.941   6.404   5.877
25420WAT     H276503   9.065   6.503   5.838
25421WAT      O76504   1.542   7.998   1.274
25421WAT     H176505   1.507   8.091   1.283
25421WAT     H276506   1.473   7.940   1.231
25422WAT      O76507   1.946   7.760   8.495
25422WAT     H176508   1.896   7.839   8.530
25422WAT     H276509   2.040   7.763   8.528
25423WAT      O76510   9.809   5.768   9.421
25423WAT     H176511   9.832   5.820   9.338
25423WAT     H276512   9.804   5.830   9.499
25424WAT      O76513   4.190   3.939   6.838
25424WAT     H176514   4.093   3.945   6.814
25424WAT     H276515   4.204   3.862   6.900
25425WAT      O76516   9.751   9.831   8.513
25425WAT     H176517   9.849   9.822   8.529
25425WAT     H276518   9.703   9.830   8.601
25426WAT      O76519   7.233   7.573   6.344
25426WAT     H176520   7.188   7.538   6.426
25426WAT     H276521   7.187   7.539   6.263
25427WAT      O76522   2.736   6.157   6.840
25427WAT     H176523   2.737   6.057   6.831
25427WAT     H276524   2.830   6.191   6.843
25428WAT      O76525   8.053   5.505   0.862
25428WAT     H176526   8.095   5.415   0.853
25428WAT     H276527   8.109   5.562   0.922
25429WAT      O76528   6.444   1.119   7.518
25429WAT     H176529   6.426   1.123   7.420
25429WAT     H276530   6.360   1.138   7.569
25430WAT      O76531   1.212   2.846   5.804
25430WAT     H176532   1.184   2.824   5.710
25430WAT     H276533   1.259   2.934   5.805
25431WAT      O76534   2.599   5.333   5.780
25431WAT     H176535   2.687   5.292   5.756
25431WAT     H276536   2.540   5.333   5.699
25432WAT      O76537   0.443   2.263   9.180
25432WAT     H176538   0.538   2.245   9.203
25432WAT     H276539   0.421   2.359   9.200
25433WAT      O76540   4.605   2.433   4.879
25433WAT     H176541   4.605   2.497   4.956
25433WAT     H276542   4.523   2.376   4.883
25434WAT      O76543   6.202   9.720   1.951
25434WAT     H176544   6.240   9.676   2.032
25434WAT     H276545   6.234   9.815   1.946
25435WAT      O76546   7.922   2.257   0.965
25435WAT     H176547   7.838   2.248   0.912
25435WAT     H276548   7.904   2.310   1.048
25436WAT      O76549   1.042   7.013   1.037
25436WAT     H176550   0.961   6.957   1.049
25436WAT     H276551   1.092   7.019   1.123
25437WAT      O76552   1.842   4.427   2.122
25437WAT     H176553   1.804   4.334   2.117
25437WAT     H276554   1.860   4.451   2.217
25438WAT      O76555   7.787   5.250   2.630
25438WAT     H176556   7.824   5.230   2.540
25438WAT     H276557   7.687   5.247   2.626
25439WAT      O76558   4.995   9.290   7.971
25439WAT     H176559   4.935   9.311   8.048
25439WAT     H276560   5.076   9.349   7.976
25440WAT      O76561   0.856   0.840   4.511
25440WAT     H176562   0.924   0.777   4.548
25440WAT     H276563   0.901   0.904   4.448
25441WAT      O76564   3.591   3.987   5.291
25441WAT     H176565   3.643   3.991   5.206
25441WAT     H276566   3.624   3.911   5.347
25442WAT      O76567   6.990   9.689   0.819
25442WAT     H176568   6.936   9.742   0.753
25442WAT     H276569   6.928   9.636   0.877
25443WAT      O76570   0.825   5.616   4.410
25443WAT     H176571   0.843   5.555   4.487
25443WAT     H276572   0.836   5.566   4.324
25444WAT      O76573   7.831   7.161   9.699
25444WAT     H176574   7.835   7.111   9.613
25444WAT     H276575   7.777   7.244   9.687
25445WAT      O76576   1.920   3.165   7.605
25445WAT     H176577   1.949   3.228   7.676
25445WAT     H276578   2.000   3.127   7.559
25446WAT      O76579   5.144   9.681   5.002
25446WAT     H176580   5.144   9.734   4.917
25446WAT     H276581   5.121   9.741   5.079
25447WAT      O76582   4.712   9.699   1.303
25447WAT     H176583   4.796   9.742   1.335
25447WAT     H276584   4.725   9.668   1.208
25448WAT      O76585   1.043   9.765   8.201
25448WAT     H176586   0.971   9.707   8.162
25448WAT     H276587   1.077   9.828   8.130
25449WAT      O76588   9.287   7.622   5.556
25449WAT     H176589   9.281   7.579   5.647
25449WAT     H276590   9.377   7.604   5.517
25450WAT      O76591   0.472   4.967   6.959
25450WAT     H176592   0.400   4.902   6.985
25450WAT     H276593   0.438   5.060   6.969
25451WAT      O76594   5.008   6.427   7.659
25451WAT     H176595   4.910   6.411   7.659
25451WAT     H276596   5.034   6.475   7.574
25452WAT      O76597   8.268   2.200   5.665
25452WAT     H176598   8.262   2.171   5.569
25452WAT     H276599   8.196   2.154   5.717
25453WAT      O76600   5.976   6.739   0.671
25453WAT     H176601   5.899   6.788   0.711
25453WAT     H276602   6.060   6.794   0.680
25454WAT      O76603   5.683   5.399   9.831
25454WAT     H176604   5.646   5.452   9.755
25454WAT     H276605   5.782   5.389   9.818
25455WAT      O76606   7.837   2.623   0.656
25455WAT     H176607   7.755   2.623   0.714
25455WAT     H276608   7.916   2.591   0.709
25456WAT      O76609   2.408   1.592   6.649
25456WAT     H176610   2.399   1.606   6.747
25456WAT     H276611   2.409   1.680   6.602
25457WAT      O76612   1.596   9.651   1.328
25457WAT     H176613   1.499   9.661   1.310
25457WAT     H276614   1.646   9.644   1.242
25458WAT      O76615   8.078   1.727   0.996
25458WAT     H176616   8.174   1.701   0.985
25458WAT     H276617   8.069   1.826   0.985
25459WAT      O76618   9.092   2.034   7.551
25459WAT     H176619   9.063   2.064   7.642
25459WAT     H276620   9.032   2.074   7.482
25460WAT      O76621   0.807   8.919   1.920
25460WAT     H176622   0.837   8.840   1.868
25460WAT     H276623   0.842   9.003   1.877
25461WAT      O76624   0.540   1.912   1.184
25461WAT     H176625   0.571   1.852   1.109
25461WAT     H276626   0.443   1.931   1.173
25462WAT      O76627   0.723   7.030   4.045
25462WAT     H176628   0.822   7.020   4.059
25462WAT     H276629   0.704   7.119   4.005
25463WAT      O76630   7.077   1.788   0.126
25463WAT     H176631   7.008   1.730   0.169
25463WAT     H276632   7.168   1.756   0.151
25464WAT      O76633   0.016   7.740   1.347
25464WAT     H176634   0.078   7.662   1.347
25464WAT     H276635   0.050   7.810   1.285
25465WAT      O76636   7.308   7.465   8.621
25465WAT     H176637   7.315   7.550   8.570
25465WAT     H276638   7.253   7.399   8.569
25466WAT      O76639   5.580   5.089   4.562
25466WAT     H176640   5.650   5.160   4.553
25466WAT     H276641   5.622   4.999   4.550
25467WAT      O76642   7.226   2.882   8.217
25467WAT     H176643   7.145   2.899   8.273
25467WAT     H276644   7.301   2.851   8.276
25468WAT      O76645   3.863   2.882   7.040
25468WAT     H176646   3.772   2.920   7.055
25468WAT     H276647   3.911   2.935   6.970
25469WAT      O76648   1.734   8.179   3.901
25469WAT     H176649   1.761   8.083   3.898
25469WAT     H276650   1.810   8.234   3.935
25470WAT      O76651   4.242   0.404   2.968
25470WAT     H176652   4.194   0.358   3.042
25470WAT     H276653   4.337   0.422   2.997
25471WAT      O76654   8.588   4.081   0.884
25471WAT     H176655   8.547   4.171   0.869
25471WAT     H276656   8.658   4.087   0.955
25472WAT      O76657   6.446   9.670   5.870
25472WAT     H176658   6.497   9.641   5.789
25472WAT     H276659   6.349   9.649   5.858
25473WAT      O76660   7.294   4.602   9.778
25473WAT     H176661   7.326   4.520   9.827
25473WAT     H276662   7.214   4.640   9.824
25474WAT      O76663   0.717   3.124   5.151
25474WAT     H176664   0.644   3.127   5.220
25474WAT     H276665   0.758   3.033   5.151
25475WAT      O76666   0.620   3.498   2.850
25475WAT     H176667   0.624   3.593   2.880
25475WAT     H276668   0.692   3.482   2.783
25476WAT      O76669   9.286   1.043   8.379
25476WAT     H176670   9.323   1.057   8.471
25476WAT     H276671   9.326   1.110   8.317
25477WAT      O76672   7.428   2.965   5.793
25477WAT     H176673   7.440   3.048   5.848
25477WAT     H276674   7.434   2.989   5.696
25478WAT      O76675   5.330   6.201   5.866
25478WAT     H176676   5.336   6.263   5.788
25478WAT     H276677   5.422   6.170   5.891
25479WAT      O76678   6.444   1.639   9.754
25479WAT     H176679   6.486   1.658   9.665
25479WAT     H276680   6.463   1.544   9.780
25480WAT      O76681   3.009   1.166   9.558
25480WAT     H176682   3.106   1.147   9.572
25480WAT     H276683   2.974   1.218   9.636
25481WAT      O76684   1.697   6.931   2.862
25481WAT     H176685   1.705   6.921   2.962
25481WAT     H276686   1.787   6.919   2.821
25482WAT      O76687   6.119   3.229   3.740
25482WAT     H176688   6.198   3.242   3.800
25482WAT     H276689   6.074   3.316   3.723
25483WAT      O76690   0.238   0.678   8.318
25483WAT     H176691   0.228   0.749   8.388
25483WAT     H276692   0.164   0.686   8.252
25484WAT      O76693   9.244   6.077   3.430
25484WAT     H176694   9.183   6.072   3.509
25484WAT     H276695   9.238   5.992   3.378
25485WAT      O76696   8.437   0.388   0.355
25485WAT     H176697   8.533   0.398   0.381
25485WAT     H276698   8.384   0.357   0.434
25486WAT      O76699   5.969   4.926   2.520
25486WAT     H176700   5.912   4.877   2.585
25486WAT     H276701   5.987   5.018   2.554
25487WAT      O76702   1.141   6.709   3.170
25487WAT     H176703   1.149   6.649   3.249
25487WAT     H276704   1.168   6.802   3.195
25488WAT      O76705   9.256   2.012   6.710
25488WAT     H176706   9.346   1.976   6.732
25488WAT     H276707   9.199   2.015   6.792
25489WAT      O76708   0.223   9.172   5.724
25489WAT     H176709   0.163   9.205   5.651
25489WAT     H276710   0.208   9.074   5.738
25490WAT      O76711   5.404   4.407   7.731
25490WAT     H176712   5.406   4.424   7.633
25490WAT     H276713   5.329   4.344   7.753
25491WAT      O76714   0.539   3.764   8.057
25491WAT     H176715   0.450   3.789   8.093
25491WAT     H276716   0.530   3.689   7.992
25492WAT      O76717   8.505   7.597   9.175
25492WAT     H176718   8.444   7.527   9.213
25492WAT     H276719   8.510   7.586   9.076
25493WAT      O76720   9.538   3.106   2.643
25493WAT     H176721   9.637   3.113   2.632
25493WAT     H276722   9.517   3.037   2.713
25494WAT      O76723   1.859   5.984   2.693
25494WAT     H176724   1.939   5.926   2.699
25494WAT     H276725   1.776   5.928   2.696
25495WAT      O76726   0.882   8.677   0.545
25495WAT     H176727   0.853   8.745   0.613
25495WAT     H276728   0.910   8.724   0.461
25496WAT      O76729   3.738   7.773   6.866
25496WAT     H176730   3.771   7.868   6.865
25496WAT     H276731   3.798   7.717   6.808
25497WAT      O76732   2.606   0.423   0.488
25497WAT     H176733   2.668   0.436   0.410
25497WAT     H276734   2.659   0.421   0.572
25498WAT      O76735   2.653   7.601   7.816
25498WAT     H176736   2.619   7.547   7.893
25498WAT     H276737   2.596   7.682   7.803
25499WAT      O76738   1.359   5.880   9.857
25499WAT     H176739   1.357   5.959   9.917
25499WAT     H276740   1.266   5.860   9.826
25500WAT      O76741   3.354   7.574   8.718
25500WAT     H176742   3.377   7.512   8.643
25500WAT     H276743   3.261   7.556   8.750
25501WAT      O76744   4.455   5.596   3.822
25501WAT     H176745   4.535   5.538   3.840
25501WAT     H276746   4.449   5.667   3.892
25502WAT      O76747   1.467   6.985   8.388
25502WAT     H176748   1.554   7.034   8.385
25502WAT     H276749   1.444   6.964   8.483
25503WAT      O76750   5.664   5.578   8.661
25503WAT     H176751   5.629   5.497   8.710
25503WAT     H276752   5.587   5.625   8.616
25504WAT      O76753   5.516   0.104   5.419
25504WAT     H176754   5.572   0.030   5.381
25504WAT     H276755   5.567   0.151   5.490
25505WAT      O76756   7.584   6.945   0.988
25505WAT     H176757   7.507   7.008   0.979
25505WAT     H276758   7.634   6.964   1.072
25506WAT      O76759   3.317   3.035   3.963
25506WAT     H176760   3.269   3.120   3.985
25506WAT     H276761   3.296   3.008   3.869
25507WAT      O76762   3.118   0.247   6.359
25507WAT     H176763   3.084   0.280   6.271
25507WAT     H276764   3.213   0.217   6.349
25508WAT      O76765   9.025   7.096   3.338
25508WAT     H176766   9.022   7.096   3.238
25508WAT     H276767   9.087   7.168   3.369
25509WAT      O76768   7.838   5.286   1.082
25509WAT     H176769   7.847   5.208   1.020
25509WAT     H276770   7.814   5.368   1.029
25510WAT      O76771   3.597   2.612   2.451
25510WAT     H176772   3.514   2.558   2.460
25510WAT     H276773   3.677   2.553   2.465
25511WAT      O76774   1.588   6.949   2.021
25511WAT     H176775   1.614   6.924   2.115
25511WAT     H276776   1.565   6.866   1.970
25512WAT      O76777   6.516   6.729   0.671
25512WAT     H176778   6.418   6.735   0.654
25512WAT     H276779   6.565   6.794   0.612
25513WAT      O76780   2.978   8.542   6.569
25513WAT     H176781   3.041   8.541   6.491
25513WAT     H276782   2.932   8.631   6.574
25514WAT      O76783   5.652   6.415   4.724
25514WAT     H176784   5.572   6.405   4.783
25514WAT     H276785   5.719   6.344   4.747
25515WAT      O76786   4.311   7.581   9.342
25515WAT     H176787   4.410   7.581   9.357
25515WAT     H276788   4.276   7.674   9.356
25516WAT      O76789   0.358   1.647   7.409
25516WAT     H176790   0.326   1.617   7.499
25516WAT     H276791   0.281   1.687   7.359
25517WAT      O76792   8.865   6.473   0.965
25517WAT     H176793   8.778   6.433   0.935
25517WAT     H276794   8.937   6.403   0.961
25518WAT      O76795   1.771   0.728   3.239
25518WAT     H176796   1.868   0.720   3.265
25518WAT     H276797   1.722   0.646   3.270
25519WAT      O76798   5.500   1.407   7.424
25519WAT     H176799   5.400   1.393   7.425
25519WAT     H276800   5.543   1.334   7.371
25520WAT      O76801   7.181   7.502   5.242
25520WAT     H176802   7.215   7.510   5.336
25520WAT     H276803   7.082   7.490   5.243
25521WAT      O76804   7.269   5.709   0.790
25521WAT     H176805   7.289   5.772   0.865
25521WAT     H276806   7.223   5.758   0.716
25522WAT      O76807   4.447   7.946   7.169
25522WAT     H176808   4.520   7.995   7.217
25522WAT     H276809   4.460   7.847   7.180
25523WAT      O76810   0.398   1.092   4.400
25523WAT     H176811   0.364   1.023   4.464
25523WAT     H276812   0.321   1.146   4.365
25524WAT      O76813   1.247   8.845   5.859
25524WAT     H176814   1.283   8.840   5.766
25524WAT     H276815   1.159   8.893   5.858
25525WAT      O76816   4.264   5.680   8.399
25525WAT     H176817   4.196   5.752   8.387
25525WAT     H276818   4.308   5.661   8.311
25526WAT      O76819   9.184   8.905   8.204
25526WAT     H176820   9.169   8.999   8.174
25526WAT     H276821   9.237   8.856   8.134
25527WAT      O76822   0.895   6.141   5.900
25527WAT     H176823   0.976   6.117   5.846
25527WAT     H276824   0.914   6.224   5.952
25528WAT      O76825   0.393   9.307   0.139
25528WAT     H176826   0.373   9.375   0.069
25528WAT     H276827   0.309   9.279   0.185
25529WAT      O76828   4.168   4.251   8.851
25529WAT     H176829   4.205   4.175   8.797
25529WAT     H276830   4.074   4.230   8.879
25530WAT      O76831   3.775   8.233   8.903
25530WAT     H176832   3.694   8.194   8.946
25530WAT     H276833   3.764   8.231   8.804
25531WAT      O76834   4.058   5.894   6.236
25531WAT     H176835   3.969   5.936   6.217
25531WAT     H276836   4.101   5.868   6.149
25532WAT      O76837   8.395   9.714   6.348
25532WAT     H176838   8.330   9.662   6.403
25532WAT     H276839   8.351   9.743   6.263
25533WAT      O76840   1.435   6.508   5.258
25533WAT     H176841   1.393   6.427   5.298
25533WAT     H276842   1.363   6.576   5.237
25534WAT      O76843   8.879   7.556   0.747
25534WAT     H176844   8.965   7.594   0.714
25534WAT     H276845   8.890   7.522   0.840
25535WAT      O76846   2.139   4.337   4.903
25535WAT     H176847   2.135   4.240   4.880
25535WAT     H276848   2.149   4.347   5.002
25536WAT      O76849   9.319   9.444   7.390
25536WAT     H176850   9.408   9.481   7.414
25536WAT     H276851   9.267   9.425   7.474
25537WAT      O76852   9.604   9.760   6.902
25537WAT     H176853   9.565   9.690   6.962
25537WAT     H276854   9.645   9.832   6.957
25538WAT      O76855   6.756   7.413   6.773
25538WAT     H176856   6.752   7.499   6.721
25538WAT     H276857   6.848   7.401   6.810
25539WAT      O76858   6.158   6.052   0.172
25539WAT     H176859   6.187   6.100   0.255
25539WAT     H276860   6.223   6.071   0.098
25540WAT      O76861   5.885   6.417   7.352
25540WAT     H176862   5.864   6.392   7.257
25540WAT     H276863   5.849   6.347   7.414
25541WAT      O76864   1.102   2.001   5.650
25541WAT     H176865   1.149   2.088   5.635
25541WAT     H276866   1.166   1.936   5.691
25542WAT      O76867   2.160   1.298   7.976
25542WAT     H176868   2.171   1.207   7.936
25542WAT     H276869   2.194   1.297   8.070
25543WAT      O76870   4.693   6.423   9.797
25543WAT     H176871   4.679   6.335   9.843
25543WAT     H276872   4.754   6.410   9.719
25544WAT      O76873   2.789   4.181   6.039
25544WAT     H176874   2.755   4.108   6.099
25544WAT     H276875   2.871   4.222   6.080
25545WAT      O76876   7.326   0.905   8.662
25545WAT     H176877   7.424   0.884   8.659
25545WAT     H276878   7.306   0.978   8.597
25546WAT      O76879   0.858   6.745   6.673
25546WAT     H176880   0.799   6.825   6.677
25546WAT     H276881   0.823   6.674   6.734
25547WAT      O76882   4.771   4.221   2.770
25547WAT     H176883   4.789   4.231   2.868
25547WAT     H276884   4.841   4.269   2.718
25548WAT      O76885   8.110   1.076   7.885
25548WAT     H176886   8.036   1.071   7.952
25548WAT     H276887   8.073   1.097   7.795
25549WAT      O76888   7.948   8.983   6.667
25549WAT     H176889   7.966   9.049   6.740
25549WAT     H276890   8.024   8.919   6.660
25550WAT      O76891   8.199   3.368   0.944
25550WAT     H176892   8.177   3.272   0.959
25550WAT     H276893   8.266   3.398   1.012
25551WAT      O76894   4.373   1.158   0.813
25551WAT     H176895   4.399   1.252   0.792
25551WAT     H276896   4.426   1.126   0.892
25552WAT      O76897   2.346   3.101   2.323
25552WAT     H176898   2.337   3.180   2.262
25552WAT     H276899   2.439   3.095   2.358
25553WAT      O76900   3.663   0.349   3.998
25553WAT     H176901   3.702   0.304   3.918
25553WAT     H276902   3.737   0.386   4.054
25554WAT      O76903   4.722   8.371   8.411
25554WAT     H176904   4.651   8.305   8.384
25554WAT     H276905   4.772   8.335   8.490
25555WAT      O76906   8.285   0.961   8.049
25555WAT     H176907   8.264   0.865   8.071
25555WAT     H276908   8.221   0.993   7.979
25556WAT      O76909   6.271   6.667   5.688
25556WAT     H176910   6.370   6.655   5.679
25556WAT     H276911   6.241   6.743   5.630
25557WAT      O76912   5.361   5.436   4.577
25557WAT     H176913   5.308   5.442   4.492
25557WAT     H276914   5.299   5.415   4.653
25558WAT      O76915   9.669   6.119   5.636
25558WAT     H176916   9.608   6.097   5.712
25558WAT     H276917   9.677   6.040   5.575
25559WAT      O76918   4.885   8.302   5.143
25559WAT     H176919   4.980   8.278   5.161
25559WAT     H276920   4.825   8.250   5.204
25560WAT      O76921   6.619   1.954   9.307
25560WAT     H176922   6.565   2.012   9.370
25560WAT     H276923   6.701   1.923   9.354
25561WAT      O76924   2.174   4.945   4.265
25561WAT     H176925   2.199   4.891   4.185
25561WAT     H276926   2.075   4.962   4.265
25562WAT      O76927   4.175   2.428   4.903
25562WAT     H176928   4.083   2.400   4.878
25562WAT     H276929   4.201   2.509   4.851
25563WAT      O76930   7.938   0.337   8.556
25563WAT     H176931   8.020   0.283   8.576
25563WAT     H276932   7.930   0.350   8.458
25564WAT      O76933   8.844   9.210   8.970
25564WAT     H176934   8.854   9.174   8.878
25564WAT     H276935   8.748   9.208   8.997
25565WAT      O76936   7.525   3.097   2.976
25565WAT     H176937   7.605   3.068   2.925
25565WAT     H276938   7.443   3.053   2.939
25566WAT      O76939   6.535   6.104   7.521
25566WAT     H176940   6.592   6.038   7.570
25566WAT     H276941   6.477   6.056   7.455
25567WAT      O76942   7.357   0.352   8.374
25567WAT     H176943   7.392   0.259   8.372
25567WAT     H276944   7.429   0.416   8.350
25568WAT      O76945   1.713   3.767   7.210
25568WAT     H176946   1.693   3.851   7.261
25568WAT     H276947   1.795   3.780   7.154
25569WAT      O76948   6.922   0.447   2.841
25569WAT     H176949   6.841   0.423   2.787
25569WAT     H276950   6.896   0.453   2.937
25570WAT      O76951   4.599   2.669   0.878
25570WAT     H176952   4.609   2.736   0.805
25570WAT     H276953   4.625   2.578   0.844
25571WAT      O76954   8.820   0.423   4.677
25571WAT     H176955   8.875   0.479   4.616
25571WAT     H276956   8.723   0.434   4.654
25572WAT      O76957   6.276   7.806   5.542
25572WAT     H176958   6.330   7.838   5.464
25572WAT     H276959   6.183   7.786   5.513
25573WAT      O76960   6.699   3.774   3.629
25573WAT     H176961   6.752   3.859   3.630
25573WAT     H276962   6.752   3.703   3.583
25574WAT      O76963   2.957   0.004   6.410
25574WAT     H176964   2.980   0.100   6.401
25574WAT     H276965   3.019  -0.051   6.352
25575WAT      O76966   6.716   1.914   8.074
25575WAT     H176967   6.815   1.920   8.065
25575WAT     H276968   6.675   1.905   7.983
25576WAT      O76969   7.846   1.026   3.482
25576WAT     H176970   7.917   0.968   3.521
25576WAT     H276971   7.757   0.980   3.489
25577WAT      O76972   9.067   8.478   4.325
25577WAT     H176973   9.034   8.565   4.288
25577WAT     H276974   9.167   8.476   4.323
25578WAT      O76975   6.001   9.186   3.385
25578WAT     H176976   6.030   9.198   3.480
25578WAT     H276977   5.963   9.095   3.373
25579WAT      O76978   9.263   1.880   2.149
25579WAT     H176979   9.224   1.935   2.223
25579WAT     H276980   9.319   1.807   2.188
25580WAT      O76981   8.235   0.198   5.001
25580WAT     H176982   8.290   0.114   5.004
25580WAT     H276983   8.229   0.238   5.092
25581WAT      O76984   4.334   1.124   2.311
25581WAT     H176985   4.413   1.070   2.340
25581WAT     H276986   4.295   1.084   2.228
25582WAT      O76987   1.062   3.026   5.508
25582WAT     H176988   1.082   3.104   5.448
25582WAT     H276989   1.092   2.941   5.464
25583WAT      O76990   8.651   5.566   8.180
25583WAT     H176991   8.639   5.474   8.218
25583WAT     H276992   8.587   5.580   8.105
25584WAT      O76993   8.609   9.703   1.168
25584WAT     H176994   8.709   9.695   1.167
25584WAT     H276995   8.583   9.791   1.208
25585WAT      O76996   8.012   1.950   2.780
25585WAT     H176997   7.917   1.922   2.793
25585WAT     H276998   8.018   2.010   2.701
25586WAT      O76999   3.003   8.795   4.404
25586WAT     H177000   2.925   8.778   4.465
25586WAT     H277001   3.061   8.714   4.402
25587WAT      O77002   3.468   7.439   2.710
25587WAT     H177003   3.393   7.407   2.768
25587WAT     H277004   3.518   7.360   2.674
25588WAT      O77005   5.417   3.845   2.363
25588WAT     H177006   5.356   3.812   2.436
25588WAT     H277007   5.472   3.769   2.328
25589WAT      O77008   7.824   9.096   4.256
25589WAT     H177009   7.879   9.080   4.174
25589WAT     H277010   7.773   9.182   4.245
25590WAT      O77011   6.005   2.002   5.684
25590WAT     H177012   5.933   2.026   5.750
25590WAT     H277013   6.002   1.904   5.666
25591WAT      O77014   0.246   4.498   6.852
25591WAT     H177015   0.191   4.581   6.854
25591WAT     H277016   0.335   4.516   6.894
25592WAT      O77017   1.204   6.824   8.972
25592WAT     H177018   1.132   6.766   8.934
25592WAT     H277019   1.274   6.767   9.015
25593WAT      O77020   9.364   3.888   3.233
25593WAT     H177021   9.279   3.870   3.282
25593WAT     H277022   9.411   3.802   3.215
25594WAT      O77023   5.672   7.692   1.759
25594WAT     H177024   5.712   7.766   1.705
25594WAT     H277025   5.644   7.618   1.698
25595WAT      O77026   4.771   4.000   6.285
25595WAT     H177027   4.695   4.017   6.347
25595WAT     H277028   4.794   3.902   6.286
25596WAT      O77029   3.858   6.774   1.551
25596WAT     H177030   3.859   6.686   1.503
25596WAT     H277031   3.863   6.849   1.484
25597WAT      O77032   6.898   4.808   0.741
25597WAT     H177033   6.996   4.795   0.730
25597WAT     H277034   6.878   4.833   0.835
25598WAT      O77035   3.848   3.365   5.176
25598WAT     H177036   3.942   3.349   5.147
25598WAT     H277037   3.827   3.462   5.168
25599WAT      O77038   6.747   2.627   9.490
25599WAT     H177039   6.684   2.700   9.465
25599WAT     H277040   6.780   2.642   9.583
25600WAT      O77041   3.378   0.974   9.497
25600WAT     H177042   3.424   0.910   9.559
25600WAT     H277043   3.368   1.063   9.542
25601WAT      O77044   7.107   2.605   9.459
25601WAT     H177045   7.032   2.559   9.412
25601WAT     H277046   7.178   2.629   9.393
25602WAT      O77047   6.178   4.695   0.687
25602WAT     H177048   6.113   4.737   0.750
25602WAT     H277049   6.261   4.751   0.682
25603WAT      O77050   4.101   1.167   7.188
25603WAT     H177051   4.188   1.128   7.157
25603WAT     H277052   4.109   1.267   7.193
25604WAT      O77053   7.023   6.520   1.879
25604WAT     H177054   7.092   6.471   1.932
25604WAT     H277055   6.998   6.466   1.799
25605WAT      O77056   8.160   0.564   8.974
25605WAT     H177057   8.221   0.636   9.006
25605WAT     H277058   8.174   0.549   8.877
25606WAT      O77059   8.218   2.315   0.657
25606WAT     H177060   8.266   2.401   0.643
25606WAT     H277061   8.278   2.250   0.703
25607WAT      O77062  -0.005   2.095   6.581
25607WAT     H177063   0.038   2.125   6.496
25607WAT     H277064   0.050   2.022   6.622
25608WAT      O77065   0.166   7.621   3.168
25608WAT     H177066   0.162   7.562   3.088
25608WAT     H277067   0.085   7.679   3.171
25609WAT      O77068   3.193   2.214   1.660
25609WAT     H177069   3.148   2.157   1.729
25609WAT     H277070   3.252   2.280   1.706
25610WAT      O77071   6.709   9.255   2.966
25610WAT     H177072   6.767   9.235   3.045
25610WAT     H277073   6.652   9.334   2.987
25611WAT      O77074   8.643   5.703   8.891
25611WAT     H177075   8.721   5.754   8.926
25611WAT     H277076   8.675   5.623   8.840
25612WAT      O77077   1.894   9.428   2.546
25612WAT     H177078   1.930   9.515   2.513
25612WAT     H277079   1.942   9.353   2.500
25613WAT      O77080   8.483   5.176   0.046
25613WAT     H177081   8.531   5.207   0.128
25613WAT     H277082   8.401   5.232   0.032
25614WAT      O77083   1.363   1.015   8.537
25614WAT     H177084   1.443   0.979   8.488
25614WAT     H277085   1.357   1.114   8.523
25615WAT      O77086   8.248   4.810   7.111
25615WAT     H177087   8.338   4.774   7.135
25615WAT     H277088   8.259   4.885   7.046
25616WAT      O77089   9.449   2.318   3.553
25616WAT     H177090   9.457   2.390   3.484
25616WAT     H277091   9.539   2.277   3.570
25617WAT      O77092   6.397   0.590   5.461
25617WAT     H177093   6.347   0.662   5.510
25617WAT     H277094   6.404   0.615   5.364
25618WAT      O77095   2.099   1.724   4.947
25618WAT     H177096   2.013   1.698   4.991
25618WAT     H277097   2.086   1.731   4.849
25619WAT      O77098   2.344   7.332   3.251
25619WAT     H177099   2.340   7.232   3.248
25619WAT     H277100   2.261   7.369   3.209
25620WAT      O77101   0.257   5.702   6.398
25620WAT     H177102   0.193   5.753   6.456
25620WAT     H277103   0.230   5.606   6.394
25621WAT      O77104   7.866   9.551   0.714
25621WAT     H177105   7.799   9.563   0.787
25621WAT     H277106   7.819   9.529   0.629
25622WAT      O77107   4.435   9.309   1.534
25622WAT     H177108   4.391   9.228   1.496
25622WAT     H277109   4.519   9.328   1.484
25623WAT      O77110   1.291   8.599   0.232
25623WAT     H177111   1.368   8.550   0.192
25623WAT     H277112   1.324   8.658   0.306
25624WAT      O77113   9.634   1.016   1.116
25624WAT     H177114   9.550   1.007   1.170
25624WAT     H277115   9.692   0.936   1.133
25625WAT      O77116   3.069   5.462   5.743
25625WAT     H177117   3.084   5.430   5.649
25625WAT     H277118   3.076   5.386   5.806
25626WAT      O77119   1.695   3.453   3.155
25626WAT     H177120   1.682   3.518   3.230
25626WAT     H277121   1.705   3.361   3.193
25627WAT      O77122   0.781   2.656   5.821
25627WAT     H177123   0.739   2.744   5.842
25627WAT     H277124   0.745   2.586   5.883
25628WAT      O77125   2.884   5.323   9.436
25628WAT     H177126   2.972   5.366   9.457
25628WAT     H277127   2.894   5.264   9.356
25629WAT      O77128   7.037   0.670   1.166
25629WAT     H177129   7.071   0.576   1.166
25629WAT     H277130   7.057   0.713   1.078
25630WAT      O77131   1.458   3.003   5.385
25630WAT     H177132   1.477   2.950   5.302
25630WAT     H277133   1.380   2.963   5.433
25631WAT      O77134   5.957   1.982   9.380
25631WAT     H177135   5.948   1.948   9.473
25631WAT     H277136   5.952   1.905   9.316
25632WAT      O77137   8.364   4.207   3.105
25632WAT     H177138   8.419   4.124   3.114
25632WAT     H277139   8.358   4.233   3.009
25633WAT      O77140   4.954   3.711   2.494
25633WAT     H177141   5.038   3.700   2.441
25633WAT     H277142   4.877   3.672   2.443
25634WAT      O77143   4.347   5.737   6.202
25634WAT     H177144   4.421   5.671   6.186
25634WAT     H277145   4.333   5.792   6.119
25635WAT      O77146   1.118   4.943   3.074
25635WAT     H177147   1.070   5.011   3.129
25635WAT     H277148   1.207   4.978   3.046
25636WAT      O77149   2.646   5.455   2.509
25636WAT     H177150   2.581   5.410   2.570
25636WAT     H277151   2.717   5.390   2.482
25637WAT      O77152   2.750   7.245   7.130
25637WAT     H177153   2.655   7.232   7.157
25637WAT     H277154   2.781   7.335   7.161
25638WAT      O77155   1.310   3.632   2.692
25638WAT     H177156   1.397   3.678   2.676
25638WAT     H277157   1.302   3.608   2.788
25639WAT      O77158   2.393   3.202   3.655
25639WAT     H177159   2.439   3.262   3.720
25639WAT     H277160   2.299   3.232   3.643
25640WAT      O77161   4.735   3.838   0.876
25640WAT     H177162   4.804   3.886   0.931
25640WAT     H277163   4.715   3.890   0.794
25641WAT      O77164   3.631   3.902   8.645
25641WAT     H177165   3.708   3.944   8.597
25641WAT     H277166   3.548   3.952   8.625
25642WAT      O77167   8.943   5.487   4.931
25642WAT     H177168   8.879   5.411   4.922
25642WAT     H277169   9.018   5.477   4.865
25643WAT      O77170   3.872   9.364   4.841
25643WAT     H177171   3.804   9.317   4.785
25643WAT     H277172   3.931   9.420   4.782
25644WAT      O77173   6.376   1.608   3.460
25644WAT     H177174   6.306   1.543   3.490
25644WAT     H277175   6.351   1.700   3.490
25645WAT      O77176   5.495   5.282   2.781
25645WAT     H177177   5.490   5.374   2.820
25645WAT     H277178   5.571   5.232   2.822
25646WAT      O77179   0.474   0.451   3.064
25646WAT     H177180   0.507   0.389   2.994
25646WAT     H277181   0.539   0.526   3.077
25647WAT      O77182   9.646   6.809   1.414
25647WAT     H177183   9.681   6.789   1.505
25647WAT     H277184   9.665   6.905   1.392
25648WAT      O77185   6.375   8.676   3.169
25648WAT     H177186   6.311   8.619   3.118
25648WAT     H277187   6.468   8.660   3.136
25649WAT      O77188   4.338   4.525   1.053
25649WAT     H177189   4.314   4.604   1.109
25649WAT     H277190   4.257   4.466   1.042
25650WAT      O77191   8.964   4.648   9.356
25650WAT     H177192   8.900   4.653   9.433
25650WAT     H277193   9.057   4.653   9.391
25651WAT      O77194   4.589   6.325   8.862
25651WAT     H177195   4.573   6.283   8.772
25651WAT     H277196   4.633   6.414   8.849
25652WAT      O77197   9.323   1.347   4.866
25652WAT     H177198   9.283   1.437   4.851
25652WAT     H277199   9.368   1.344   4.955
25653WAT      O77200   5.098   8.386   3.710
25653WAT     H177201   5.074   8.479   3.682
25653WAT     H277202   5.020   8.325   3.691
25654WAT      O77203   1.958   8.388   7.718
25654WAT     H177204   1.916   8.458   7.776
25654WAT     H277205   2.007   8.322   7.775
25655WAT      O77206   8.859   4.991   5.930
25655WAT     H177207   8.802   4.947   5.999
25655WAT     H277208   8.815   5.075   5.899
25656WAT      O77209   9.792   7.027   6.979
25656WAT     H177210   9.701   6.993   7.004
25656WAT     H277211   9.855   6.950   6.970
25657WAT      O77212   4.125   0.230   8.715
25657WAT     H177213   4.068   0.162   8.668
25657WAT     H277214   4.220   0.220   8.685
25658WAT      O77215   0.780   1.946   8.874
25658WAT     H177216   0.687   1.976   8.897
25658WAT     H277217   0.846   2.004   8.922
25659WAT      O77218   2.624   2.337   0.574
25659WAT     H177219   2.634   2.418   0.517
25659WAT     H277220   2.697   2.335   0.643
25660WAT      O77221   5.127   9.302   4.729
25660WAT     H177222   5.190   9.369   4.690
25660WAT     H277223   5.167   9.262   4.811
25661WAT      O77224   9.412   1.772   5.939
25661WAT     H177225   9.496   1.815   5.973
25661WAT     H277226   9.434   1.715   5.860
25662WAT      O77227   1.605   7.640   6.254
25662WAT     H177228   1.576   7.734   6.274
25662WAT     H277229   1.704   7.632   6.270
25663WAT      O77230   4.624   8.916   2.467
25663WAT     H177231   4.716   8.946   2.489
25663WAT     H277232   4.600   8.837   2.525
25664WAT      O77233   4.422   9.706   5.814
25664WAT     H177234   4.418   9.740   5.908
25664WAT     H277235   4.499   9.642   5.806
25665WAT      O77236   0.879   3.485   7.851
25665WAT     H177237   0.844   3.423   7.921
25665WAT     H277238   0.863   3.446   7.760
25666WAT      O77239   1.943   9.323   8.480
25666WAT     H177240   1.942   9.242   8.539
25666WAT     H277241   1.873   9.387   8.510
25667WAT      O77242   4.286   0.910   5.586
25667WAT     H177243   4.384   0.907   5.608
25667WAT     H277244   4.268   0.986   5.524
25668WAT      O77245   4.853   4.962   8.841
25668WAT     H177246   4.899   4.994   8.924
25668WAT     H277247   4.830   4.866   8.850
25669WAT      O77248   6.923   7.176   0.801
25669WAT     H177249   7.020   7.155   0.797
25669WAT     H277250   6.909   7.267   0.841
25670WAT      O77251   0.781   7.743   3.182
25670WAT     H177252   0.764   7.814   3.250
25670WAT     H277253   0.878   7.719   3.182
25671WAT      O77254   9.451   0.567   1.811
25671WAT     H177255   9.461   0.610   1.900
25671WAT     H277256   9.381   0.615   1.759
25672WAT      O77257   0.899   0.443   5.119
25672WAT     H177258   0.828   0.421   5.053
25672WAT     H277259   0.980   0.476   5.071
25673WAT      O77260   0.777   8.682   0.107
25673WAT     H177261   0.751   8.585   0.102
25673WAT     H277262   0.874   8.691   0.081
25674WAT      O77263   5.565   9.585   2.573
25674WAT     H177264   5.634   9.589   2.645
25674WAT     H277265   5.586   9.654   2.503
25675WAT      O77266   3.920   6.375   2.237
25675WAT     H177267   4.006   6.328   2.218
25675WAT     H277268   3.939   6.465   2.277
25676WAT      O77269   8.487   8.870   4.472
25676WAT     H177270   8.435   8.787   4.492
25676WAT     H277271   8.443   8.921   4.398
25677WAT      O77272   5.512   6.154   4.574
25677WAT     H177273   5.457   6.232   4.544
25677WAT     H277274   5.464   6.105   4.647
25678WAT      O77275   1.980   2.239   1.452
25678WAT     H177276   2.033   2.282   1.379
25678WAT     H277277   1.913   2.304   1.488
25679WAT      O77278   1.207   5.587   4.498
25679WAT     H177279   1.288   5.585   4.439
25679WAT     H277280   1.148   5.509   4.476
25680WAT      O77281   6.705   6.462   1.477
25680WAT     H177282   6.726   6.369   1.506
25680WAT     H277283   6.679   6.462   1.381
25681WAT      O77284   4.048   9.184   5.335
25681WAT     H177285   4.068   9.221   5.244
25681WAT     H277286   3.950   9.183   5.350
25682WAT      O77287   8.496   9.162   2.229
25682WAT     H177288   8.573   9.222   2.207
25682WAT     H277289   8.503   9.134   2.325
25683WAT      O77290   7.639   0.197   7.274
25683WAT     H177291   7.695   0.169   7.352
25683WAT     H277292   7.698   0.224   7.198
25684WAT      O77293   1.576   4.642   2.491
25684WAT     H177294   1.486   4.685   2.478
25684WAT     H277295   1.648   4.710   2.473
25685WAT      O77296   6.793   2.299   0.444
25685WAT     H177297   6.713   2.332   0.394
25685WAT     H277298   6.777   2.206   0.477
25686WAT      O77299   4.287   0.171   8.470
25686WAT     H177300   4.312   0.096   8.409
25686WAT     H277301   4.246   0.245   8.416
25687WAT      O77302   9.069   2.755   3.824
25687WAT     H177303   9.108   2.801   3.903
25687WAT     H277304   8.985   2.707   3.851
25688WAT      O77305   2.284   1.280   3.673
25688WAT     H177306   2.319   1.350   3.611
25688WAT     H277307   2.228   1.323   3.744
25689WAT      O77308   3.797   8.813   8.810
25689WAT     H177309   3.868   8.865   8.763
25689WAT     H277310   3.728   8.783   8.743
25690WAT      O77311   3.753   6.117   3.225
25690WAT     H177312   3.840   6.118   3.275
25690WAT     H277313   3.744   6.200   3.170
25691WAT      O77314   6.603   8.638   9.316
25691WAT     H177315   6.628   8.672   9.407
25691WAT     H277316   6.537   8.563   9.326
25692WAT      O77317   3.140   3.262   6.719
25692WAT     H177318   3.212   3.208   6.762
25692WAT     H277319   3.126   3.230   6.625
25693WAT      O77320   8.510   1.908   1.438
25693WAT     H177321   8.567   1.979   1.397
25693WAT     H277322   8.506   1.829   1.377
25694WAT      O77323   9.527   1.467   7.691
25694WAT     H177324   9.483   1.462   7.601
25694WAT     H277325   9.490   1.544   7.742
25695WAT      O77326   2.213   1.193   3.999
25695WAT     H177327   2.165   1.279   3.983
25695WAT     H277328   2.304   1.211   4.036
25696WAT      O77329   9.631   6.396   0.901
25696WAT     H177330   9.706   6.351   0.852
25696WAT     H277331   9.554   6.333   0.910
25697WAT      O77332   2.941   9.197   3.925
25697WAT     H177333   2.933   9.174   3.828
25697WAT     H277334   2.858   9.243   3.956
25698WAT      O77335   9.680   5.970   2.648
25698WAT     H177336   9.753   5.979   2.581
25698WAT     H277337   9.629   5.887   2.631
25699WAT      O77338   0.735   4.516   3.989
25699WAT     H177339   0.786   4.543   4.071
25699WAT     H277340   0.719   4.417   3.991
25700WAT      O77341   6.806   8.372   8.093
25700WAT     H177342   6.875   8.439   8.067
25700WAT     H277343   6.834   8.325   8.177
25701WAT      O77344   6.567   1.297   7.207
25701WAT     H177345   6.586   1.343   7.293
25701WAT     H277346   6.479   1.327   7.171
25702WAT      O77347   4.316   1.858   9.135
25702WAT     H177348   4.378   1.922   9.090
25702WAT     H277349   4.329   1.862   9.234
25703WAT      O77350   4.838   2.425   6.543
25703WAT     H177351   4.907   2.460   6.606
25703WAT     H277352   4.868   2.439   6.449
25704WAT      O77353   3.513   3.812   4.256
25704WAT     H177354   3.475   3.767   4.175
25704WAT     H277355   3.590   3.759   4.291
25705WAT      O77356   4.583   6.635   7.871
25705WAT     H177357   4.657   6.686   7.827
25705WAT     H277358   4.569   6.670   7.963
25706WAT      O77359   6.611   8.466   1.504
25706WAT     H177360   6.574   8.417   1.425
25706WAT     H277361   6.558   8.443   1.585
25707WAT      O77362   1.848   8.207   9.189
25707WAT     H177363   1.813   8.120   9.155
25707WAT     H277364   1.946   8.215   9.167
25708WAT      O77365   4.799   7.460   4.425
25708WAT     H177366   4.852   7.505   4.497
25708WAT     H277367   4.846   7.377   4.397
25709WAT      O77368   2.009   9.162   1.927
25709WAT     H177369   1.917   9.133   1.951
25709WAT     H277370   2.039   9.235   1.989
25710WAT      O77371   9.709   6.071   5.999
25710WAT     H177372   9.680   5.978   6.019
25710WAT     H277373   9.630   6.126   5.972
25711WAT      O77374   3.632   7.859   3.819
25711WAT     H177375   3.711   7.905   3.858
25711WAT     H277376   3.597   7.913   3.742
25712WAT      O77377   7.141   0.078   5.678
25712WAT     H177378   7.069   0.017   5.645
25712WAT     H277379   7.226   0.027   5.691
25713WAT      O77380   7.864   4.929   6.951
25713WAT     H177381   7.840   4.875   7.031
25713WAT     H277382   7.913   5.011   6.979
25714WAT      O77383   3.476   0.491   7.944
25714WAT     H177384   3.568   0.465   7.915
25714WAT     H277385   3.458   0.586   7.917
25715WAT      O77386   8.918   1.632   9.728
25715WAT     H177387   8.908   1.670   9.636
25715WAT     H277388   8.844   1.664   9.786
25716WAT      O77389   3.536   3.110   0.519
25716WAT     H177390   3.457   3.147   0.567
25716WAT     H277391   3.513   3.094   0.423
25717WAT      O77392   1.122   5.695   4.735
25717WAT     H177393   1.177   5.669   4.656
25717WAT     H277394   1.040   5.742   4.704
25718WAT      O77395   6.999   4.656   3.931
25718WAT     H177396   7.046   4.707   4.004
25718WAT     H277397   6.965   4.720   3.862
25719WAT      O77398   3.979   8.193   3.952
25719WAT     H177399   3.915   8.264   3.979
25719WAT     H277400   3.992   8.196   3.853
25720WAT      O77401   7.189   3.227   5.200
25720WAT     H177402   7.188   3.262   5.107
25720WAT     H277403   7.164   3.130   5.200
25721WAT      O77404   3.788   4.006   3.212
25721WAT     H177405   3.816   4.058   3.293
25721WAT     H277406   3.715   4.055   3.164
25722WAT      O77407   5.443   7.016   6.447
25722WAT     H177408   5.381   7.033   6.523
25722WAT     H277409   5.392   6.982   6.368
25723WAT      O77410   4.219   6.045   3.702
25723WAT     H177411   4.221   6.143   3.683
25723WAT     H277412   4.133   6.006   3.668
25724WAT      O77413   4.894   9.377   9.807
25724WAT     H177414   4.870   9.291   9.851
25724WAT     H277415   4.828   9.397   9.734
25725WAT      O77416   7.267   2.562   9.074
25725WAT     H177417   7.271   2.651   9.120
25725WAT     H277418   7.179   2.552   9.028
25726WAT      O77419   3.425   0.614   9.177
25726WAT     H177420   3.475   0.537   9.216
25726WAT     H277421   3.348   0.637   9.237
25727WAT      O77422   5.304   6.482   9.433
25727WAT     H177423   5.311   6.452   9.338
25727WAT     H277424   5.232   6.552   9.441
25728WAT      O77425   7.333   5.861   1.008
25728WAT     H177426   7.358   5.947   1.052
25728WAT     H277427   7.340   5.786   1.073
25729WAT      O77428   8.844   8.650   7.252
25729WAT     H177429   8.790   8.578   7.296
25729WAT     H277430   8.915   8.608   7.196
25730WAT      O77431   4.233   4.545   5.663
25730WAT     H177432   4.226   4.633   5.617
25730WAT     H277433   4.271   4.558   5.755
25731WAT      O77434   1.314   0.604   0.059
25731WAT     H177435   1.287   0.511   0.034
25731WAT     H277436   1.248   0.642   0.123
25732WAT      O77437   9.668   8.907   4.706
25732WAT     H177438   9.590   8.848   4.726
25732WAT     H277439   9.693   8.899   4.610
25733WAT      O77440   7.746   1.990   7.028
25733WAT     H177441   7.684   2.022   7.100
25733WAT     H277442   7.796   2.068   6.990
25734WAT      O77443   5.632   3.889   1.434
25734WAT     H177444   5.681   3.931   1.511
25734WAT     H277445   5.592   3.960   1.377
25735WAT      O77446   0.709   1.154   8.678
25735WAT     H177447   0.647   1.092   8.630
25735WAT     H277448   0.786   1.102   8.714
25736WAT      O77449   9.498   8.203   0.735
25736WAT     H177450   9.413   8.198   0.787
25736WAT     H277451   9.559   8.270   0.778
25737WAT      O77452   2.623   6.438   4.794
25737WAT     H177453   2.647   6.518   4.849
25737WAT     H277454   2.538   6.456   4.745
25738WAT      O77455   0.030   4.024   8.485
25738WAT     H177456   0.055   3.962   8.559
25738WAT     H277457   0.007   3.970   8.403
25739WAT      O77458   7.066   8.100   2.018
25739WAT     H177459   7.015   8.164   1.961
25739WAT     H277460   7.022   8.093   2.107
25740WAT      O77461   6.728   5.655   8.374
25740WAT     H177462   6.663   5.581   8.357
25740WAT     H277463   6.787   5.630   8.451
25741WAT      O77464   6.623   9.678   7.496
25741WAT     H177465   6.530   9.665   7.461
25741WAT     H277466   6.625   9.657   7.594
25742WAT      O77467   4.136   6.460   5.527
25742WAT     H177468   4.172   6.485   5.437
25742WAT     H277469   4.083   6.536   5.565
25743WAT      O77470   6.923   9.777   5.630
25743WAT     H177471   6.942   9.687   5.591
25743WAT     H277472   6.849   9.770   5.696
25744WAT      O77473   8.119   7.540   2.423
25744WAT     H177474   8.079   7.610   2.483
25744WAT     H277475   8.214   7.564   2.402
25745WAT      O77476   3.348   6.233   4.850
25745WAT     H177477   3.392   6.184   4.775
25745WAT     H277478   3.284   6.173   4.897
25746WAT      O77479   0.338   0.310   1.123
25746WAT     H177480   0.384   0.275   1.041
25746WAT     H277481   0.250   0.350   1.098
25747WAT      O77482   2.497   6.762   9.254
25747WAT     H177483   2.424   6.818   9.294
25747WAT     H277484   2.552   6.721   9.327
25748WAT      O77485   9.461   6.076   9.612
25748WAT     H177486   9.458   6.003   9.543
25748WAT     H277487   9.383   6.066   9.674
25749WAT      O77488   2.479   6.471   9.607
25749WAT     H177489   2.501   6.391   9.552
25749WAT     H277490   2.380   6.471   9.627
25750WAT      O77491   3.511   2.729   7.574
25750WAT     H177492   3.502   2.800   7.644
25750WAT     H277493   3.450   2.653   7.596
25751WAT      O77494   0.554   1.509   8.522
25751WAT     H177495   0.596   1.567   8.452
25751WAT     H277496   0.572   1.548   8.612
25752WAT      O77497   2.049   1.173   1.718
25752WAT     H177498   2.043   1.194   1.815
25752WAT     H277499   2.054   1.074   1.704
25753WAT      O77500   1.331   8.763   9.629
25753WAT     H177501   1.427   8.736   9.623
25753WAT     H277502   1.296   8.740   9.720
25754WAT      O77503   5.170   0.952   4.413
25754WAT     H177504   5.257   0.937   4.367
25754WAT     H277505   5.159   0.886   4.487
25755WAT      O77506   8.487   6.756   1.074
25755WAT     H177507   8.537   6.677   1.109
25755WAT     H277508   8.405   6.770   1.130
25756WAT      O77509   9.473   7.601   2.547
25756WAT     H177510   9.423   7.669   2.494
25756WAT     H277511   9.460   7.618   2.645
25757WAT      O77512   4.492   2.441   5.427
25757WAT     H177513   4.497   2.426   5.526
25757WAT     H277514   4.492   2.539   5.408
25758WAT      O77515   7.085   2.074   2.834
25758WAT     H177516   7.117   2.158   2.791
25758WAT     H277517   7.105   2.076   2.932
25759WAT      O77518   4.814   5.417   5.818
25759WAT     H177519   4.814   5.437   5.720
25759WAT     H277520   4.908   5.402   5.849
25760WAT      O77521   6.782   1.672   3.650
25760WAT     H177522   6.785   1.764   3.689
25760WAT     H277523   6.755   1.678   3.553
25761WAT      O77524   9.791   8.879   8.693
25761WAT     H177525   9.753   8.961   8.736
25761WAT     H277526   9.741   8.860   8.608
25762WAT      O77527   4.780   6.784   7.319
25762WAT     H177528   4.806   6.856   7.254
25762WAT     H277529   4.691   6.746   7.292
25763WAT      O77530   2.053   9.345   2.123
25763WAT     H177531   1.954   9.348   2.134
25763WAT     H277532   2.091   9.437   2.132
25764WAT      O77533   9.159   1.640   4.210
25764WAT     H177534   9.159   1.670   4.306
25764WAT     H277535   9.101   1.559   4.201
25765WAT      O77536   8.913   0.788   8.418
25765WAT     H177537   8.919   0.692   8.446
25765WAT     H277538   8.821   0.806   8.383
25766WAT      O77539   9.225   2.747   0.731
25766WAT     H177540   9.239   2.691   0.812
25766WAT     H277541   9.187   2.691   0.657
25767WAT      O77542   9.305   0.995   2.881
25767WAT     H177543   9.366   1.073   2.900
25767WAT     H277544   9.351   0.910   2.906
25768WAT      O77545   6.492   1.707   5.571
25768WAT     H177546   6.409   1.689   5.624
25768WAT     H277547   6.468   1.720   5.475
25769WAT      O77548   3.588   1.807   3.740
25769WAT     H177549   3.614   1.711   3.734
25769WAT     H277550   3.562   1.840   3.649
25770WAT      O77551   9.255   2.391   6.695
25770WAT     H177552   9.230   2.322   6.627
25770WAT     H277553   9.354   2.389   6.709
25771WAT      O77554   8.773   4.437   5.251
25771WAT     H177555   8.785   4.435   5.152
25771WAT     H277556   8.830   4.508   5.291
25772WAT      O77557   3.682   4.150   9.134
25772WAT     H177558   3.755   4.086   9.109
25772WAT     H277559   3.658   4.206   9.055
25773WAT      O77560   0.931   8.662   1.628
25773WAT     H177561   0.975   8.573   1.616
25773WAT     H277562   0.974   8.729   1.566
25774WAT      O77563   8.984   2.127   0.070
25774WAT     H177564   8.957   2.034   0.095
25774WAT     H277565   8.921   2.163   0.002
25775WAT      O77566   3.138   3.536   1.800
25775WAT     H177567   3.082   3.583   1.868
25775WAT     H277568   3.158   3.443   1.831
25776WAT      O77569   3.947   2.470   0.553
25776WAT     H177570   3.888   2.453   0.632
25776WAT     H277571   3.987   2.562   0.560
25777WAT      O77572   0.730   8.711   2.884
25777WAT     H177573   0.699   8.762   2.804
25777WAT     H277574   0.669   8.633   2.899
25778WAT      O77575   7.567   5.007   2.548
25778WAT     H177576   7.663   4.984   2.563
25778WAT     H277577   7.509   4.943   2.597
25779WAT      O77578   0.620   3.988   9.351
25779WAT     H177579   0.700   4.045   9.371
25779WAT     H277580   0.538   4.033   9.387
25780WAT      O77581   6.744   0.910   5.708
25780WAT     H177582   6.795   0.996   5.718
25780WAT     H277583   6.660   0.915   5.762
25781WAT      O77584   5.185   8.458   3.292
25781WAT     H177585   5.107   8.520   3.293
25781WAT     H277586   5.165   8.380   3.233
25782WAT      O77587   8.387   9.098   8.449
25782WAT     H177588   8.482   9.109   8.480
25782WAT     H277589   8.342   9.187   8.448
25783WAT      O77590   8.745   9.005   7.545
25783WAT     H177591   8.834   8.960   7.554
25783WAT     H277592   8.709   9.025   7.636
25784WAT      O77593   3.914   9.094   5.637
25784WAT     H177594   3.921   9.000   5.603
25784WAT     H277595   4.003   9.139   5.629
25785WAT      O77596   9.820   4.965   7.136
25785WAT     H177597   9.765   4.882   7.138
25785WAT     H277598   9.892   4.960   7.205
25786WAT      O77599   5.657   8.069   2.936
25786WAT     H177600   5.574   8.061   2.881
25786WAT     H277601   5.725   8.004   2.903
25787WAT      O77602   0.544   8.771   6.131
25787WAT     H177603   0.600   8.696   6.095
25787WAT     H277604   0.589   8.859   6.111
25788WAT      O77605   2.568   6.338   8.637
25788WAT     H177606   2.661   6.374   8.637
25788WAT     H277607   2.538   6.319   8.543
25789WAT      O77608   5.282   4.153   1.389
25789WAT     H177609   5.245   4.224   1.449
25789WAT     H277610   5.299   4.070   1.441
25790WAT      O77611   9.799   8.482   4.597
25790WAT     H177612   9.841   8.393   4.616
25790WAT     H277613   9.853   8.554   4.640
25791WAT      O77614   9.434   2.341   7.434
25791WAT     H177615   9.484   2.308   7.354
25791WAT     H277616   9.400   2.262   7.486
25792WAT      O77617   3.167   3.837   6.424
25792WAT     H177618   3.082   3.785   6.435
25792WAT     H277619   3.231   3.813   6.497
25793WAT      O77620   0.572   8.046   7.680
25793WAT     H177621   0.524   8.116   7.733
25793WAT     H277622   0.554   7.956   7.720
25794WAT      O77623   1.379   7.010   7.145
25794WAT     H177624   1.372   7.105   7.115
25794WAT     H277625   1.287   6.971   7.152
25795WAT      O77626   0.741   2.110   5.375
25795WAT     H177627   0.708   2.203   5.391
25795WAT     H277628   0.776   2.072   5.460
25796WAT      O77629   2.246   0.964   7.490
25796WAT     H177630   2.261   1.052   7.445
25796WAT     H277631   2.333   0.929   7.523
25797WAT      O77632   5.863   1.355   7.414
25797WAT     H177633   5.786   1.304   7.375
25797WAT     H277634   5.933   1.291   7.445
25798WAT      O77635   2.317   5.820   8.496
25798WAT     H177636   2.272   5.908   8.511
25798WAT     H277637   2.356   5.787   8.582
25799WAT      O77638   3.605   9.269   6.857
25799WAT     H177639   3.700   9.298   6.860
25799WAT     H277640   3.596   9.179   6.899
25800WAT      O77641   7.516   9.130   4.683
25800WAT     H177642   7.422   9.102   4.665
25800WAT     H277643   7.522   9.173   4.773
25801WAT      O77644   6.322   7.236   3.079
25801WAT     H177645   6.318   7.320   3.133
25801WAT     H277646   6.286   7.253   2.988
25802WAT      O77647   4.907   4.206   1.316
25802WAT     H177648   4.897   4.268   1.393
25802WAT     H277649   4.965   4.248   1.246
25803WAT      O77650   3.744   0.967   8.398
25803WAT     H177651   3.819   1.032   8.406
25803WAT     H277652   3.742   0.930   8.305
25804WAT      O77653   4.604   5.849   5.079
25804WAT     H177654   4.677   5.911   5.049
25804WAT     H277655   4.525   5.904   5.109
25805WAT      O77656   9.725   4.047   6.514
25805WAT     H177657   9.771   4.029   6.428
25805WAT     H277658   9.630   4.073   6.496
25806WAT      O77659   2.885   0.076   3.880
25806WAT     H177660   2.932   0.035   3.802
25806WAT     H277661   2.793   0.037   3.887
25807WAT      O77662   3.514   7.253   3.856
25807WAT     H177663   3.476   7.343   3.880
25807WAT     H277664   3.440   7.186   3.851
25808WAT      O77665   2.055   8.233   4.720
25808WAT     H177666   1.978   8.288   4.687
25808WAT     H277667   2.029   8.187   4.805
25809WAT      O77668   7.890   1.242   2.868
25809WAT     H177669   7.888   1.180   2.947
25809WAT     H277670   7.950   1.203   2.798
25810WAT      O77671   7.398   1.641   5.992
25810WAT     H177672   7.396   1.542   6.003
25810WAT     H277673   7.410   1.684   6.082
25811WAT      O77674   1.478   3.662   8.131
25811WAT     H177675   1.465   3.659   8.032
25811WAT     H277676   1.572   3.636   8.153
25812WAT      O77677   3.668   8.712   0.139
25812WAT     H177678   3.659   8.637   0.205
25812WAT     H277679   3.752   8.701   0.087
25813WAT      O77680   9.850   5.792   6.967
25813WAT     H177681   9.869   5.703   6.927
25813WAT     H277682   9.882   5.793   7.062
25814WAT      O77683   9.784   7.880   3.011
25814WAT     H177684   9.851   7.860   2.940
25814WAT     H277685   9.782   7.805   3.078
25815WAT      O77686   9.345   7.488   4.068
25815WAT     H177687   9.408   7.563   4.052
25815WAT     H277688   9.397   7.405   4.090
25816WAT      O77689   5.759   2.160   0.147
25816WAT     H177690   5.715   2.166   0.237
25816WAT     H277691   5.689   2.149   0.077
25817WAT      O77692   4.316   0.824   2.965
25817WAT     H177693   4.265   0.818   2.879
25817WAT     H277694   4.414   0.823   2.946
25818WAT      O77695   0.473   4.011   1.841
25818WAT     H177696   0.490   4.052   1.930
25818WAT     H277697   0.553   3.958   1.813
25819WAT      O77698   7.364   4.818   5.091
25819WAT     H177699   7.312   4.858   5.016
25819WAT     H277700   7.322   4.731   5.118
25820WAT      O77701   8.420   4.448   0.430
25820WAT     H177702   8.375   4.358   0.431
25820WAT     H277703   8.519   4.436   0.430
25821WAT      O77704   0.522   4.711   4.399
25821WAT     H177705   0.583   4.789   4.407
25821WAT     H277706   0.447   4.733   4.337
25822WAT      O77707   0.406   7.949   4.991
25822WAT     H177708   0.474   7.966   4.920
25822WAT     H277709   0.447   7.962   5.081
25823WAT      O77710   0.859   2.682   6.482
25823WAT     H177711   0.948   2.636   6.485
25823WAT     H277712   0.806   2.656   6.563
25824WAT      O77713   0.008   6.184   8.115
25824WAT     H177714  -0.087   6.163   8.091
25824WAT     H277715   0.058   6.208   8.032
25825WAT      O77716   4.788   7.377   1.824
25825WAT     H177717   4.794   7.345   1.729
25825WAT     H277718   4.876   7.361   1.870
25826WAT      O77719   4.463   4.357   7.132
25826WAT     H177720   4.377   4.380   7.177
25826WAT     H277721   4.518   4.440   7.121
25827WAT      O77722   6.417   3.109   2.946
25827WAT     H177723   6.355   3.136   3.019
25827WAT     H277724   6.424   3.182   2.878
25828WAT      O77725   3.033   7.758   5.887
25828WAT     H177726   2.993   7.710   5.809
25828WAT     H277727   3.133   7.757   5.879
25829WAT      O77728   9.772   9.805   1.565
25829WAT     H177729   9.867   9.781   1.584
25829WAT     H277730   9.749   9.779   1.471
25830WAT      O77731   7.968   0.321   9.546
25830WAT     H177732   8.047   0.310   9.486
25830WAT     H277733   7.933   0.231   9.573
25831WAT      O77734   3.237   3.229   8.146
25831WAT     H177735   3.215   3.205   8.240
25831WAT     H277736   3.295   3.157   8.106
25832WAT      O77737   0.976   0.930   2.558
25832WAT     H177738   1.050   0.896   2.500
25832WAT     H277739   0.895   0.872   2.547
25833WAT      O77740   9.617   0.766   5.904
25833WAT     H177741   9.531   0.809   5.876
25833WAT     H277742   9.636   0.789   5.999
25834WAT      O77743   0.261   9.069   9.501
25834WAT     H177744   0.270   9.168   9.492
25834WAT     H277745   0.259   9.027   9.411
25835WAT      O77746   7.926   9.805   9.097
25835WAT     H177747   7.939   9.904   9.091
25835WAT     H277748   7.849   9.777   9.040
25836WAT      O77749   9.220   3.125   7.004
25836WAT     H177750   9.201   3.149   7.099
25836WAT     H277751   9.202   3.027   6.990
25837WAT      O77752   6.208   8.617   2.293
25837WAT     H177753   6.224   8.680   2.370
25837WAT     H277754   6.226   8.523   2.323
25838WAT      O77755   2.824   6.786   7.004
25838WAT     H177756   2.919   6.768   7.031
25838WAT     H277757   2.778   6.838   7.076
25839WAT      O77758   6.669   6.755   6.831
25839WAT     H177759   6.658   6.656   6.823
25839WAT     H277760   6.666   6.781   6.927
25840WAT      O77761   8.824   9.415   5.179
25840WAT     H177762   8.795   9.339   5.121
25840WAT     H277763   8.880   9.381   5.254
25841WAT      O77764   1.950   3.762   8.343
25841WAT     H177765   1.898   3.828   8.288
25841WAT     H277766   1.887   3.699   8.387
25842WAT      O77767   4.775   7.047   5.314
25842WAT     H177768   4.821   7.069   5.400
25842WAT     H277769   4.792   6.951   5.291
25843WAT      O77770   1.448   0.112   9.747
25843WAT     H177771   1.394   0.180   9.796
25843WAT     H277772   1.409   0.021   9.761
25844WAT      O77773   3.707   9.723   2.970
25844WAT     H177774   3.738   9.629   2.958
25844WAT     H277775   3.616   9.734   2.930
25845WAT      O77776   1.041   8.154   3.130
25845WAT     H177777   1.059   8.247   3.097
25845WAT     H277778   1.112   8.092   3.095
25846WAT      O77779   2.617   1.241   6.884
25846WAT     H177780   2.606   1.330   6.929
25846WAT     H277781   2.575   1.244   6.794
25847WAT      O77782   7.482   7.947   8.577
25847WAT     H177783   7.424   8.026   8.555
25847WAT     H277784   7.524   7.961   8.667
25848WAT      O77785   0.867   2.565   9.217
25848WAT     H177786   0.811   2.628   9.164
25848WAT     H277787   0.948   2.540   9.163
25849WAT      O77788   5.600   1.293   1.060
25849WAT     H177789   5.616   1.224   0.990
25849WAT     H277790   5.663   1.369   1.047
25850WAT      O77791   4.581   5.668   2.424
25850WAT     H177792   4.506   5.610   2.456
25850WAT     H277793   4.629   5.707   2.503
25851WAT      O77794   2.798   7.030   4.369
25851WAT     H177795   2.892   6.997   4.369
25851WAT     H277796   2.775   7.064   4.278
25852WAT      O77797   1.634   3.358   9.597
25852WAT     H177798   1.708   3.325   9.539
25852WAT     H277799   1.605   3.285   9.658
25853WAT      O77800   4.717   8.151   5.808
25853WAT     H177801   4.797   8.144   5.748
25853WAT     H277802   4.715   8.072   5.870
25854WAT      O77803   7.251   4.658   0.656
25854WAT     H177804   7.187   4.584   0.674
25854WAT     H277805   7.201   4.739   0.625
25855WAT      O77806   7.314   2.550   7.817
25855WAT     H177807   7.226   2.590   7.844
25855WAT     H277808   7.385   2.576   7.882
25856WAT      O77809   2.920   0.723   6.070
25856WAT     H177810   2.907   0.634   6.113
25856WAT     H277811   2.985   0.777   6.123
25857WAT      O77812   2.540   0.818   7.125
25857WAT     H177813   2.465   0.757   7.152
25857WAT     H277814   2.504   0.908   7.104
25858WAT      O77815   3.633   1.675   2.141
25858WAT     H177816   3.635   1.768   2.104
25858WAT     H277817   3.711   1.662   2.202
25859WAT      O77818   5.528   9.637   4.401
25859WAT     H177819   5.504   9.552   4.449
25859WAT     H277820   5.626   9.636   4.380
25860WAT      O77821   4.882   7.769   2.200
25860WAT     H177822   4.906   7.677   2.169
25860WAT     H277823   4.852   7.766   2.295
25861WAT      O77824   7.301   6.778   7.937
25861WAT     H177825   7.306   6.685   7.899
25861WAT     H277826   7.308   6.844   7.863
25862WAT      O77827   3.123   3.369   2.141
25862WAT     H177828   3.188   3.349   2.068
25862WAT     H277829   3.030   3.372   2.103
25863WAT      O77830   2.825   9.092   7.713
25863WAT     H177831   2.730   9.060   7.713
25863WAT     H277832   2.872   9.055   7.632
25864WAT      O77833   1.551   6.310   9.417
25864WAT     H177834   1.506   6.224   9.440
25864WAT     H277835   1.489   6.386   9.436
25865WAT      O77836   1.274   6.666   8.671
25865WAT     H177837   1.177   6.658   8.693
25865WAT     H277838   1.293   6.758   8.635
25866WAT      O77839   5.014   0.580   0.136
25866WAT     H177840   4.927   0.629   0.132
25866WAT     H277841   5.087   0.645   0.158
25867WAT      O77842   6.848   4.297   9.600
25867WAT     H177843   6.918   4.345   9.549
25867WAT     H277844   6.823   4.350   9.681
25868WAT      O77845   1.757   2.209   6.283
25868WAT     H177846   1.741   2.170   6.374
25868WAT     H277847   1.676   2.197   6.226
25869WAT      O77848   3.500   1.877   3.010
25869WAT     H177849   3.509   1.795   3.067
25869WAT     H277850   3.417   1.926   3.036
25870WAT      O77851   7.136   0.121   7.968
25870WAT     H177852   7.070   0.149   7.898
25870WAT     H277853   7.141   0.021   7.972
25871WAT      O77854   7.221   8.648   6.456
25871WAT     H177855   7.140   8.683   6.503
25871WAT     H277856   7.238   8.703   6.374
25872WAT      O77857   0.925   2.384   2.039
25872WAT     H177858   0.943   2.452   1.967
25872WAT     H277859   0.848   2.327   2.010
25873WAT      O77860   8.802   1.694   6.585
25873WAT     H177861   8.864   1.623   6.618
25873WAT     H277862   8.731   1.712   6.654
25874WAT      O77863   3.053   1.348   7.582
25874WAT     H177864   3.137   1.383   7.625
25874WAT     H277865   3.008   1.422   7.532
25875WAT      O77866   2.313   6.797   0.753
25875WAT     H177867   2.367   6.793   0.669
25875WAT     H277868   2.360   6.852   0.821
25876WAT      O77869   0.193   9.094   3.019
25876WAT     H177870   0.249   9.059   2.944
25876WAT     H277871   0.112   9.037   3.031
25877WAT      O77872   0.615   0.605   7.002
25877WAT     H177873   0.584   0.536   7.067
25877WAT     H277874   0.651   0.559   6.920
25878WAT      O77875   6.905   4.414   9.079
25878WAT     H177876   6.856   4.498   9.103
25878WAT     H277877   6.853   4.365   9.009
25879WAT      O77878   3.098   3.869   4.244
25879WAT     H177879   3.022   3.808   4.269
25879WAT     H277880   3.071   3.924   4.164
25880WAT      O77881   1.057   5.807   3.912
25880WAT     H177882   1.077   5.746   3.989
25880WAT     H277883   1.063   5.902   3.942
25881WAT      O77884   5.901   2.514   5.922
25881WAT     H177885   5.984   2.482   5.877
25881WAT     H277886   5.848   2.436   5.955
25882WAT      O77887   5.844   6.058   7.131
25882WAT     H177888   5.752   6.097   7.141
25882WAT     H277889   5.907   6.104   7.193
25883WAT      O77890   3.412   1.499   2.936
25883WAT     H177891   3.339   1.554   2.896
25883WAT     H277892   3.447   1.545   3.018
25884WAT      O77893   4.485   9.024   4.384
25884WAT     H177894   4.539   8.939   4.380
25884WAT     H277895   4.546   9.102   4.370
25885WAT      O77896   9.445   6.564   2.097
25885WAT     H177897   9.400   6.545   2.184
25885WAT     H277898   9.539   6.529   2.100
25886WAT      O77899   6.884   8.621   9.256
25886WAT     H177900   6.798   8.654   9.295
25886WAT     H277901   6.865   8.568   9.173
25887WAT      O77902   3.673   3.756   6.186
25887WAT     H177903   3.579   3.753   6.220
25887WAT     H277904   3.673   3.792   6.093
25888WAT      O77905   3.740   6.494   0.240
25888WAT     H177906   3.669   6.525   0.304
25888WAT     H277907   3.716   6.404   0.205
25889WAT      O77908   7.775   7.742   9.155
25889WAT     H177909   7.702   7.809   9.141
25889WAT     H277910   7.761   7.694   9.242
25890WAT      O77911   0.613   2.348   9.855
25890WAT     H177912   0.634   2.271   9.795
25890WAT     H277913   0.592   2.428   9.799
25891WAT      O77914   7.554   9.569   8.766
25891WAT     H177915   7.481   9.627   8.730
25891WAT     H277916   7.521   9.517   8.845
25892WAT      O77917   1.671   5.261   9.027
25892WAT     H177918   1.679   5.201   8.947
25892WAT     H277919   1.576   5.290   9.037
25893WAT      O77920   4.341   4.117   2.685
25893WAT     H177921   4.321   4.194   2.625
25893WAT     H277922   4.352   4.149   2.778
25894WAT      O77923   4.409   2.679   3.672
25894WAT     H177924   4.484   2.628   3.630
25894WAT     H277925   4.337   2.615   3.699
25895WAT      O77926   3.516   3.697   0.956
25895WAT     H177927   3.485   3.611   0.997
25895WAT     H277928   3.585   3.678   0.886
25896WAT      O77929   6.857   5.332   1.220
25896WAT     H177930   6.887   5.253   1.166
25896WAT     H277931   6.843   5.411   1.160
25897WAT      O77932   7.785   7.306   5.966
25897WAT     H177933   7.845   7.243   6.015
25897WAT     H277934   7.758   7.265   5.878
25898WAT      O77935   3.901   1.296   5.942
25898WAT     H177936   3.884   1.391   5.914
25898WAT     H277937   3.845   1.274   6.022
25899WAT      O77938   9.309   9.800   6.603
25899WAT     H177939   9.353   9.710   6.601
25899WAT     H277940   9.346   9.857   6.530
25900WAT      O77941   2.130   4.876   8.764
25900WAT     H177942   2.056   4.828   8.716
25900WAT     H277943   2.097   4.967   8.792
25901WAT      O77944   4.611   8.361   1.404
25901WAT     H177945   4.574   8.318   1.486
25901WAT     H277946   4.699   8.404   1.425
25902WAT      O77947   4.113   3.587   7.156
25902WAT     H177948   4.096   3.685   7.168
25902WAT     H277949   4.081   3.537   7.237
25903WAT      O77950   9.385   8.790   5.959
25903WAT     H177951   9.287   8.795   5.944
25903WAT     H277952   9.407   8.820   6.052
25904WAT      O77953   4.222   5.287   3.138
25904WAT     H177954   4.161   5.361   3.166
25904WAT     H277955   4.299   5.281   3.202
25905WAT      O77956   9.690   2.659   8.352
25905WAT     H177957   9.790   2.666   8.348
25905WAT     H277958   9.651   2.673   8.261
25906WAT      O77959   8.859   3.790   3.768
25906WAT     H177960   8.816   3.744   3.845
25906WAT     H277961   8.950   3.752   3.753
25907WAT      O77962   8.011   4.790   4.538
25907WAT     H177963   8.093   4.844   4.555
25907WAT     H277964   7.959   4.781   4.623
25908WAT      O77965   8.780   6.871   3.635
25908WAT     H177966   8.842   6.854   3.712
25908WAT     H277967   8.725   6.789   3.619
25909WAT      O77968   6.067   2.255   9.078
25909WAT     H177969   6.117   2.169   9.087
25909WAT     H277970   6.132   2.330   9.071
25910WAT      O77971   1.692   7.667   9.527
25910WAT     H177972   1.653   7.585   9.485
25910WAT     H277973   1.636   7.694   9.605
25911WAT      O77974   6.926   6.188   0.917
25911WAT     H177975   6.885   6.120   0.977
25911WAT     H277976   6.869   6.270   0.914
25912WAT      O77977   4.720   4.653   1.109
25912WAT     H177978   4.695   4.750   1.101
25912WAT     H277979   4.706   4.623   1.203
25913WAT      O77980   1.023   9.473   0.992
25913WAT     H177981   1.035   9.437   0.899
25913WAT     H277982   0.952   9.422   1.039
25914WAT      O77983   0.356   6.801   6.734
25914WAT     H177984   0.320   6.730   6.673
25914WAT     H277985   0.304   6.885   6.720
25915WAT      O77986   6.727   4.704   5.899
25915WAT     H177987   6.736   4.706   5.998
25915WAT     H277988   6.631   4.693   5.874
25916WAT      O77989   4.377   8.796   8.844
25916WAT     H177990   4.341   8.749   8.764
25916WAT     H277991   4.395   8.729   8.917
25917WAT      O77992   5.061   9.248   9.645
25917WAT     H177993   5.001   9.274   9.720
25917WAT     H277994   5.094   9.331   9.599
25918WAT      O77995   8.731   8.750   9.308
25918WAT     H177996   8.789   8.761   9.228
25918WAT     H277997   8.673   8.670   9.296
25919WAT      O77998   5.145   1.580   2.292
25919WAT     H177999   5.182   1.537   2.209
25919WAT     H278000   5.123   1.675   2.274
25920WAT      O78001   8.787   7.359   1.328
25920WAT     H178002   8.835   7.425   1.385
25920WAT     H278003   8.848   7.284   1.305
25921WAT      O78004   3.876   5.977   1.470
25921WAT     H178005   3.834   5.898   1.515
25921WAT     H278006   3.915   5.949   1.382
25922WAT      O78007   8.949   2.459   4.480
25922WAT     H178008   8.920   2.466   4.576
25922WAT     H278009   8.874   2.422   4.426
25923WAT      O78010   3.273   6.276   5.407
25923WAT     H178011   3.298   6.373   5.413
25923WAT     H278012   3.299   6.229   5.492
25924WAT      O78013   2.017   6.015   9.586
25924WAT     H178014   1.969   6.035   9.672
25924WAT     H278015   2.058   6.098   9.550
25925WAT      O78016   4.454   6.362   4.849
25925WAT     H178017   4.381   6.319   4.795
25925WAT     H278018   4.480   6.448   4.807
25926WAT      O78019   5.058   5.591   9.586
25926WAT     H178020   5.002   5.510   9.569
25926WAT     H278021   5.109   5.614   9.503
25927WAT      O78022   4.375   8.679   4.513
25927WAT     H178023   4.346   8.714   4.602
25927WAT     H278024   4.299   8.628   4.471
25928WAT      O78025   0.596   5.375   7.531
25928WAT     H178026   0.657   5.296   7.541
25928WAT     H278027   0.501   5.344   7.536
25929WAT      O78028   4.978   4.438   8.329
25929WAT     H178029   5.016   4.354   8.367
25929WAT     H278030   4.905   4.471   8.389
25930WAT      O78031   4.071   3.449   0.530
25930WAT     H178032   4.051   3.478   0.437
25930WAT     H278033   4.133   3.515   0.573
25931WAT      O78034   0.807   9.082   1.515
25931WAT     H178035   0.707   9.076   1.518
25931WAT     H278036   0.840   9.046   1.428
25932WAT      O78037   3.438   0.758   4.164
25932WAT     H178038   3.434   0.825   4.238
25932WAT     H278039   3.480   0.673   4.196
25933WAT      O78040   7.928   2.738   4.505
25933WAT     H178041   7.940   2.831   4.473
25933WAT     H278042   7.956   2.732   4.601
25934WAT      O78043   9.684   6.737   3.986
25934WAT     H178044   9.589   6.743   3.957
25934WAT     H278045   9.743   6.775   3.915
25935WAT      O78046   9.215   7.973   8.982
25935WAT     H178047   9.222   7.900   8.913
25935WAT     H278048   9.179   8.056   8.940
25936WAT      O78049   4.212   6.488   3.101
25936WAT     H178050   4.178   6.581   3.114
25936WAT     H278051   4.311   6.491   3.086
25937WAT      O78052   3.064   0.157   3.359
25937WAT     H178053   3.080   0.229   3.426
25937WAT     H278054   3.150   0.110   3.339
25938WAT      O78055   0.042   9.708   4.235
25938WAT     H178056   0.084   9.768   4.167
25938WAT     H278057   0.113   9.672   4.296
25939WAT      O78058   6.847   9.161   7.088
25939WAT     H178059   6.916   9.167   7.159
25939WAT     H278060   6.842   9.067   7.054
25940WAT      O78061   5.698   6.574   1.329
25940WAT     H178062   5.641   6.617   1.399
25940WAT     H278063   5.772   6.523   1.373
25941WAT      O78064   8.963   4.951   0.417
25941WAT     H178065   8.993   4.976   0.325
25941WAT     H278066   8.870   4.916   0.413
25942WAT      O78067   8.768   4.178   2.343
25942WAT     H178068   8.730   4.178   2.250
25942WAT     H278069   8.823   4.260   2.357
25943WAT      O78070   2.929   2.991   0.756
25943WAT     H178071   2.832   2.997   0.778
25943WAT     H278072   2.942   2.923   0.683
25944WAT      O78073   8.375   9.208   4.652
25944WAT     H178074   8.383   9.308   4.657
25944WAT     H278075   8.356   9.180   4.558
25945WAT      O78076   6.024   2.014   3.566
25945WAT     H178077   5.964   2.061   3.502
25945WAT     H278078   5.969   1.974   3.640
25946WAT      O78079   3.667   6.881   1.105
25946WAT     H178080   3.762   6.881   1.138
25946WAT     H278081   3.660   6.936   1.022
25947WAT      O78082   3.703   9.817   5.118
25947WAT     H178083   3.731   9.722   5.103
25947WAT     H278084   3.648   9.847   5.041
25948WAT      O78085   6.101   6.066   5.878
25948WAT     H178086   6.102   6.108   5.969
25948WAT     H278087   6.066   6.132   5.811
25949WAT      O78088   6.825   9.131   1.132
25949WAT     H178089   6.856   9.174   1.047
25949WAT     H278090   6.726   9.138   1.139
25950WAT      O78091   7.598   8.662   6.134
25950WAT     H178092   7.605   8.719   6.216
25950WAT     H278093   7.689   8.648   6.096
25951WAT      O78094   9.883   4.541   2.190
25951WAT     H178095   9.950   4.598   2.142
25951WAT     H278096   9.840   4.478   2.126
25952WAT      O78097   1.617   4.871   6.618
25952WAT     H178098   1.668   4.949   6.582
25952WAT     H278099   1.637   4.861   6.715
25953WAT      O78100   5.412   9.730   0.507
25953WAT     H178101   5.505   9.717   0.543
25953WAT     H278102   5.374   9.816   0.543
25954WAT      O78103   2.948   9.757   2.839
25954WAT     H178104   2.996   9.832   2.886
25954WAT     H278105   2.850   9.762   2.858
25955WAT      O78106   0.171   6.873   3.063
25955WAT     H178107   0.125   6.804   3.118
25955WAT     H278108   0.104   6.939   3.030
25956WAT      O78109   1.917   3.825   7.048
25956WAT     H178110   1.987   3.896   7.055
25956WAT     H278111   1.877   3.827   6.957
25957WAT      O78112   3.866   3.602   2.936
25957WAT     H178113   3.852   3.696   2.967
25957WAT     H278114   3.959   3.572   2.959
25958WAT      O78115   8.261   1.819   0.007
25958WAT     H178116   8.282   1.910  -0.029
25958WAT     H278117   8.250   1.755  -0.069
25959WAT      O78118   2.585   3.294   7.537
25959WAT     H178119   2.527   3.235   7.594
25959WAT     H278120   2.587   3.259   7.444
25960WAT      O78121   3.779   2.410   0.339
25960WAT     H178122   3.831   2.455   0.411
25960WAT     H278123   3.681   2.431   0.350
25961WAT      O78124   9.240   4.406   3.374
25961WAT     H178125   9.229   4.478   3.305
25961WAT     H278126   9.321   4.352   3.352
25962WAT      O78127   7.926   1.078   8.099
25962WAT     H178128   7.860   1.147   8.067
25962WAT     H278129   7.877   1.007   8.150
25963WAT      O78130   5.764   5.689   9.014
25963WAT     H178131   5.683   5.708   9.070
25963WAT     H278132   5.769   5.591   8.996
25964WAT      O78133   8.826   6.426   8.990
25964WAT     H178134   8.779   6.341   9.014
25964WAT     H278135   8.922   6.407   8.970
25965WAT      O78136   8.505   9.191   0.376
25965WAT     H178137   8.588   9.146   0.343
25965WAT     H278138   8.442   9.121   0.411
25966WAT      O78139   2.784   8.681   7.206
25966WAT     H178140   2.833   8.625   7.273
25966WAT     H278141   2.692   8.643   7.193
25967WAT      O78142   5.175   8.339   2.070
25967WAT     H178143   5.079   8.314   2.085
25967WAT     H278144   5.232   8.257   2.080
25968WAT      O78145   9.710   0.584   9.068
25968WAT     H178146   9.702   0.512   8.999
25968WAT     H278147   9.666   0.555   9.153
25969WAT      O78148   4.662   6.997   8.573
25969WAT     H178149   4.713   6.990   8.659
25969WAT     H278150   4.634   7.092   8.559
25970WAT      O78151   9.680   0.882   3.561
25970WAT     H178152   9.706   0.886   3.464
25970WAT     H278153   9.730   0.952   3.612
25971WAT      O78154   5.479   0.854   1.034
25971WAT     H178155   5.456   0.938   1.084
25971WAT     H278156   5.506   0.784   1.100
25972WAT      O78157   3.621   2.994   7.089
25972WAT     H178158   3.558   2.928   7.047
25972WAT     H278159   3.591   3.014   7.182
25973WAT      O78160   0.668   8.889   3.216
25973WAT     H178161   0.569   8.883   3.198
25973WAT     H278162   0.699   8.982   3.199
25974WAT      O78163   5.092   1.434   6.713
25974WAT     H178164   5.140   1.470   6.632
25974WAT     H278165   5.020   1.372   6.684
25975WAT      O78166   2.087   6.066   1.871
25975WAT     H178167   2.109   5.990   1.934
25975WAT     H278168   2.081   6.031   1.778
25976WAT      O78169   8.843   8.872   2.242
25976WAT     H178170   8.788   8.802   2.196
25976WAT     H278171   8.841   8.957   2.189
25977WAT      O78172   8.245   3.906   2.835
25977WAT     H178173   8.254   3.871   2.928
25977WAT     H278174   8.327   3.957   2.810
25978WAT      O78175   9.525   5.479   0.894
25978WAT     H178176   9.433   5.441   0.896
25978WAT     H278177   9.592   5.406   0.884
25979WAT      O78178   2.440   8.101   4.335
25979WAT     H178179   2.523   8.144   4.301
25979WAT     H278180   2.393   8.163   4.397
25980WAT      O78181   1.012   6.407   2.978
25980WAT     H178182   1.022   6.320   2.930
25980WAT     H278183   1.011   6.482   2.913
25981WAT      O78184   7.425   7.463   2.776
25981WAT     H178185   7.376   7.453   2.690
25981WAT     H278186   7.362   7.493   2.847
25982WAT      O78187   8.237   6.158   2.907
25982WAT     H178188   8.274   6.065   2.901
25982WAT     H278189   8.157   6.158   2.966
25983WAT      O78190   2.082   0.114   8.393
25983WAT     H178191   2.139   0.095   8.313
25983WAT     H278192   2.087   0.211   8.416
25984WAT      O78193   8.100   9.700   7.005
25984WAT     H178194   8.094   9.620   6.945
25984WAT     H278195   8.009   9.734   7.025
25985WAT      O78196   4.125   0.509   4.314
25985WAT     H178197   4.079   0.513   4.403
25985WAT     H278198   4.190   0.433   4.313
25986WAT      O78199   7.982   5.246   2.045
25986WAT     H178200   7.962   5.264   1.948
25986WAT     H278201   8.058   5.180   2.051
25987WAT      O78202   2.993   3.708   1.581
25987WAT     H178203   3.001   3.805   1.558
25987WAT     H278204   3.043   3.653   1.515
25988WAT      O78205   7.020   6.865   8.136
25988WAT     H178206   7.088   6.795   8.115
25988WAT     H278207   7.034   6.945   8.078
25989WAT      O78208   1.569   4.034   9.628
25989WAT     H178209   1.564   3.936   9.647
25989WAT     H278210   1.602   4.081   9.710
25990WAT      O78211   9.768   9.298   2.160
25990WAT     H178212   9.694   9.263   2.103
25990WAT     H278213   9.855   9.290   2.110
25991WAT      O78214   4.945   3.405   5.033
25991WAT     H178215   4.958   3.445   5.124
25991WAT     H278216   4.976   3.470   4.964
25992WAT      O78217   8.970   2.725   7.664
25992WAT     H178218   9.013   2.692   7.748
25992WAT     H278219   8.951   2.648   7.603
25993WAT      O78220   6.681   3.847   9.544
25993WAT     H178221   6.751   3.804   9.601
25993WAT     H278222   6.725   3.914   9.483
25994WAT      O78223   6.046   3.516   4.506
25994WAT     H178224   6.130   3.463   4.499
25994WAT     H278225   6.062   3.609   4.474
25995WAT      O78226   8.465   9.795   5.061
25995WAT     H178227   8.373   9.756   5.065
25995WAT     H278228   8.528   9.728   5.021
25996WAT      O78229   1.634   1.710   4.867
25996WAT     H178230   1.722   1.743   4.903
25996WAT     H278231   1.627   1.733   4.770
25997WAT      O78232   1.182   3.397   9.669
25997WAT     H178233   1.178   3.480   9.615
25997WAT     H278234   1.097   3.345   9.658
25998WAT      O78235   8.257   5.544   1.795
25998WAT     H178236   8.354   5.546   1.771
25998WAT     H278237   8.223   5.450   1.788
25999WAT      O78238   4.502   8.297   2.948
25999WAT     H178239   4.471   8.210   2.911
25999WAT     H278240   4.448   8.321   3.028
26000WAT      O78241   5.494   1.663   5.888
26000WAT     H178242   5.507   1.582   5.831
26000WAT     H278243   5.419   1.647   5.952
26001WAT      O78244   4.117   9.009   7.740
26001WAT     H178245   4.026   9.050   7.729
26001WAT     H278246   4.116   8.916   7.702
26002WAT      O78247   4.652   3.479   8.091
26002WAT     H178248   4.691   3.404   8.145
26002WAT     H278249   4.572   3.516   8.138
26003WAT      O78250   9.583   1.478   4.769
26003WAT     H178251   9.556   1.390   4.731
26003WAT     H278252   9.606   1.541   4.694
26004WAT      O78253   3.691   6.971   0.492
26004WAT     H178254   3.607   6.916   0.486
26004WAT     H278255   3.679   7.056   0.440
26005WAT      O78256   4.892   1.916   3.226
26005WAT     H178257   4.930   1.864   3.149
26005WAT     H278258   4.905   1.864   3.311
26006WAT      O78259   1.339   0.922   6.860
26006WAT     H178260   1.261   0.866   6.831
26006WAT     H278261   1.332   0.941   6.958
26007WAT      O78262   6.859   0.976   1.581
26007WAT     H178263   6.762   0.964   1.560
26007WAT     H278264   6.870   1.037   1.659
26008WAT      O78265   2.204   4.970   4.536
26008WAT     H178266   2.297   4.954   4.569
26008WAT     H278267   2.201   4.957   4.437
26009WAT      O78268   5.281   0.372   6.014
26009WAT     H178269   5.193   0.344   6.053
26009WAT     H278270   5.355   0.341   6.073
26010WAT      O78271   2.888   4.265   8.554
26010WAT     H178272   2.942   4.349   8.540
26010WAT     H278273   2.909   4.227   8.643
26011WAT      O78274   2.601   4.749   3.770
26011WAT     H178275   2.648   4.736   3.858
26011WAT     H278276   2.609   4.665   3.716
26012WAT      O78277   7.580   3.694   0.385
26012WAT     H178278   7.657   3.682   0.448
26012WAT     H278279   7.541   3.786   0.397
26013WAT      O78280   7.646   0.695   2.730
26013WAT     H178281   7.580   0.679   2.656
26013WAT     H278282   7.739   0.688   2.694
26014WAT      O78283   5.856   4.915   8.854
26014WAT     H178284   5.860   4.933   8.755
26014WAT     H278285   5.796   4.837   8.871
26015WAT      O78286   2.731   4.025   5.057
26015WAT     H178287   2.757   3.955   4.990
26015WAT     H278288   2.650   4.073   5.024
26016WAT      O78289   3.123   7.320   2.440
26016WAT     H178290   3.066   7.381   2.494
26016WAT     H278291   3.125   7.229   2.482
26017WAT      O78292   6.412   4.183   1.121
26017WAT     H178293   6.344   4.247   1.158
26017WAT     H278294   6.369   4.093   1.109
26018WAT      O78295   7.988   5.593   1.810
26018WAT     H178296   7.949   5.591   1.902
26018WAT     H278297   8.086   5.578   1.814
26019WAT      O78298   3.909   8.766   3.257
26019WAT     H178299   3.818   8.801   3.235
26019WAT     H278300   3.979   8.819   3.209
26020WAT      O78301   6.193   5.279   2.513
26020WAT     H178302   6.123   5.293   2.444
26020WAT     H278303   6.167   5.202   2.572
26021WAT      O78304   0.160   4.332   1.947
26021WAT     H178305   0.175   4.429   1.926
26021WAT     H278306   0.210   4.275   1.882
26022WAT      O78307   0.859   6.931   3.488
26022WAT     H178308   0.905   6.855   3.534
26022WAT     H278309   0.876   7.016   3.539
26023WAT      O78310   7.824   0.026   1.872
26023WAT     H178311   7.848  -0.065   1.839
26023WAT     H278312   7.741   0.057   1.825
26024WAT      O78313   4.093   1.765   8.289
26024WAT     H178314   4.103   1.862   8.265
26024WAT     H278315   4.057   1.756   8.382
26025WAT      O78316   3.491   5.341   2.631
26025WAT     H178317   3.525   5.318   2.723
26025WAT     H278318   3.459   5.436   2.630
26026WAT      O78319   2.153   5.921   0.937
26026WAT     H178320   2.063   5.935   0.980
26026WAT     H278321   2.224   5.957   0.998
26027WAT      O78322   9.175   5.554   6.887
26027WAT     H178323   9.199   5.648   6.865
26027WAT     H278324   9.258   5.503   6.909
26028WAT      O78325   5.769   3.771   9.110
26028WAT     H178326   5.835   3.698   9.096
26028WAT     H278327   5.701   3.743   9.178
26029WAT      O78328   7.045   3.830   1.354
26029WAT     H178329   7.104   3.750   1.351
26029WAT     H278330   7.062   3.887   1.274
26030WAT      O78331   8.793   7.950   1.728
26030WAT     H178332   8.812   7.853   1.712
26030WAT     H278333   8.698   7.960   1.759
26031WAT      O78334   8.290   3.567   5.724
26031WAT     H178335   8.273   3.638   5.792
26031WAT     H278336   8.220   3.496   5.731
26032WAT      O78337   2.044   3.074   1.807
26032WAT     H178338   2.138   3.039   1.817
26032WAT     H278339   1.980   2.997   1.808
26033WAT      O78340   2.359   4.632   1.442
26033WAT     H178341   2.415   4.561   1.398
26033WAT     H278342   2.348   4.609   1.539
26034WAT      O78343   8.220   4.651   2.151
26034WAT     H178344   8.295   4.715   2.163
26034WAT     H278345   8.225   4.610   2.060
26035WAT      O78346   8.409   0.548   2.883
26035WAT     H178347   8.452   0.565   2.972
26035WAT     H278348   8.322   0.596   2.878
26036WAT      O78349   3.613   5.578   7.725
26036WAT     H178350   3.652   5.488   7.710
26036WAT     H278351   3.567   5.580   7.814
26037WAT      O78352   4.284   0.034   0.366
26037WAT     H178353   4.199  -0.008   0.334
26037WAT     H278354   4.280   0.043   0.466
26038WAT      O78355   5.686   8.586   5.276
26038WAT     H178356   5.671   8.504   5.221
26038WAT     H278357   5.598   8.629   5.297
26039WAT      O78358   0.053   1.885   3.067
26039WAT     H178359   0.139   1.882   3.016
26039WAT     H278360   0.050   1.808   3.131
26040WAT      O78361   2.281   9.305   0.700
26040WAT     H178362   2.276   9.403   0.681
26040WAT     H278363   2.375   9.274   0.688
26041WAT      O78364   9.581   2.437   2.909
26041WAT     H178365   9.489   2.475   2.898
26041WAT     H278366   9.648   2.511   2.911
26042WAT      O78367   9.287   0.491   7.038
26042WAT     H178368   9.318   0.583   7.061
26042WAT     H278369   9.365   0.429   7.038
26043WAT      O78370   8.357   5.681   4.367
26043WAT     H178371   8.345   5.611   4.296
26043WAT     H278372   8.268   5.714   4.397
26044WAT      O78373   4.504   3.066   0.946
26044WAT     H178374   4.527   2.974   0.976
26044WAT     H278375   4.517   3.130   1.021
26045WAT      O78376   8.135   8.305   0.777
26045WAT     H178377   8.178   8.393   0.754
26045WAT     H278378   8.207   8.236   0.792
26046WAT      O78379   4.954   5.493   5.151
26046WAT     H178380   5.000   5.581   5.162
26046WAT     H278381   4.966   5.438   5.234
26047WAT      O78382   0.711   9.251   9.011
26047WAT     H178383   0.715   9.219   9.106
26047WAT     H278384   0.615   9.264   8.984
26048WAT      O78385   0.890   9.490   7.883
26048WAT     H178386   0.986   9.480   7.857
26048WAT     H278387   0.838   9.526   7.805
26049WAT      O78388   8.812   2.217   4.675
26049WAT     H178389   8.751   2.231   4.597
26049WAT     H278390   8.872   2.139   4.658
26050WAT      O78391   8.798   7.072   7.327
26050WAT     H178392   8.706   7.054   7.292
26050WAT     H278393   8.855   6.991   7.313
26051WAT      O78394   4.480   1.812   0.383
26051WAT     H178395   4.466   1.747   0.308
26051WAT     H278396   4.525   1.767   0.459
26052WAT      O78397   8.194   6.155   7.231
26052WAT     H178398   8.170   6.252   7.244
26052WAT     H278399   8.143   6.119   7.153
26053WAT      O78400   2.376   3.338   0.598
26053WAT     H178401   2.378   3.427   0.643
26053WAT     H278402   2.465   3.294   0.607
26054WAT      O78403   2.264   3.379   1.719
26054WAT     H178404   2.246   3.435   1.800
26054WAT     H278405   2.325   3.430   1.658
26055WAT      O78406   8.809   2.212   9.791
26055WAT     H178407   8.761   2.129   9.819
26055WAT     H278408   8.761   2.292   9.824
26056WAT      O78409   3.230   5.943   8.624
26056WAT     H178410   3.270   6.017   8.570
26056WAT     H278411   3.243   5.856   8.575
26057WAT      O78412   3.759   2.507   6.134
26057WAT     H178413   3.797   2.599   6.141
26057WAT     H278414   3.754   2.466   6.225
26058WAT      O78415   3.358   1.702   1.181
26058WAT     H178416   3.431   1.762   1.213
26058WAT     H278417   3.269   1.740   1.207
26059WAT      O78418   1.211   0.123   2.500
26059WAT     H178419   1.169   0.042   2.459
26059WAT     H278420   1.260   0.174   2.429
26060WAT      O78421   5.120   3.005   8.981
26060WAT     H178422   5.181   2.942   9.029
26060WAT     H278423   5.036   2.957   8.955
26061WAT      O78424   8.959   7.648   6.989
26061WAT     H178425   9.004   7.599   7.063
26061WAT     H278426   9.028   7.690   6.929
26062WAT      O78427   0.383   8.128   2.726
26062WAT     H178428   0.307   8.109   2.664
26062WAT     H278429   0.469   8.130   2.674
26063WAT      O78430   2.155   2.013   8.598
26063WAT     H178431   2.245   2.056   8.605
26063WAT     H278432   2.135   1.991   8.503
26064WAT      O78433   0.484   5.582   8.529
26064WAT     H178434   0.473   5.484   8.512
26064WAT     H278435   0.393   5.624   8.538
26065WAT      O78436   1.547   3.821   3.715
26065WAT     H178437   1.521   3.812   3.619
26065WAT     H278438   1.625   3.883   3.722
26066WAT      O78439   5.654   1.633   6.304
26066WAT     H178440   5.596   1.562   6.264
26066WAT     H278441   5.603   1.719   6.310
26067WAT      O78442   5.152   8.775   2.955
26067WAT     H178443   5.125   8.680   2.934
26067WAT     H278444   5.072   8.827   2.983
26068WAT      O78445   6.246   6.607   8.968
26068WAT     H178446   6.160   6.599   8.918
26068WAT     H278447   6.290   6.518   8.973
26069WAT      O78448   5.494   4.121   9.689
26069WAT     H178449   5.528   4.168   9.608
26069WAT     H278450   5.395   4.111   9.683
26070WAT      O78451   1.268   9.442   7.127
26070WAT     H178452   1.268   9.360   7.183
26070WAT     H278453   1.204   9.432   7.052
26071WAT      O78454   0.180   2.335   4.706
26071WAT     H178455   0.137   2.366   4.791
26071WAT     H278456   0.235   2.254   4.724
26072WAT      O78457   2.529   1.303   4.832
26072WAT     H178458   2.524   1.232   4.902
26072WAT     H278459   2.523   1.393   4.875
26073WAT      O78460   8.596   5.054   8.666
26073WAT     H178461   8.611   5.007   8.753
26073WAT     H278462   8.592   4.988   8.592
26074WAT      O78463   2.421   8.222   8.098
26074WAT     H178464   2.438   8.241   8.001
26074WAT     H278465   2.452   8.130   8.120
26075WAT      O78466   1.111   1.194   6.496
26075WAT     H178467   1.015   1.206   6.523
26075WAT     H278468   1.171   1.229   6.568
26076WAT      O78469   7.014   8.299   0.400
26076WAT     H178470   7.009   8.200   0.416
26076WAT     H278471   7.073   8.317   0.322
26077WAT      O78472   4.829   1.993   8.411
26077WAT     H178473   4.929   1.995   8.404
26077WAT     H278474   4.790   1.966   8.323
26078WAT      O78475   5.359   6.156   2.281
26078WAT     H178476   5.424   6.224   2.315
26078WAT     H278477   5.334   6.094   2.356
26079WAT      O78478   9.014   3.928   9.432
26079WAT     H178479   9.106   3.891   9.444
26079WAT     H278480   8.958   3.904   9.512
26080WAT      O78481   5.405   8.186   5.605
26080WAT     H178482   5.381   8.172   5.701
26080WAT     H278483   5.357   8.118   5.548
26081WAT      O78484   5.810   9.336   5.508
26081WAT     H178485   5.841   9.363   5.599
26081WAT     H278486   5.864   9.258   5.476
26082WAT      O78487   4.817   7.733   4.573
26082WAT     H178488   4.739   7.734   4.510
26082WAT     H278489   4.899   7.764   4.525
26083WAT      O78490   4.060   6.045   2.482
26083WAT     H178491   4.023   6.048   2.389
26083WAT     H278492   4.029   5.962   2.528
26084WAT      O78493   1.329   6.934   3.312
26084WAT     H178494   1.355   6.955   3.407
26084WAT     H278495   1.378   6.996   3.251
26085WAT      O78496   6.894   7.679   1.405
26085WAT     H178497   6.858   7.593   1.443
26085WAT     H278498   6.895   7.749   1.476
26086WAT      O78499   1.198   0.540   1.401
26086WAT     H178500   1.157   0.528   1.311
26086WAT     H278501   1.177   0.461   1.458
26087WAT      O78502   0.731   1.960   2.479
26087WAT     H178503   0.724   1.935   2.576
26087WAT     H278504   0.655   1.920   2.428
26088WAT      O78505   3.832   1.187   7.339
26088WAT     H178506   3.917   1.186   7.392
26088WAT     H278507   3.852   1.210   7.244
26089WAT      O78508   8.330   6.084   3.600
26089WAT     H178509   8.269   6.117   3.528
26089WAT     H278510   8.417   6.055   3.559
26090WAT      O78511   9.862   7.829   2.370
26090WAT     H178512   9.933   7.897   2.392
26090WAT     H278513   9.901   7.737   2.378
26091WAT      O78514   8.101   7.656   4.967
26091WAT     H178515   8.127   7.584   4.903
26091WAT     H278516   8.157   7.649   5.050
26092WAT      O78517   5.825   2.361   1.305
26092WAT     H178518   5.889   2.419   1.253
26092WAT     H278519   5.732   2.394   1.292
26093WAT      O78520   4.548   6.363   6.682
26093WAT     H178521   4.455   6.327   6.694
26093WAT     H278522   4.614   6.293   6.710
26094WAT      O78523   1.799   0.309   9.202
26094WAT     H178524   1.712   0.356   9.188
26094WAT     H278525   1.796   0.220   9.156
26095WAT      O78526   0.821   1.382   8.894
26095WAT     H178527   0.773   1.303   8.858
26095WAT     H278528   0.901   1.402   8.838
26096WAT      O78529   4.809   2.984   0.400
26096WAT     H178530   4.715   2.982   0.366
26096WAT     H278531   4.808   2.994   0.499
26097WAT      O78532   8.931   9.401   7.303
26097WAT     H178533   8.923   9.500   7.308
26097WAT     H278534   8.989   9.368   7.377
26098WAT      O78535   9.727   9.775   5.025
26098WAT     H178536   9.786   9.847   5.061
26098WAT     H278537   9.691   9.720   5.100
26099WAT      O78538   6.791   0.205   3.084
26099WAT     H178539   6.889   0.212   3.065
26099WAT     H278540   6.757   0.118   3.047
26100WAT      O78541   4.446   6.565   1.139
26100WAT     H178542   4.537   6.606   1.132
26100WAT     H278543   4.395   6.613   1.211
26101WAT      O78544   5.208   9.528   3.371
26101WAT     H178545   5.294   9.557   3.328
26101WAT     H278546   5.177   9.599   3.434
26102WAT      O78547   1.531   5.557   8.541
26102WAT     H178548   1.548   5.515   8.630
26102WAT     H278549   1.596   5.632   8.526
26103WAT      O78550   0.783   6.490   1.050
26103WAT     H178551   0.793   6.399   1.090
26103WAT     H278552   0.873   6.528   1.031
26104WAT      O78553   6.683   5.293   4.593
26104WAT     H178554   6.591   5.316   4.624
26104WAT     H278555   6.727   5.234   4.660
26105WAT      O78556   6.644   4.582   3.927
26105WAT     H178557   6.694   4.496   3.924
26105WAT     H278558   6.624   4.612   3.833
26106WAT      O78559   2.675   1.885   3.525
26106WAT     H178560   2.639   1.917   3.437
26106WAT     H278561   2.706   1.964   3.579
26107WAT      O78562   5.745   6.496   9.546
26107WAT     H178563   5.806   6.540   9.613
26107WAT     H278564   5.779   6.404   9.527
26108WAT      O78565   6.298   8.448   7.217
26108WAT     H178566   6.270   8.532   7.170
26108WAT     H278567   6.388   8.462   7.259
26109WAT      O78568   7.519   3.394   6.392
26109WAT     H178569   7.619   3.398   6.394
26109WAT     H278570   7.482   3.427   6.479
26110WAT      O78571   0.328   2.708   4.052
26110WAT     H178572   0.303   2.741   4.143
26110WAT     H278573   0.352   2.611   4.057
26111WAT      O78574   1.090   5.244   4.501
26111WAT     H178575   1.179   5.254   4.457
26111WAT     H278576   1.031   5.187   4.443
26112WAT      O78577   4.840   3.610   5.566
26112WAT     H178578   4.789   3.690   5.597
26112WAT     H278579   4.790   3.527   5.588
26113WAT      O78580   8.234   0.873   3.343
26113WAT     H178581   8.205   0.872   3.439
26113WAT     H278582   8.190   0.949   3.296
26114WAT      O78583   9.814   7.299   0.584
26114WAT     H178584   9.756   7.232   0.539
26114WAT     H278585   9.896   7.254   0.620
26115WAT      O78586   4.581   7.792   2.025
26115WAT     H178587   4.666   7.768   1.977
26115WAT     H278588   4.513   7.720   2.012
26116WAT      O78589   3.220   0.990   5.941
26116WAT     H178590   3.269   1.041   5.869
26116WAT     H278591   3.266   0.903   5.957
26117WAT      O78592   9.392   9.031   7.844
26117WAT     H178593   9.391   8.948   7.900
26117WAT     H278594   9.476   9.083   7.863
26118WAT      O78595   6.622   5.295   8.802
26118WAT     H178596   6.655   5.354   8.876
26118WAT     H278597   6.688   5.298   8.726
26119WAT      O78598   5.508   1.996   9.362
26119WAT     H178599   5.462   1.941   9.292
26119WAT     H278600   5.441   2.056   9.406
26120WAT      O78601   1.893   5.940   0.162
26120WAT     H178602   1.910   5.902   0.252
26120WAT     H278603   1.877   5.866   0.097
26121WAT      O78604   8.289   6.082   4.759
26121WAT     H178605   8.272   6.146   4.834
26121WAT     H278606   8.387   6.062   4.754
26122WAT      O78607   0.232   3.733   7.870
26122WAT     H178608   0.184   3.654   7.909
26122WAT     H278609   0.224   3.811   7.932
26123WAT      O78610   3.574   0.325   5.482
26123WAT     H178611   3.510   0.385   5.435
26123WAT     H278612   3.586   0.241   5.429
26124WAT      O78613   0.784   2.342   9.616
26124WAT     H178614   0.766   2.440   9.608
26124WAT     H278615   0.704   2.291   9.584
26125WAT      O78616   1.451   2.029   3.010
26125WAT     H178617   1.539   2.076   3.016
26125WAT     H278618   1.463   1.932   3.033
26126WAT      O78619   8.546   0.133   1.252
26126WAT     H178620   8.609   0.197   1.295
26126WAT     H278621   8.525   0.165   1.160
26127WAT      O78622   1.321   3.006   9.467
26127WAT     H178623   1.277   2.976   9.551
26127WAT     H278624   1.356   3.099   9.478
26128WAT      O78625   3.739   4.662   2.121
26128WAT     H178626   3.779   4.635   2.209
26128WAT     H278627   3.657   4.607   2.103
26129WAT      O78628   0.843   4.091   5.117
26129WAT     H178629   0.898   4.167   5.083
26129WAT     H278630   0.879   4.005   5.080
26130WAT      O78631   3.821   3.234   7.635
26130WAT     H178632   3.841   3.305   7.703
26130WAT     H278633   3.830   3.272   7.543
26131WAT      O78634   4.635   7.706   5.861
26131WAT     H178635   4.555   7.727   5.804
26131WAT     H278636   4.604   7.683   5.954
26132WAT      O78637   3.890   2.416   4.758
26132WAT     H178638   3.864   2.362   4.679
26132WAT     H278639   3.877   2.513   4.738
26133WAT      O78640   8.361   4.477   1.542
26133WAT     H178641   8.431   4.421   1.586
26133WAT     H278642   8.404   4.558   1.501
26134WAT      O78643   6.675   3.296   2.431
26134WAT     H178644   6.687   3.277   2.528
26134WAT     H278645   6.605   3.236   2.393
26135WAT      O78646   3.364   3.354   9.833
26135WAT     H178647   3.456   3.324   9.854
26135WAT     H278648   3.307   3.352   9.915
26136WAT      O78649   8.617   0.267   8.413
26136WAT     H178650   8.683   0.208   8.365
26136WAT     H278651   8.616   0.244   8.510
26137WAT      O78652   7.934   2.420   7.801
26137WAT     H178653   7.953   2.505   7.752
26137WAT     H278654   8.012   2.398   7.860
26138WAT      O78655   0.956   3.369   4.363
26138WAT     H178656   0.972   3.396   4.268
26138WAT     H278657   0.998   3.279   4.380
26139WAT      O78658   5.342   5.405   0.160
26139WAT     H178659   5.349   5.480   0.226
26139WAT     H278660   5.253   5.359   0.171
26140WAT      O78661   4.931   8.410   8.819
26140WAT     H178662   4.929   8.357   8.734
26140WAT     H278663   4.988   8.491   8.807
26141WAT      O78664   6.995   0.646   6.061
26141WAT     H178665   7.082   0.596   6.054
26141WAT     H278666   6.928   0.590   6.109
26142WAT      O78667   2.871   6.888   4.957
26142WAT     H178668   2.825   6.963   5.004
26142WAT     H278669   2.942   6.925   4.896
26143WAT      O78670   3.671   9.503   0.044
26143WAT     H178671   3.744   9.535   0.104
26143WAT     H278672   3.710   9.474  -0.043
26144WAT      O78673   2.244   4.014   7.450
26144WAT     H178674   2.274   4.038   7.358
26144WAT     H278675   2.314   4.042   7.516
26145WAT      O78676   8.228   5.987   0.392
26145WAT     H178677   8.259   5.931   0.315
26145WAT     H278678   8.307   6.026   0.439
26146WAT      O78679   2.123   9.746   6.074
26146WAT     H178680   2.106   9.773   5.979
26146WAT     H278681   2.066   9.668   6.097
26147WAT      O78682   8.482   1.147   5.794
26147WAT     H178683   8.385   1.152   5.769
26147WAT     H278684   8.529   1.085   5.731
26148WAT      O78685   9.232   5.245   1.205
26148WAT     H178686   9.236   5.345   1.210
26148WAT     H278687   9.291   5.206   1.276
26149WAT      O78688   2.158   7.945   6.001
26149WAT     H178689   2.142   8.037   6.039
26149WAT     H278690   2.152   7.948   5.902
26150WAT      O78691   9.707   7.331   1.161
26150WAT     H178692   9.724   7.295   1.070
26150WAT     H278693   9.766   7.411   1.176
26151WAT      O78694   1.008   7.776   2.408
26151WAT     H178695   1.054   7.819   2.486
26151WAT     H278696   0.924   7.733   2.439
26152WAT      O78697   3.771   8.632   5.171
26152WAT     H178698   3.696   8.693   5.196
26152WAT     H278699   3.855   8.659   5.219
26153WAT      O78700   2.232   3.154   0.332
26153WAT     H178701   2.158   3.154   0.399
26153WAT     H278702   2.295   3.079   0.352
26154WAT      O78703   4.761   3.703   3.725
26154WAT     H178704   4.662   3.698   3.739
26154WAT     H278705   4.788   3.798   3.710
26155WAT      O78706   3.485   1.779   5.806
26155WAT     H178707   3.526   1.861   5.847
26155WAT     H278708   3.514   1.699   5.858
26156WAT      O78709   1.592   6.973   8.991
26156WAT     H178710   1.648   6.964   8.909
26156WAT     H278711   1.577   6.883   9.032
26157WAT      O78712   6.034   3.759   0.288
26157WAT     H178713   6.094   3.805   0.223
26157WAT     H278714   5.948   3.809   0.296
26158WAT      O78715   4.466   6.223   1.820
26158WAT     H178716   4.549   6.275   1.802
26158WAT     H278717   4.422   6.257   1.903
26159WAT      O78718   2.514   7.800   8.517
26159WAT     H178719   2.529   7.734   8.590
26159WAT     H278720   2.452   7.761   8.449
26160WAT      O78721   0.298   2.258   8.627
26160WAT     H178722   0.240   2.181   8.655
26160WAT     H278723   0.327   2.309   8.708
26161WAT      O78724   1.876   3.742   1.750
26161WAT     H178725   1.891   3.784   1.840
26161WAT     H278726   1.964   3.713   1.712
26162WAT      O78727   1.380   1.158   7.865
26162WAT     H178728   1.447   1.085   7.849
26162WAT     H278729   1.308   1.154   7.795
26163WAT      O78730   3.717   7.432   4.757
26163WAT     H178731   3.676   7.346   4.787
26163WAT     H278732   3.779   7.415   4.681
26164WAT      O78733   0.030   2.260   6.126
26164WAT     H178734   0.083   2.240   6.209
26164WAT     H278735   0.061   2.201   6.052
26165WAT      O78736   0.300   6.984   9.497
26165WAT     H178737   0.376   7.021   9.443
26165WAT     H278738   0.285   6.889   9.473
26166WAT      O78739   5.012   8.037   0.069
26166WAT     H178740   5.062   8.059   0.153
26166WAT     H278741   4.921   8.003   0.093
26167WAT      O78742   5.714   8.085   3.206
26167WAT     H178743   5.626   8.086   3.252
26167WAT     H278744   5.700   8.070   3.108
26168WAT      O78745   5.034   9.509   7.302
26168WAT     H178746   4.993   9.465   7.381
26168WAT     H278747   5.080   9.440   7.245
26169WAT      O78748   0.910   2.520   5.580
26169WAT     H178749   0.862   2.555   5.660
26169WAT     H278750   1.006   2.507   5.602
26170WAT      O78751   1.699   5.094   8.808
26170WAT     H178752   1.644   5.111   8.727
26170WAT     H278753   1.794   5.078   8.781
26171WAT      O78754   1.606   7.109   0.689
26171WAT     H178755   1.558   7.081   0.605
26171WAT     H278756   1.557   7.074   0.769
26172WAT      O78757   9.123   9.292   4.273
26172WAT     H178758   9.146   9.259   4.365
26172WAT     H278759   9.179   9.373   4.252
26173WAT      O78760   4.019   1.020   0.798
26173WAT     H178761   3.988   0.926   0.816
26173WAT     H278762   4.085   1.019   0.723
26174WAT      O78763   0.561   3.889   5.904
26174WAT     H178764   0.465   3.897   5.876
26174WAT     H278765   0.609   3.974   5.886
26175WAT      O78766   9.579   0.103   8.301
26175WAT     H178767   9.640   0.170   8.344
26175WAT     H278768   9.631   0.050   8.234
26176WAT      O78769   0.872   5.241   4.140
26176WAT     H178770   0.958   5.220   4.093
26176WAT     H278771   0.875   5.335   4.174
26177WAT      O78772   9.481   0.797   3.232
26177WAT     H178773   9.438   0.717   3.274
26177WAT     H278774   9.579   0.797   3.252
26178WAT      O78775   8.325   6.061   9.124
26178WAT     H178776   8.405   6.000   9.127
26178WAT     H278777   8.351   6.147   9.079
26179WAT      O78778   7.260   2.431   8.400
26179WAT     H178779   7.278   2.425   8.302
26179WAT     H278780   7.165   2.459   8.415
26180WAT      O78781   5.245   1.507   9.218
26180WAT     H178782   5.210   1.599   9.240
26180WAT     H278783   5.271   1.504   9.122
26181WAT      O78784   4.443   1.288   6.714
26181WAT     H178785   4.414   1.353   6.784
26181WAT     H278786   4.373   1.218   6.703
26182WAT      O78787   0.459   2.437   4.911
26182WAT     H178788   0.441   2.392   4.999
26182WAT     H278789   0.450   2.371   4.837
26183WAT      O78790   1.789   2.614   3.288
26183WAT     H178791   1.741   2.699   3.266
26183WAT     H278792   1.860   2.596   3.220
26184WAT      O78793   7.120   1.738   8.890
26184WAT     H178794   7.134   1.639   8.894
26184WAT     H278795   7.198   1.784   8.933
26185WAT      O78796   1.593   9.159   8.717
26185WAT     H178797   1.609   9.245   8.766
26185WAT     H278798   1.653   9.155   8.637
26186WAT      O78799   1.907   9.282   7.390
26186WAT     H178800   1.917   9.346   7.466
26186WAT     H278801   1.921   9.331   7.304
26187WAT      O78802   2.953   5.550   2.708
26187WAT     H178803   2.875   5.606   2.679
26187WAT     H278804   3.035   5.578   2.659
26188WAT      O78805   2.298   0.522   5.331
26188WAT     H178806   2.264   0.596   5.389
26188WAT     H278807   2.289   0.548   5.235
26189WAT      O78808   8.269   4.704   9.374
26189WAT     H178809   8.255   4.605   9.380
26189WAT     H278810   8.363   4.723   9.346
26190WAT      O78811   4.157   0.943   2.149
26190WAT     H178812   4.177   0.900   2.061
26190WAT     H278813   4.141   0.872   2.218
26191WAT      O78814   1.782   9.348   9.004
26191WAT     H178815   1.742   9.430   9.045
26191WAT     H278816   1.861   9.319   9.057
26192WAT      O78817   2.354   7.324   5.154
26192WAT     H178818   2.339   7.368   5.065
26192WAT     H278819   2.412   7.383   5.210
26193WAT      O78820   2.224   9.457   3.427
26193WAT     H178821   2.230   9.375   3.371
26193WAT     H278822   2.224   9.538   3.367
26194WAT      O78823   1.633   1.437   9.713
26194WAT     H178824   1.565   1.394   9.654
26194WAT     H278825   1.718   1.385   9.710
26195WAT      O78826   9.223   5.502   5.492
26195WAT     H178827   9.172   5.423   5.527
26195WAT     H278828   9.215   5.504   5.392
26196WAT      O78829   9.244   3.271   8.213
26196WAT     H178830   9.167   3.215   8.181
26196WAT     H278831   9.316   3.211   8.249
26197WAT      O78832   1.972   6.740   1.834
26197WAT     H178833   1.930   6.677   1.900
26197WAT     H278834   1.900   6.785   1.781
26198WAT      O78835   0.761   4.780   0.198
26198WAT     H178836   0.679   4.834   0.221
26198WAT     H278837   0.780   4.715   0.271
26199WAT      O78838   7.106   2.455   3.577
26199WAT     H178839   7.097   2.493   3.669
26199WAT     H278840   7.181   2.501   3.529
26200WAT      O78841   6.440   7.018   8.159
26200WAT     H178842   6.468   6.928   8.124
26200WAT     H278843   6.379   7.006   8.237
26201WAT      O78844   2.530   6.743   8.727
26201WAT     H178845   2.495   6.752   8.820
26201WAT     H278846   2.628   6.727   8.730
26202WAT      O78847   8.549   8.144   4.669
26202WAT     H178848   8.644   8.112   4.679
26202WAT     H278849   8.488   8.080   4.714
26203WAT      O78850   5.898   0.299   7.860
26203WAT     H178851   5.853   0.354   7.930
26203WAT     H278852   5.979   0.347   7.826
26204WAT      O78853   5.149   7.793   5.013
26204WAT     H178854   5.128   7.869   4.952
26204WAT     H278855   5.231   7.815   5.066
26205WAT      O78856   2.665   0.496   2.180
26205WAT     H178857   2.750   0.445   2.191
26205WAT     H278858   2.674   0.585   2.224
26206WAT      O78859   5.629   4.664   0.514
26206WAT     H178860   5.656   4.593   0.449
26206WAT     H278861   5.583   4.621   0.592
26207WAT      O78862   6.290   0.954   0.459
26207WAT     H178863   6.268   1.008   0.541
26207WAT     H278864   6.266   1.006   0.377
26208WAT      O78865   5.109   3.281   5.596
26208WAT     H178866   5.101   3.247   5.690
26208WAT     H278867   5.164   3.365   5.596
26209WAT      O78868   5.092   4.516   1.794
26209WAT     H178869   5.077   4.469   1.707
26209WAT     H278870   5.190   4.525   1.811
26210WAT      O78871   7.671   6.360   3.106
26210WAT     H178872   7.628   6.375   3.017
26210WAT     H278873   7.768   6.383   3.100
26211WAT      O78874   1.511   3.417   7.755
26211WAT     H178875   1.477   3.511   7.744
26211WAT     H278876   1.433   3.353   7.751
26212WAT      O78877   2.961   6.655   0.856
26212WAT     H178878   2.991   6.568   0.895
26212WAT     H278879   2.865   6.648   0.829
26213WAT      O78880   2.344   6.864   6.077
26213WAT     H178881   2.305   6.940   6.129
26213WAT     H278882   2.352   6.784   6.137
26214WAT      O78883   8.327   2.165   8.378
26214WAT     H178884   8.277   2.235   8.327
26214WAT     H278885   8.300   2.075   8.345
26215WAT      O78886   8.350   5.768   3.903
26215WAT     H178887   8.292   5.847   3.880
26215WAT     H278888   8.446   5.795   3.896
26216WAT      O78889   7.984   5.351   2.769
26216WAT     H178890   7.912   5.294   2.728
26216WAT     H278891   8.068   5.298   2.777
26217WAT      O78892   1.635   8.441   9.605
26217WAT     H178893   1.634   8.342   9.616
26217WAT     H278894   1.584   8.466   9.522
26218WAT      O78895   5.865   3.136   9.607
26218WAT     H178896   5.838   3.194   9.530
26218WAT     H278897   5.853   3.040   9.582
26219WAT      O78898   3.362   5.308   3.108
26219WAT     H178899   3.399   5.358   3.186
26219WAT     H278900   3.263   5.319   3.105
26220WAT      O78901   8.902   2.453   6.098
26220WAT     H178902   8.938   2.361   6.114
26220WAT     H278903   8.812   2.445   6.055
26221WAT      O78904   1.079   2.314   7.836
26221WAT     H178905   1.045   2.223   7.814
26221WAT     H278906   1.013   2.361   7.895
26222WAT      O78907   1.688   3.736   9.201
26222WAT     H178908   1.785   3.759   9.187
26222WAT     H278909   1.680   3.671   9.276
26223WAT      O78910   3.818   7.210   3.248
26223WAT     H178911   3.797   7.267   3.327
26223WAT     H278912   3.912   7.176   3.256
26224WAT      O78913   2.200   5.036   6.207
26224WAT     H178914   2.247   5.104   6.263
26224WAT     H278915   2.226   5.048   6.111
26225WAT      O78916   6.757   1.930   7.343
26225WAT     H178917   6.667   1.888   7.355
26225WAT     H278918   6.807   1.883   7.270
26226WAT      O78919   6.982   5.659   1.271
26226WAT     H178920   7.038   5.577   1.276
26226WAT     H278921   6.936   5.663   1.182
26227WAT      O78922   0.938   8.002   1.947
26227WAT     H178923   0.938   8.102   1.957
26227WAT     H278924   0.974   7.960   2.030
26228WAT      O78925   0.136   9.726   1.674
26228WAT     H178926   0.119   9.697   1.768
26228WAT     H278927   0.156   9.824   1.672
26229WAT      O78928   1.300   7.967   9.461
26229WAT     H178929   1.320   7.979   9.558
26229WAT     H278930   1.382   7.990   9.408
26230WAT      O78931   4.863   0.329   7.705
26230WAT     H178932   4.831   0.400   7.768
26230WAT     H278933   4.846   0.239   7.744
26231WAT      O78934   2.880   6.279   4.343
26231WAT     H178935   2.816   6.288   4.267
26231WAT     H278936   2.956   6.220   4.315
26232WAT      O78937   7.498   7.852   7.446
26232WAT     H178938   7.451   7.923   7.393
26232WAT     H278939   7.453   7.764   7.429
26233WAT      O78940   0.318   6.040   8.673
26233WAT     H178941   0.362   6.106   8.733
26233WAT     H278942   0.252   5.986   8.725
26234WAT      O78943   8.911   6.646   1.305
26234WAT     H178944   8.898   6.555   1.345
26234WAT     H278945   8.987   6.643   1.240
26235WAT      O78946   8.960   8.900   3.357
26235WAT     H178947   8.930   8.968   3.291
26235WAT     H278948   9.031   8.940   3.416
26236WAT      O78949   6.085   6.229   6.090
26236WAT     H178950   6.141   6.300   6.131
26236WAT     H278951   5.997   6.225   6.136
26237WAT      O78952   2.008   9.684   8.959
26237WAT     H178953   2.037   9.590   8.980
26237WAT     H278954   1.955   9.684   8.874
26238WAT      O78955   5.106   6.042   5.822
26238WAT     H178956   5.190   6.058   5.875
26238WAT     H278957   5.090   5.944   5.814
26239WAT      O78958   2.027   7.407   4.391
26239WAT     H178959   2.040   7.310   4.410
26239WAT     H278960   1.933   7.433   4.413
26240WAT      O78961   5.196   8.706   3.952
26240WAT     H178962   5.192   8.792   4.002
26240WAT     H278963   5.140   8.712   3.870
26241WAT      O78964   2.807   0.485   7.582
26241WAT     H178965   2.786   0.397   7.541
26241WAT     H278966   2.770   0.559   7.526
26242WAT      O78967   0.364   2.042   5.779
26242WAT     H178968   0.270   2.073   5.795
26242WAT     H278969   0.366   1.983   5.698
26243WAT      O78970   7.052   0.408   7.456
26243WAT     H178971   6.969   0.405   7.512
26243WAT     H278972   7.125   0.357   7.501
26244WAT      O78973   1.407   8.184   7.436
26244WAT     H178974   1.451   8.176   7.525
26244WAT     H278975   1.315   8.222   7.447
26245WAT      O78976   4.694   6.147   3.230
26245WAT     H178977   4.617   6.110   3.282
26245WAT     H278978   4.776   6.094   3.249
26246WAT      O78979   6.926   0.751   0.157
26246WAT     H178980   6.933   0.656   0.187
26246WAT     H278981   6.842   0.764   0.103
26247WAT      O78982   8.302   2.428   2.098
26247WAT     H178983   8.383   2.408   2.153
26247WAT     H278984   8.243   2.347   2.094
26248WAT      O78985   3.950   2.246   7.079
26248WAT     H178986   3.956   2.346   7.076
26248WAT     H278987   3.858   2.220   7.109
26249WAT      O78988   4.831   3.309   4.613
26249WAT     H178989   4.879   3.280   4.696
26249WAT     H278990   4.895   3.315   4.537
26250WAT      O78991   1.972   6.402   8.508
26250WAT     H178992   1.907   6.478   8.516
26250WAT     H278993   2.061   6.437   8.479
26251WAT      O78994   6.505   0.944   2.146
26251WAT     H178995   6.487   1.033   2.188
26251WAT     H278996   6.481   0.948   2.049
26252WAT      O78997   4.182   7.607   0.340
26252WAT     H178998   4.272   7.648   0.358
26252WAT     H278999   4.194   7.514   0.306
26253WAT      O79000   6.186   6.913   3.295
26253WAT     H179001   6.146   6.875   3.212
26253WAT     H279002   6.273   6.958   3.272
26254WAT      O79003   4.906   3.386   2.346
26254WAT     H179004   4.896   3.431   2.257
26254WAT     H279005   4.817   3.352   2.377
26255WAT      O79006   6.316   1.452   7.184
26255WAT     H179007   6.247   1.496   7.126
26255WAT     H279008   6.353   1.519   7.248
26256WAT      O79009   4.039   7.450   1.307
26256WAT     H179010   4.038   7.410   1.216
26256WAT     H279011   4.040   7.378   1.376
26257WAT      O79012   2.680   0.694   1.157
26257WAT     H179013   2.697   0.781   1.111
26257WAT     H279014   2.624   0.710   1.238
26258WAT      O79015   7.354   7.295   6.625
26258WAT     H179016   7.432   7.356   6.611
26258WAT     H279017   7.379   7.222   6.689
26259WAT      O79018   3.140   9.045   4.967
26259WAT     H179019   3.200   9.014   5.041
26259WAT     H279020   3.054   9.077   5.006
26260WAT      O79021   8.938   4.391   3.545
26260WAT     H179022   8.848   4.349   3.530
26260WAT     H279023   9.009   4.336   3.501
26261WAT      O79024   8.626   0.658   1.404
26261WAT     H179025   8.592   0.595   1.334
26261WAT     H279026   8.609   0.752   1.375
26262WAT      O79027   6.875   4.517   2.774
26262WAT     H179028   6.879   4.417   2.770
26262WAT     H279029   6.781   4.545   2.796
26263WAT      O79030   6.664   5.664   2.556
26263WAT     H179031   6.613   5.599   2.612
26263WAT     H279032   6.755   5.627   2.537
26264WAT      O79033   0.469   3.622   2.233
26264WAT     H179034   0.448   3.524   2.238
26264WAT     H279035   0.522   3.641   2.150
26265WAT      O79036   3.486   5.658   7.964
26265WAT     H179037   3.536   5.712   8.031
26265WAT     H279038   3.420   5.717   7.916
26266WAT      O79039   2.339   0.879   5.907
26266WAT     H179040   2.369   0.893   5.812
26266WAT     H279041   2.350   0.964   5.957
26267WAT      O79042   2.454   0.920   9.060
26267WAT     H179043   2.497   1.010   9.070
26267WAT     H279044   2.486   0.860   9.133
26268WAT      O79045   5.440   0.493   2.977
26268WAT     H179046   5.457   0.555   2.900
26268WAT     H279047   5.379   0.537   3.043
26269WAT      O79048   3.861   5.929   4.313
26269WAT     H179049   3.799   5.884   4.377
26269WAT     H279050   3.926   5.985   4.364
26270WAT      O79051   6.266   6.568   0.843
26270WAT     H179052   6.180   6.517   0.845
26270WAT     H279053   6.247   6.666   0.844
26271WAT      O79054   7.048   8.411   6.022
26271WAT     H179055   7.085   8.319   6.040
26271WAT     H279056   6.981   8.406   5.949
26272WAT      O79057   9.412   9.487   5.696
26272WAT     H179058   9.387   9.424   5.769
26272WAT     H279059   9.381   9.451   5.608
26273WAT      O79060   8.123   4.763   9.076
26273WAT     H179061   8.180   4.809   9.144
26273WAT     H279062   8.092   4.830   9.008
26274WAT      O79063   5.713   8.267   8.548
26274WAT     H179064   5.647   8.339   8.569
26274WAT     H279065   5.760   8.289   8.463
26275WAT      O79066   9.505   3.623   3.217
26275WAT     H179067   9.540   3.550   3.276
26275WAT     H279068   9.574   3.644   3.148
26276WAT      O79069   1.149   3.871   9.044
26276WAT     H179070   1.218   3.943   9.053
26276WAT     H279071   1.100   3.861   9.131
26277WAT      O79072   1.610   5.458   1.662
26277WAT     H179073   1.549   5.441   1.740
26277WAT     H279074   1.559   5.502   1.588
26278WAT      O79075   7.507   3.483   2.711
26278WAT     H179076   7.516   3.392   2.672
26278WAT     H279077   7.433   3.483   2.779
26279WAT      O79078   0.155   0.172   7.892
26279WAT     H179079   0.197   0.251   7.938
26279WAT     H279080   0.129   0.199   7.799
26280WAT      O79081   7.718   4.488   9.317
26280WAT     H179082   7.793   4.463   9.256
26280WAT     H279083   7.754   4.543   9.392
26281WAT      O79084   3.078   0.851   2.836
26281WAT     H179085   3.025   0.813   2.912
26281WAT     H279086   3.118   0.776   2.783
26282WAT      O79087   6.745   1.743   8.833
26282WAT     H179088   6.796   1.783   8.909
26282WAT     H279089   6.788   1.657   8.806
26283WAT      O79090   5.715   0.172   9.546
26283WAT     H179091   5.741   0.268   9.545
26283WAT     H279092   5.771   0.123   9.613
26284WAT      O79093   7.204   2.768   5.834
26284WAT     H179094   7.276   2.837   5.836
26284WAT     H279095   7.149   2.779   5.751
26285WAT      O79096   0.295   6.573   0.313
26285WAT     H179097   0.244   6.501   0.360
26285WAT     H279098   0.234   6.649   0.292
26286WAT      O79099   9.699   5.137   4.611
26286WAT     H179100   9.729   5.046   4.639
26286WAT     H279101   9.689   5.195   4.692
26287WAT      O79102   7.972   6.841   0.683
26287WAT     H179103   7.966   6.784   0.602
26287WAT     H279104   7.897   6.820   0.745
26288WAT      O79105   9.630   0.499   7.773
26288WAT     H179106   9.629   0.402   7.798
26288WAT     H279107   9.604   0.554   7.852
26289WAT      O79108   3.568   5.052   8.697
26289WAT     H179109   3.645   5.085   8.643
26289WAT     H279110   3.565   4.952   8.694
26290WAT      O79111   3.375   0.622   3.334
26290WAT     H179112   3.455   0.658   3.383
26290WAT     H279113   3.359   0.676   3.252
26291WAT      O79114   5.346   1.331   5.138
26291WAT     H179115   5.273   1.295   5.079
26291WAT     H279116   5.318   1.420   5.174
26292WAT      O79117   5.104   2.774   6.024
26292WAT     H179118   5.204   2.785   6.025
26292WAT     H279119   5.069   2.792   5.932
26293WAT      O79120   5.376   2.992   7.452
26293WAT     H179121   5.474   2.994   7.469
26293WAT     H279122   5.359   2.970   7.356
26294WAT      O79123   6.822   3.783   8.562
26294WAT     H179124   6.824   3.726   8.480
26294WAT     H279125   6.741   3.761   8.616
26295WAT      O79126   8.422   4.349   2.112
26295WAT     H179127   8.470   4.433   2.089
26295WAT     H279128   8.345   4.336   2.050
26296WAT      O79129   3.030   8.725   9.850
26296WAT     H179130   3.023   8.724   9.750
26296WAT     H279131   3.054   8.633   9.883
26297WAT      O79132   8.106   7.304   2.615
26297WAT     H179133   8.014   7.266   2.613
26297WAT     H279134   8.112   7.383   2.555
26298WAT      O79135   1.998   9.495   6.484
26298WAT     H179136   2.004   9.450   6.395
26298WAT     H279137   2.013   9.427   6.556
26299WAT      O79138   0.242   2.765   0.053
26299WAT     H179139   0.266   2.744   0.147
26299WAT     H279140   0.158   2.718   0.028
26300WAT      O79141   7.899   8.003   9.799
26300WAT     H179142   7.921   8.094   9.766
26300WAT     H279143   7.864   8.008   9.893
26301WAT      O79144   9.249   2.757   8.259
26301WAT     H179145   9.241   2.732   8.355
26301WAT     H279146   9.165   2.734   8.210
26302WAT      O79147   6.046   1.521   5.327
26302WAT     H179148   5.967   1.470   5.291
26302WAT     H279149   6.089   1.468   5.400
26303WAT      O79150   5.664   4.710   5.586
26303WAT     H179151   5.737   4.699   5.518
26303WAT     H279152   5.681   4.648   5.662
26304WAT      O79153   4.406   2.399   1.133
26304WAT     H179154   4.346   2.330   1.174
26304WAT     H279155   4.364   2.434   1.050
26305WAT      O79156   9.205   9.555   3.812
26305WAT     H179157   9.167   9.626   3.753
26305WAT     H279158   9.297   9.582   3.842
26306WAT      O79159   8.340   8.929   7.720
26306WAT     H179160   8.404   8.865   7.762
26306WAT     H279161   8.355   8.932   7.621
26307WAT      O79162   0.588   5.417   3.174
26307WAT     H179163   0.682   5.396   3.201
26307WAT     H279164   0.525   5.352   3.216
26308WAT      O79165   6.415   8.912   1.972
26308WAT     H179166   6.326   8.869   1.992
26308WAT     H279167   6.484   8.874   2.034
26309WAT      O79168   8.725   8.890   1.045
26309WAT     H179169   8.639   8.931   1.013
26309WAT     H279170   8.756   8.822   0.978
26310WAT      O79171   9.184   2.737   0.404
26310WAT     H179172   9.136   2.662   0.360
26310WAT     H279173   9.119   2.790   0.459
26311WAT      O79174   6.335   2.234   9.243
26311WAT     H179175   6.417   2.277   9.281
26311WAT     H279176   6.267   2.220   9.315
26312WAT      O79177   6.301   8.640   4.273
26312WAT     H179178   6.338   8.718   4.324
26312WAT     H279179   6.235   8.592   4.331
26313WAT      O79180   9.164   6.536   3.355
26313WAT     H179181   9.088   6.592   3.322
26313WAT     H279182   9.250   6.585   3.343
26314WAT      O79183   1.869   4.776   5.269
26314WAT     H179184   1.813   4.750   5.190
26314WAT     H279185   1.912   4.695   5.308
26315WAT      O79186   2.296   1.038   4.522
26315WAT     H179187   2.220   1.080   4.473
26315WAT     H279188   2.295   1.069   4.617
26316WAT      O79189   1.743   6.970   4.021
26316WAT     H179190   1.794   6.885   4.011
26316WAT     H279191   1.801   7.038   4.066
26317WAT      O79192   9.760   3.320   2.829
26317WAT     H179193   9.664   3.320   2.858
26317WAT     H279194   9.775   3.247   2.763
26318WAT      O79195   4.399   5.693   9.227
26318WAT     H179196   4.359   5.627   9.163
26318WAT     H279197   4.360   5.783   9.210
26319WAT      O79198   6.984   7.445   6.219
26319WAT     H179199   6.940   7.527   6.182
26319WAT     H279200   6.928   7.407   6.293
26320WAT      O79201   7.370   7.783   2.746
26320WAT     H179202   7.313   7.741   2.676
26320WAT     H279203   7.431   7.715   2.785
26321WAT      O79204   9.673   4.444   0.370
26321WAT     H179205   9.586   4.408   0.337
26321WAT     H279206   9.675   4.543   0.356
26322WAT      O79207   7.597   6.711   6.150
26322WAT     H179208   7.636   6.619   6.159
26322WAT     H279209   7.526   6.711   6.080
26323WAT      O79210   5.245   1.936   4.393
26323WAT     H179211   5.303   1.982   4.326
26323WAT     H279212   5.166   1.897   4.347
26324WAT      O79213   1.646   4.797   1.066
26324WAT     H179214   1.700   4.737   1.006
26324WAT     H279215   1.607   4.744   1.140
26325WAT      O79216   3.861   1.378   8.549
26325WAT     H179217   3.886   1.340   8.460
26325WAT     H279218   3.920   1.337   8.619
26326WAT      O79219   0.695   9.810   5.690
26326WAT     H179220   0.748   9.725   5.677
26326WAT     H279221   0.754   9.880   5.730
26327WAT      O79222   8.655   6.480   8.793
26327WAT     H179223   8.560   6.489   8.822
26327WAT     H279224   8.710   6.449   8.870
26328WAT      O79225   7.274   4.348   4.062
26328WAT     H179226   7.266   4.369   3.965
26328WAT     H279227   7.365   4.312   4.082
26329WAT      O79228   6.721   1.940   6.385
26329WAT     H179229   6.791   1.891   6.333
26329WAT     H279230   6.700   1.890   6.469
26330WAT      O79231   8.677   8.738   1.503
26330WAT     H179232   8.697   8.727   1.406
26330WAT     H279233   8.653   8.650   1.543
26331WAT      O79234   5.678   7.936   4.618
26331WAT     H179235   5.628   7.926   4.704
26331WAT     H279236   5.762   7.988   4.634
26332WAT      O79237   9.682   6.376   8.539
26332WAT     H179238   9.767   6.327   8.518
26332WAT     H279239   9.606   6.311   8.543
26333WAT      O79240   6.109   8.306   6.301
26333WAT     H179241   6.012   8.284   6.297
26333WAT     H279242   6.156   8.263   6.223
26334WAT      O79243   0.003   6.232   6.265
26334WAT     H179244  -0.085   6.230   6.219
26334WAT     H279245   0.076   6.209   6.201
26335WAT      O79246   7.313   8.164   9.503
26335WAT     H179247   7.304   8.261   9.522
26335WAT     H279248   7.375   8.122   9.569
26336WAT      O79249   7.464   4.872   3.887
26336WAT     H179250   7.513   4.958   3.876
26336WAT     H279251   7.393   4.882   3.957
26337WAT      O79252   1.582   9.447   4.014
26337WAT     H179253   1.634   9.482   4.092
26337WAT     H279254   1.622   9.361   3.984
26338WAT      O79255   4.331   7.034   2.987
26338WAT     H179256   4.290   7.055   3.076
26338WAT     H279257   4.270   6.975   2.935
26339WAT      O79258   1.349   1.609   9.770
26339WAT     H179259   1.315   1.539   9.833
26339WAT     H279260   1.434   1.647   9.805
26340WAT      O79261   0.157   5.137   3.341
26340WAT     H179262   0.212   5.067   3.295
26340WAT     H279263   0.112   5.194   3.273
26341WAT      O79264   6.944   7.752   0.511
26341WAT     H179265   6.898   7.753   0.599
26341WAT     H279266   7.031   7.705   0.519
26342WAT      O79267   5.108   6.622   6.257
26342WAT     H179268   5.093   6.718   6.279
26342WAT     H279269   5.106   6.610   6.158
26343WAT      O79270   0.733   9.814   3.419
26343WAT     H179271   0.759   9.896   3.469
26343WAT     H279272   0.804   9.791   3.353
26344WAT      O79273   5.884   9.763   0.079
26344WAT     H179274   5.929   9.842   0.038
26344WAT     H279275   5.864   9.782   0.176
26345WAT      O79276   1.566   1.967   0.674
26345WAT     H179277   1.540   2.031   0.602
26345WAT     H279278   1.498   1.970   0.748
26346WAT      O79279   9.739   5.504   7.386
26346WAT     H179280   9.666   5.454   7.432
26346WAT     H279281   9.703   5.548   7.304
26347WAT      O79282   5.058   0.049   1.979
26347WAT     H179283   5.016   0.062   2.069
26347WAT     H279284   5.077  -0.048   1.965
26348WAT      O79285   7.856   6.812   0.078
26348WAT     H179286   7.955   6.811   0.070
26348WAT     H279287   7.827   6.742   0.143
26349WAT      O79288   1.887   2.696   0.417
26349WAT     H179289   1.910   2.693   0.320
26349WAT     H279290   1.842   2.783   0.439
26350WAT      O79291   7.902   9.666   6.244
26350WAT     H179292   7.984   9.615   6.217
26350WAT     H279293   7.928   9.737   6.309
26351WAT      O79294   6.559   6.498   0.800
26351WAT     H179295   6.559   6.579   0.741
26351WAT     H279296   6.600   6.421   0.750
26352WAT      O79297   3.981   8.239   7.605
26352WAT     H179298   3.979   8.143   7.632
26352WAT     H279299   4.075   8.268   7.592
26353WAT      O79300   8.624   3.889   4.207
26353WAT     H179301   8.607   3.982   4.174
26353WAT     H279302   8.655   3.832   4.131
26354WAT      O79303   3.933   9.337   8.662
26354WAT     H179304   3.882   9.420   8.685
26354WAT     H279305   3.930   9.322   8.564
26355WAT      O79306   6.727   7.831   4.935
26355WAT     H179307   6.759   7.870   5.022
26355WAT     H279308   6.794   7.848   4.864
26356WAT      O79309   6.843   4.263   0.728
26356WAT     H179310   6.858   4.192   0.797
26356WAT     H279311   6.909   4.253   0.654
26357WAT      O79312   5.099   4.840   2.503
26357WAT     H179313   5.114   4.893   2.586
26357WAT     H279314   5.047   4.757   2.526
26358WAT      O79315   9.477   4.941   1.347
26358WAT     H179316   9.498   4.924   1.251
26358WAT     H279317   9.378   4.939   1.361
26359WAT      O79318   1.193   4.583   8.839
26359WAT     H179319   1.144   4.499   8.864
26359WAT     H279320   1.151   4.661   8.884
26360WAT      O79321   7.767   0.645   6.558
26360WAT     H179322   7.822   0.728   6.543
26360WAT     H279323   7.688   0.668   6.615
26361WAT      O79324   8.034   5.528   5.015
26361WAT     H179325   8.030   5.433   4.986
26361WAT     H279326   7.976   5.541   5.096
26362WAT      O79327   4.937   3.335   7.924
26362WAT     H179328   4.882   3.332   7.841
26362WAT     H279329   5.020   3.281   7.911
26363WAT      O79330   4.306   7.461   1.782
26363WAT     H179331   4.323   7.404   1.862
26363WAT     H279332   4.295   7.556   1.811
26364WAT      O79333   6.872   6.283   2.035
26364WAT     H179334   6.802   6.354   2.027
26364WAT     H279335   6.958   6.323   2.065
26365WAT      O79336   5.098   9.682   8.654
26365WAT     H179337   5.158   9.603   8.643
26365WAT     H279338   5.141   9.748   8.715
26366WAT      O79339   4.935   2.246   0.474
26366WAT     H179340   5.022   2.242   0.425
26366WAT     H279341   4.863   2.280   0.412
26367WAT      O79342   5.803   5.965   4.255
26367WAT     H179343   5.768   6.026   4.184
26367WAT     H279344   5.753   5.981   4.340
26368WAT      O79345   7.690   6.449   6.110
26368WAT     H179346   7.663   6.364   6.066
26368WAT     H279347   7.789   6.461   6.102
26369WAT      O79348   4.001   8.479   5.975
26369WAT     H179349   3.945   8.403   6.010
26369WAT     H279350   3.971   8.565   6.017
26370WAT      O79351   5.817   4.196   5.790
26370WAT     H179352   5.881   4.154   5.854
26370WAT     H279353   5.727   4.153   5.800
26371WAT      O79354   5.445   6.381   1.920
26371WAT     H179355   5.389   6.459   1.949
26371WAT     H279356   5.401   6.296   1.948
26372WAT      O79357   4.621   0.148   3.142
26372WAT     H179358   4.610   0.049   3.133
26372WAT     H279359   4.680   0.167   3.221
26373WAT      O79360   0.896   1.232   4.695
26373WAT     H179361   0.972   1.167   4.698
26373WAT     H279362   0.810   1.182   4.688
26374WAT      O79363   9.138   4.564   2.320
26374WAT     H179364   9.149   4.549   2.222
26374WAT     H279365   9.200   4.504   2.370
26375WAT      O79366   3.255   1.651   0.913
26375WAT     H179367   3.156   1.669   0.914
26375WAT     H279368   3.294   1.675   1.002
26376WAT      O79369   1.836   2.954   0.496
26376WAT     H179370   1.936   2.952   0.494
26376WAT     H279371   1.803   3.036   0.450
26377WAT      O79372   0.643   5.340   0.130
26377WAT     H179373   0.716   5.291   0.177
26377WAT     H279374   0.629   5.300   0.040
26378WAT      O79375   9.606   7.052   2.854
26378WAT     H179376   9.587   7.024   2.760
26378WAT     H279377   9.650   6.977   2.903
26379WAT      O79378   1.419   8.930   0.048
26379WAT     H179379   1.346   8.868   0.019
26379WAT     H279380   1.507   8.895   0.017
26380WAT      O79381   9.221   7.123   7.366
26380WAT     H179382   9.186   7.161   7.280
26380WAT     H279383   9.227   7.195   7.434
26381WAT      O79384   1.874   3.521   7.390
26381WAT     H179385   1.842   3.510   7.484
26381WAT     H279386   1.833   3.603   7.350
26382WAT      O79387   0.264   6.396   9.215
26382WAT     H179388   0.363   6.392   9.206
26382WAT     H279389   0.229   6.304   9.234
26383WAT      O79390   9.413   0.937   3.646
26383WAT     H179391   9.513   0.938   3.658
26383WAT     H279392   9.392   0.949   3.549
26384WAT      O79393   6.971   5.671   8.977
26384WAT     H179394   6.995   5.574   8.979
26384WAT     H279395   6.893   5.685   8.917
26385WAT      O79396   3.025   4.314   0.607
26385WAT     H179397   2.980   4.233   0.569
26385WAT     H279398   2.965   4.394   0.598
26386WAT      O79399   6.514   8.519   4.145
26386WAT     H179400   6.482   8.494   4.053
26386WAT     H279401   6.439   8.564   4.194
26387WAT      O79402   5.854   3.837   9.771
26387WAT     H179403   5.788   3.909   9.747
26387WAT     H279404   5.810   3.748   9.762
26388WAT      O79405   8.386   3.344   3.371
26388WAT     H179406   8.335   3.393   3.300
26388WAT     H279407   8.340   3.257   3.390
26389WAT      O79408   6.997   9.363   7.966
26389WAT     H179409   6.956   9.277   7.937
26389WAT     H279410   6.927   9.435   7.968
26390WAT      O79411   3.900   8.352   9.103
26390WAT     H179412   3.951   8.432   9.070
26390WAT     H279413   3.862   8.303   9.024
26391WAT      O79414   2.551   0.125   6.142
26391WAT     H179415   2.576   0.161   6.233
26391WAT     H279416   2.590   0.034   6.131
26392WAT      O79417   2.259   1.618   9.638
26392WAT     H179418   2.354   1.592   9.622
26392WAT     H279419   2.239   1.703   9.589
26393WAT      O79420   6.058   5.237   6.157
26393WAT     H179421   6.107   5.181   6.224
26393WAT     H279422   5.960   5.217   6.162
26394WAT      O79423   2.772   5.480   5.492
26394WAT     H179424   2.814   5.565   5.524
26394WAT     H279425   2.844   5.414   5.469
26395WAT      O79426   7.699   9.403   5.987
26395WAT     H179427   7.656   9.315   6.005
26395WAT     H279428   7.681   9.465   6.064
26396WAT      O79429   7.228   3.634   0.787
26396WAT     H179430   7.140   3.677   0.807
26396WAT     H279431   7.217   3.535   0.786
26397WAT      O79432   2.234   3.215   2.041
26397WAT     H179433   2.264   3.275   2.115
26397WAT     H279434   2.296   3.224   1.962
26398WAT      O79435   3.691   8.271   3.819
26398WAT     H179436   3.648   8.212   3.887
26398WAT     H279437   3.621   8.312   3.761
26399WAT      O79438   7.306   4.222   1.091
26399WAT     H179439   7.393   4.240   1.044
26399WAT     H279440   7.311   4.259   1.184
26400WAT      O79441   4.987   1.269   6.413
26400WAT     H179442   4.968   1.318   6.328
26400WAT     H279443   4.971   1.172   6.401
26401WAT      O79444   1.465   9.160   0.521
26401WAT     H179445   1.466   9.074   0.471
26401WAT     H279446   1.508   9.232   0.465
26402WAT      O79447   4.489   3.749   9.737
26402WAT     H179448   4.450   3.774   9.648
26402WAT     H279449   4.584   3.720   9.725
26403WAT      O79450   9.443   0.386   9.698
26403WAT     H179451   9.505   0.308   9.689
26403WAT     H279452   9.466   0.437   9.781
26404WAT      O79453   5.082   3.256   5.895
26404WAT     H179454   4.993   3.225   5.861
26404WAT     H279455   5.072   3.346   5.936
26405WAT      O79456   6.234   7.259   2.823
26405WAT     H179457   6.157   7.209   2.783
26405WAT     H279458   6.314   7.252   2.763
26406WAT      O79459   8.905   8.692   5.870
26406WAT     H179460   8.942   8.651   5.786
26406WAT     H279461   8.978   8.740   5.918
26407WAT      O79462   0.421   1.937   7.458
26407WAT     H179463   0.430   1.839   7.473
26407WAT     H279464   0.342   1.954   7.399
26408WAT      O79465   6.959   1.335   1.881
26408WAT     H179466   6.971   1.342   1.980
26408WAT     H279467   6.930   1.242   1.857
26409WAT      O79468   9.103   6.552   3.844
26409WAT     H179469   9.197   6.542   3.811
26409WAT     H279470   9.042   6.499   3.786
26410WAT      O79471   0.025   6.230   5.613
26410WAT     H179472  -0.070   6.201   5.609
26410WAT     H279473   0.079   6.163   5.665
26411WAT      O79474   1.973   8.760   1.738
26411WAT     H179475   1.959   8.666   1.769
26411WAT     H279476   2.017   8.813   1.810
26412WAT      O79477   7.616   1.192   2.551
26412WAT     H179478   7.581   1.157   2.464
26412WAT     H279479   7.707   1.231   2.538
26413WAT      O79480   5.029   2.765   9.352
26413WAT     H179481   5.012   2.863   9.360
26413WAT     H279482   5.061   2.729   9.440
26414WAT      O79483   1.841   1.000   0.385
26414WAT     H179484   1.754   1.037   0.352
26414WAT     H279485   1.825   0.947   0.469
26415WAT      O79486   5.162   4.126   3.025
26415WAT     H179487   5.068   4.114   2.994
26415WAT     H279488   5.225   4.099   2.952
26416WAT      O79489   2.739   1.575   1.964
26416WAT     H179490   2.667   1.554   2.030
26416WAT     H279491   2.818   1.516   1.982
26417WAT      O79492   4.608   2.868   4.240
26417WAT     H179493   4.653   2.955   4.218
26417WAT     H279494   4.516   2.867   4.202
26418WAT      O79495   4.883   7.902   1.093
26418WAT     H179496   4.875   7.812   1.135
26418WAT     H279497   4.969   7.907   1.041
26419WAT      O79498   5.750   5.501   8.152
26419WAT     H179499   5.834   5.447   8.150
26419WAT     H279500   5.743   5.548   8.240
26420WAT      O79501   1.909   8.090   5.667
26420WAT     H179502   1.865   8.086   5.577
26420WAT     H279503   1.902   8.183   5.703
26421WAT      O79504   7.144   9.490   1.729
26421WAT     H179505   7.216   9.421   1.737
26421WAT     H279506   7.117   9.520   1.820
26422WAT      O79507   1.873   7.440   8.185
26422WAT     H179508   1.942   7.499   8.227
26422WAT     H279509   1.910   7.400   8.101
26423WAT      O79510   1.123   2.659   6.803
26423WAT     H179511   1.026   2.680   6.819
26423WAT     H279512   1.151   2.584   6.862
26424WAT      O79513   3.077   7.319   4.883
26424WAT     H179514   3.014   7.390   4.914
26424WAT     H279515   3.038   7.273   4.803
26425WAT      O79516   0.732   5.100   2.687
26425WAT     H179517   0.651   5.133   2.735
26425WAT     H279518   0.761   5.013   2.726
26426WAT      O79519   7.348   9.205   0.624
26426WAT     H179520   7.267   9.264   0.623
26426WAT     H279521   7.354   9.159   0.712
26427WAT      O79522   8.025   1.985   0.352
26427WAT     H179523   8.035   2.060   0.416
26427WAT     H279524   8.110   1.931   0.349
26428WAT      O79525   7.918   9.102   7.496
26428WAT     H179526   7.869   9.020   7.467
26428WAT     H279527   7.909   9.115   7.594
26429WAT      O79528   5.520   8.205   1.983
26429WAT     H179529   5.485   8.272   1.917
26429WAT     H279530   5.588   8.147   1.938
26430WAT      O79531   5.184   3.103   5.256
26430WAT     H179532   5.107   3.165   5.276
26430WAT     H279533   5.207   3.052   5.338
26431WAT      O79534   1.159   5.120   1.643
26431WAT     H179535   1.229   5.049   1.645
26431WAT     H279536   1.188   5.196   1.702
26432WAT      O79537   5.779   0.068   7.793
26432WAT     H179538   5.804  -0.023   7.827
26432WAT     H279539   5.840   0.137   7.832
26433WAT      O79540   8.707   9.320   2.918
26433WAT     H179541   8.652   9.344   2.838
26433WAT     H279542   8.658   9.345   3.001
26434WAT      O79543   2.086   9.023   7.466
26434WAT     H179544   2.119   8.951   7.404
26434WAT     H279545   2.013   9.074   7.421
26435WAT      O79546   8.381   4.488   2.654
26435WAT     H179547   8.481   4.488   2.652
26435WAT     H279548   8.350   4.499   2.749
26436WAT      O79549   9.027   5.474   5.924
26436WAT     H179550   9.112   5.424   5.938
26436WAT     H279551   8.982   5.488   6.013
26437WAT      O79552   8.019   6.109   0.495
26437WAT     H179553   8.091   6.070   0.438
26437WAT     H279554   7.970   6.035   0.542
26438WAT      O79555   0.039   9.152   6.153
26438WAT     H179556   0.011   9.165   6.248
26438WAT     H279557   0.083   9.235   6.119
26439WAT      O79558   3.615   9.641   0.995
26439WAT     H179559   3.519   9.628   1.022
26439WAT     H279560   3.619   9.661   0.897
26440WAT      O79561   3.487   6.045   6.370
26440WAT     H179562   3.501   5.952   6.402
26440WAT     H279563   3.551   6.065   6.296
26441WAT      O79564   5.330   1.641   0.921
26441WAT     H179565   5.235   1.671   0.925
26441WAT     H279566   5.390   1.720   0.933
26442WAT      O79567   1.647   0.847   7.145
26442WAT     H179568   1.622   0.796   7.064
26442WAT     H279569   1.602   0.808   7.225
26443WAT      O79570   8.693   1.425   3.661
26443WAT     H179571   8.728   1.502   3.609
26443WAT     H279572   8.750   1.410   3.742
26444WAT      O79573   0.046   7.157   4.229
26444WAT     H179574   0.046   7.247   4.271
26444WAT     H279575  -0.034   7.148   4.169
26445WAT      O79576   1.359   2.855   8.481
26445WAT     H179577   1.284   2.920   8.496
26445WAT     H279578   1.322   2.771   8.442
26446WAT      O79579   3.679   5.065   6.298
26446WAT     H179580   3.737   5.134   6.342
26446WAT     H279581   3.738   4.997   6.254
26447WAT      O79582   3.486   8.410   3.349
26447WAT     H179583   3.441   8.324   3.326
26447WAT     H279584   3.580   8.392   3.379
26448WAT      O79585   7.415   6.918   8.818
26448WAT     H179586   7.475   6.838   8.809
26448WAT     H279587   7.463   7.000   8.786
26449WAT      O79588   8.323   2.640   9.369
26449WAT     H179589   8.281   2.578   9.436
26449WAT     H279590   8.413   2.605   9.343
26450WAT      O79591   6.391   4.472   9.580
26450WAT     H179592   6.397   4.569   9.555
26450WAT     H279593   6.468   4.423   9.540
26451WAT      O79594   5.959   8.817   7.542
26451WAT     H179595   5.889   8.747   7.529
26451WAT     H279596   6.047   8.773   7.561
26452WAT      O79597   8.599   5.422   9.108
26452WAT     H179598   8.680   5.477   9.129
26452WAT     H279599   8.598   5.341   9.166
26453WAT      O79600   8.574   8.009   9.557
26453WAT     H179601   8.649   8.052   9.608
26453WAT     H279602   8.516   7.958   9.620
26454WAT      O79603   8.499   6.410   4.549
26454WAT     H179604   8.546   6.460   4.476
26454WAT     H279605   8.433   6.346   4.509
26455WAT      O79606   6.573   8.574   5.370
26455WAT     H179607   6.570   8.474   5.382
26455WAT     H279608   6.642   8.612   5.432
26456WAT      O79609   0.090   0.044   3.533
26456WAT     H179610   0.123  -0.025   3.598
26456WAT     H279611   0.151   0.047   3.453
26457WAT      O79612   8.613   6.911   0.865
26457WAT     H179613   8.612   7.007   0.892
26457WAT     H279614   8.586   6.855   0.943
26458WAT      O79615   5.056   3.239   0.883
26458WAT     H179616   5.154   3.255   0.873
26458WAT     H279617   5.028   3.260   0.977
26459WAT      O79618   3.847   0.151   0.485
26459WAT     H179619   3.824   0.114   0.575
26459WAT     H279620   3.835   0.251   0.486
26460WAT      O79621   5.140   7.636   3.132
26460WAT     H179622   5.146   7.704   3.205
26460WAT     H279623   5.094   7.554   3.166
26461WAT      O79624   6.762   9.695   9.161
26461WAT     H179625   6.708   9.778   9.169
26461WAT     H279626   6.702   9.615   9.162
26462WAT      O79627   4.019   1.807   5.118
26462WAT     H179628   4.029   1.729   5.180
26462WAT     H279629   3.964   1.878   5.163
26463WAT      O79630   2.368   6.240   4.072
26463WAT     H179631   2.292   6.181   4.044
26463WAT     H279632   2.342   6.293   4.152
26464WAT      O79633   8.825   3.385   1.968
26464WAT     H179634   8.852   3.481   1.966
26464WAT     H279635   8.778   3.366   2.054
26465WAT      O79636   4.659   8.132   1.295
26465WAT     H179637   4.758   8.117   1.291
26465WAT     H279638   4.640   8.227   1.321
26466WAT      O79639   9.573   8.476   9.715
26466WAT     H179640   9.644   8.408   9.728
26466WAT     H279641   9.525   8.492   9.801
26467WAT      O79642   3.267   9.195   4.200
26467WAT     H179643   3.327   9.267   4.235
26467WAT     H279644   3.176   9.233   4.182
26468WAT      O79645   5.047   6.432   7.326
26468WAT     H179646   5.053   6.507   7.392
26468WAT     H279647   4.974   6.451   7.260
26469WAT      O79648   1.539   0.803   2.228
26469WAT     H179649   1.627   0.849   2.240
26469WAT     H279650   1.486   0.811   2.312
26470WAT      O79651   8.522   4.633   3.107
26470WAT     H179652   8.574   4.672   3.183
26470WAT     H279653   8.579   4.568   3.057
26471WAT      O79654   8.655   6.185   8.972
26471WAT     H179655   8.661   6.145   8.880
26471WAT     H279656   8.718   6.139   9.033
26472WAT      O79657   2.017   8.213   1.766
26472WAT     H179658   1.949   8.176   1.830
26472WAT     H279659   1.974   8.229   1.677
26473WAT      O79660   1.359   9.117   9.329
26473WAT     H179661   1.416   9.161   9.398
26473WAT     H279662   1.415   9.092   9.251
26474WAT      O79663   0.220   0.513   2.643
26474WAT     H179664   0.126   0.480   2.637
26474WAT     H279665   0.266   0.470   2.721
26475WAT      O79666   5.735   1.469   1.799
26475WAT     H179667   5.808   1.488   1.733
26475WAT     H279668   5.714   1.371   1.799
26476WAT      O79669   8.667   0.330   0.692
26476WAT     H179670   8.652   0.341   0.594
26476WAT     H279671   8.762   0.304   0.709
26477WAT      O79672   6.367   1.736   6.719
26477WAT     H179673   6.411   1.666   6.776
26477WAT     H279674   6.306   1.691   6.654
26478WAT      O79675   8.787   8.216   5.011
26478WAT     H179676   8.864   8.157   5.038
26478WAT     H279677   8.821   8.290   4.953
26479WAT      O79678   7.386   3.581   1.393
26479WAT     H179679   7.332   3.605   1.473
26479WAT     H279680   7.354   3.635   1.314
26480WAT      O79681   6.174   1.013   2.023
26480WAT     H179682   6.240   0.971   1.960
26480WAT     H279683   6.151   0.948   2.095
26481WAT      O79684   2.707   9.575   5.500
26481WAT     H179685   2.748   9.490   5.534
26481WAT     H279686   2.623   9.594   5.550
26482WAT      O79687   1.918   6.205   3.935
26482WAT     H179688   1.882   6.271   3.869
26482WAT     H279689   1.842   6.164   3.985
26483WAT      O79690   8.962   0.763   4.018
26483WAT     H179691   9.014   0.678   4.009
26483WAT     H279692   8.916   0.784   3.932
26484WAT      O79693   1.764   1.378   3.422
26484WAT     H179694   1.699   1.318   3.469
26484WAT     H279695   1.748   1.473   3.451
26485WAT      O79696   4.341   2.995   0.669
26485WAT     H179697   4.301   2.974   0.758
26485WAT     H279698   4.299   3.078   0.633
26486WAT      O79699   2.237   9.215   4.737
26486WAT     H179700   2.151   9.226   4.786
26486WAT     H279701   2.219   9.181   4.644
26487WAT      O79702   2.385   0.557   1.719
26487WAT     H179703   2.397   0.460   1.695
26487WAT     H279704   2.470   0.593   1.756
26488WAT      O79705   1.452   5.079   7.489
26488WAT     H179706   1.370   5.119   7.448
26488WAT     H279707   1.534   5.123   7.451
26489WAT      O79708   0.888   9.264   2.794
26489WAT     H179709   0.961   9.318   2.837
26489WAT     H279710   0.846   9.205   2.863
26490WAT      O79711   9.146   0.544   0.395
26490WAT     H179712   9.140   0.643   0.405
26490WAT     H279713   9.102   0.517   0.310
26491WAT      O79714   2.106   8.909   1.921
26491WAT     H179715   2.183   8.901   1.984
26491WAT     H279716   2.085   9.006   1.906
26492WAT      O79717   4.005   9.014   3.113
26492WAT     H179718   4.034   8.938   3.055
26492WAT     H279719   4.082   9.077   3.126
26493WAT      O79720   2.027   0.880   0.840
26493WAT     H179721   2.074   0.912   0.757
26493WAT     H279722   2.083   0.902   0.920
26494WAT      O79723   4.221   4.611   9.473
26494WAT     H179724   4.224   4.671   9.393
26494WAT     H279725   4.289   4.642   9.540
26495WAT      O79726   5.527   9.818   7.535
26495WAT     H179727   5.573   9.736   7.568
26495WAT     H279728   5.592   9.894   7.536
26496WAT      O79729   7.944   4.698   7.518
26496WAT     H179730   7.932   4.720   7.615
26496WAT     H279731   7.856   4.670   7.480
26497WAT      O79732   9.340   2.940   9.699
26497WAT     H179733   9.415   2.874   9.694
26497WAT     H279734   9.253   2.890   9.707
26498WAT      O79735   6.187   6.804   1.458
26498WAT     H179736   6.253   6.848   1.396
26498WAT     H279737   6.101   6.790   1.410
26499WAT      O79738   2.728   6.704   1.948
26499WAT     H179739   2.736   6.639   2.024
26499WAT     H279740   2.787   6.674   1.873
26500WAT      O79741   4.342   4.614   0.071
26500WAT     H179742   4.368   4.532   0.122
26500WAT     H279743   4.370   4.695   0.122
26501WAT      O79744   0.579   6.462   6.684
26501WAT     H179745   0.536   6.505   6.763
26501WAT     H279746   0.674   6.438   6.707
26502WAT      O79747   1.422   5.835   7.650
26502WAT     H179748   1.496   5.899   7.629
26502WAT     H279749   1.344   5.885   7.687
26503WAT      O79750   7.418   1.422   5.201
26503WAT     H179751   7.445   1.454   5.111
26503WAT     H279752   7.334   1.469   5.230
26504WAT      O79753   2.201   7.904   3.054
26504WAT     H179754   2.245   7.900   2.965
26504WAT     H279755   2.214   7.995   3.094
26505WAT      O79756   4.552   5.174   9.882
26505WAT     H179757   4.473   5.142   9.935
26505WAT     H279758   4.635   5.133   9.918
26506WAT      O79759   6.316   8.879   6.755
26506WAT     H179760   6.223   8.849   6.734
26506WAT     H279761   6.313   8.957   6.819
26507WAT      O79762   9.328   7.226   5.745
26507WAT     H179763   9.334   7.283   5.663
26507WAT     H279764   9.406   7.245   5.805
26508WAT      O79765   6.000   4.285   2.322
26508WAT     H179766   6.082   4.248   2.278
26508WAT     H279767   5.969   4.366   2.273
26509WAT      O79768   0.718   6.480   5.471
26509WAT     H179769   0.665   6.490   5.387
26509WAT     H279770   0.815   6.470   5.447
26510WAT      O79771   7.713   3.152   1.389
26510WAT     H179772   7.769   3.129   1.468
26510WAT     H279773   7.655   3.231   1.410
26511WAT      O79774   9.806   5.628   1.809
26511WAT     H179775   9.734   5.566   1.839
26511WAT     H279776   9.829   5.611   1.714
26512WAT      O79777   0.441   3.342   2.180
26512WAT     H179778   0.478   3.323   2.271
26512WAT     H279779   0.495   3.294   2.112
26513WAT      O79780   1.633   2.153   3.477
26513WAT     H179781   1.635   2.252   3.459
26513WAT     H279782   1.551   2.114   3.434
26514WAT      O79783   5.766   2.485   0.328
26514WAT     H179784   5.789   2.537   0.246
26514WAT     H279785   5.746   2.548   0.403
26515WAT      O79786   4.104   3.434   4.921
26515WAT     H179787   4.163   3.373   4.868
26515WAT     H279788   4.121   3.421   5.018
26516WAT      O79789   2.167   2.171   3.746
26516WAT     H179790   2.078   2.124   3.746
26516WAT     H279791   2.169   2.238   3.672
26517WAT      O79792   0.200   2.773   3.315
26517WAT     H179793   0.263   2.718   3.260
26517WAT     H279794   0.132   2.815   3.256
26518WAT      O79795   4.831   5.260   0.321
26518WAT     H179796   4.775   5.182   0.293
26518WAT     H279797   4.784   5.313   0.391
26519WAT      O79798   8.978   7.934   1.529
26519WAT     H179799   8.912   7.905   1.459
26519WAT     H279800   8.933   7.935   1.618
26520WAT      O79801   8.419   3.654   1.951
26520WAT     H179802   8.322   3.668   1.933
26520WAT     H279803   8.462   3.741   1.973
26521WAT      O79804   3.658   2.877   2.006
26521WAT     H179805   3.605   2.818   1.945
26521WAT     H279806   3.639   2.853   2.101
26522WAT      O79807   1.422   7.046   1.310
26522WAT     H179808   1.484   7.076   1.237
26522WAT     H279809   1.444   7.095   1.394
26523WAT      O79810   5.949   5.178   1.849
26523WAT     H179811   5.927   5.248   1.780
26523WAT     H279812   5.999   5.104   1.806
26524WAT      O79813   9.230   0.938   8.027
26524WAT     H179814   9.162   0.942   8.100
26524WAT     H279815   9.253   0.843   8.007
26525WAT      O79816   0.364   6.118   2.620
26525WAT     H179817   0.399   6.100   2.711
26525WAT     H279818   0.441   6.136   2.558
26526WAT      O79819   6.531   9.749   1.414
26526WAT     H179820   6.536   9.697   1.499
26526WAT     H279821   6.534   9.847   1.434
26527WAT      O79822   4.816   3.482   3.910
26527WAT     H179823   4.793   3.549   3.840
26527WAT     H279824   4.737   3.421   3.925
26528WAT      O79825   7.576   8.937   1.409
26528WAT     H179826   7.670   8.905   1.402
26528WAT     H279827   7.542   8.922   1.502
26529WAT      O79828   2.445   3.903   1.018
26529WAT     H179829   2.484   3.988   1.053
26529WAT     H279830   2.447   3.904   0.918
26530WAT      O79831   4.376   7.751   6.183
26530WAT     H179832   4.355   7.837   6.227
26530WAT     H279833   4.322   7.741   6.099
26531WAT      O79834   6.880   1.544   9.547
26531WAT     H179835   6.843   1.455   9.574
26531WAT     H279836   6.895   1.599   9.629
26532WAT      O79837   1.908   5.342   1.384
26532WAT     H179838   1.916   5.368   1.288
26532WAT     H279839   1.866   5.417   1.436
26533WAT      O79840   0.130   2.623   8.684
26533WAT     H179841   0.049   2.587   8.637
26533WAT     H279842   0.144   2.718   8.658
26534WAT      O79843   7.784   1.427   1.522
26534WAT     H179844   7.758   1.450   1.428
26534WAT     H279845   7.849   1.495   1.556
26535WAT      O79846   1.687   3.531   9.035
26535WAT     H179847   1.781   3.500   9.048
26535WAT     H279848   1.670   3.610   9.095
26536WAT      O79849   1.481   5.322   5.065
26536WAT     H179850   1.456   5.308   4.969
26536WAT     H279851   1.578   5.300   5.077
26537WAT      O79852   2.434   7.210   8.401
26537WAT     H179853   2.511   7.235   8.341
26537WAT     H279854   2.372   7.288   8.410
26538WAT      O79855   4.308   5.231   8.037
26538WAT     H179856   4.260   5.143   8.045
26538WAT     H279857   4.285   5.288   8.116
26539WAT      O79858   9.098   6.697   6.753
26539WAT     H179859   9.164   6.684   6.679
26539WAT     H279860   9.009   6.723   6.713
26540WAT      O79861   0.662   5.146   2.330
26540WAT     H179862   0.594   5.098   2.386
26540WAT     H279863   0.752   5.140   2.374
26541WAT      O79864   5.794   8.119   4.942
26541WAT     H179865   5.740   8.170   4.875
26541WAT     H279866   5.770   8.149   5.034
26542WAT      O79867   0.496   0.298   3.367
26542WAT     H179868   0.528   0.392   3.363
26542WAT     H279869   0.450   0.281   3.453
26543WAT      O79870   1.983   4.104   9.395
26543WAT     H179871   2.002   4.182   9.454
26543WAT     H279872   1.930   4.134   9.316
26544WAT      O79873   6.459   2.888   1.861
26544WAT     H179874   6.463   2.876   1.761
26544WAT     H279875   6.394   2.960   1.883
26545WAT      O79876   2.557   5.006   5.364
26545WAT     H179877   2.595   5.096   5.345
26545WAT     H279878   2.477   4.990   5.306
26546WAT      O79879   7.548   7.951   8.305
26546WAT     H179880   7.527   7.950   8.403
26546WAT     H279881   7.463   7.958   8.252
26547WAT      O79882   0.550   4.953   0.620
26547WAT     H179883   0.470   4.924   0.568
26547WAT     H279884   0.620   4.881   0.616
26548WAT      O79885   9.668   2.245   3.953
26548WAT     H179886   9.575   2.239   3.918
26548WAT     H279887   9.668   2.239   4.053
26549WAT      O79888   7.518   8.442   9.230
26549WAT     H179889   7.574   8.491   9.296
26549WAT     H279890   7.473   8.507   9.169
26550WAT      O79891   1.371   5.916   1.182
26550WAT     H179892   1.345   5.820   1.182
26550WAT     H279893   1.296   5.971   1.218
26551WAT      O79894   5.471   0.316   5.262
26551WAT     H179895   5.414   0.276   5.191
26551WAT     H279896   5.482   0.250   5.337
26552WAT      O79897   1.180   2.849   3.286
26552WAT     H179898   1.244   2.777   3.259
26552WAT     H279899   1.144   2.829   3.377
26553WAT      O79900   4.300   9.390   1.244
26553WAT     H179901   4.394   9.384   1.276
26553WAT     H279902   4.281   9.484   1.214
26554WAT      O79903   7.036   1.767   2.409
26554WAT     H179904   7.037   1.720   2.498
26554WAT     H279905   7.009   1.703   2.338
26555WAT      O79906   6.533   6.854   2.309
26555WAT     H179907   6.492   6.826   2.222
26555WAT     H279908   6.620   6.899   2.292
26556WAT      O79909   1.192   6.737   7.272
26556WAT     H179910   1.201   6.688   7.359
26556WAT     H279911   1.129   6.814   7.284
26557WAT      O79912   0.825   0.281   4.461
26557WAT     H179913   0.727   0.261   4.460
26557WAT     H279914   0.842   0.361   4.518
26558WAT      O79915   0.243   9.820   1.041
26558WAT     H179916   0.269   9.742   1.099
26558WAT     H279917   0.323   9.877   1.025
26559WAT      O79918   7.066   4.064   2.433
26559WAT     H179919   7.143   4.064   2.495
26559WAT     H279920   7.007   3.986   2.453
26560WAT      O79921   3.998   3.711   7.678
26560WAT     H179922   4.068   3.662   7.730
26560WAT     H279923   3.908   3.669   7.695
26561WAT      O79924   1.716   0.396   1.161
26561WAT     H179925   1.699   0.345   1.076
26561WAT     H279926   1.694   0.338   1.239
26562WAT      O79927   6.577   3.102   2.041
26562WAT     H179928   6.649   3.163   2.073
26562WAT     H279929   6.558   3.120   1.944
26563WAT      O79930   6.096   1.726   1.639
26563WAT     H179931   6.063   1.641   1.597
26563WAT     H279932   6.072   1.726   1.736
26564WAT      O79933   3.544   3.307   6.175
26564WAT     H179934   3.586   3.387   6.217
26564WAT     H279935   3.570   3.302   6.078
26565WAT      O79936   8.762   4.824   4.333
26565WAT     H179937   8.830   4.838   4.260
26565WAT     H279938   8.672   4.811   4.292
26566WAT      O79939   9.430   4.277   5.113
26566WAT     H179940   9.446   4.330   5.030
26566WAT     H279941   9.396   4.187   5.089
26567WAT      O79942   8.665   3.328   3.054
26567WAT     H179943   8.627   3.238   3.032
26567WAT     H279944   8.601   3.399   3.028
26568WAT      O79945   2.010   9.080   9.353
26568WAT     H179946   1.916   9.052   9.373
26568WAT     H279947   2.051   9.120   9.435
26569WAT      O79948   0.953   1.784   8.368
26569WAT     H179949   0.966   1.838   8.285
26569WAT     H279950   0.970   1.841   8.448
26570WAT      O79951   9.723   1.828   4.331
26570WAT     H179952   9.628   1.851   4.354
26570WAT     H279953   9.735   1.829   4.232
26571WAT      O79954   5.293   0.146   1.200
26571WAT     H179955   5.389   0.117   1.203
26571WAT     H279956   5.245   0.095   1.128
26572WAT      O79957   8.950   1.752   3.557
26572WAT     H179958   8.997   1.700   3.628
26572WAT     H279959   8.991   1.730   3.468
26573WAT      O79960   7.605   3.715   5.752
26573WAT     H179961   7.529   3.778   5.764
26573WAT     H279962   7.626   3.705   5.655
26574WAT      O79963   9.192   5.999   7.078
26574WAT     H179964   9.103   5.976   7.118
26574WAT     H279965   9.238   6.067   7.135
26575WAT      O79966   0.420   6.332   0.025
26575WAT     H179967   0.328   6.358   0.053
26575WAT     H279968   0.419   6.302  -0.071
26576WAT      O79969   2.000   1.409   6.746
26576WAT     H179970   1.988   1.312   6.767
26576WAT     H279971   2.088   1.423   6.701
26577WAT      O79972   7.726   0.362   7.848
26577WAT     H179973   7.702   0.321   7.937
26577WAT     H279974   7.662   0.330   7.779
26578WAT      O79975   4.735   1.670   9.249
26578WAT     H179976   4.807   1.642   9.186
26578WAT     H279977   4.770   1.741   9.311
26579WAT      O79978   4.521   3.133   2.462
26579WAT     H179979   4.503   3.148   2.559
26579WAT     H279980   4.551   3.039   2.448
26580WAT      O79981   2.090   3.478   5.414
26580WAT     H179982   1.998   3.438   5.422
26580WAT     H279983   2.158   3.415   5.451
26581WAT      O79984   3.453   7.605   1.552
26581WAT     H179985   3.397   7.585   1.472
26581WAT     H279986   3.536   7.653   1.524
26582WAT      O79987   3.025   5.041   1.836
26582WAT     H179988   2.949   5.101   1.811
26582WAT     H279989   3.084   5.089   1.901
26583WAT      O79990   4.298   4.578   5.905
26583WAT     H179991   4.358   4.508   5.945
26583WAT     H279992   4.252   4.628   5.978
26584WAT      O79993   1.986   7.316   7.971
26584WAT     H179994   2.010   7.337   7.876
26584WAT     H279995   1.915   7.245   7.972
26585WAT      O79996   9.229   6.728   4.698
26585WAT     H179997   9.253   6.632   4.713
26585WAT     H279998   9.275   6.761   4.615
26586WAT      O79999   7.703   3.563   0.917
26586WAT     H180000   7.621   3.613   0.888
26586WAT     H280001   7.698   3.546   1.015
26587WAT      O80002   2.726   8.412   3.254
26587WAT     H180003   2.767   8.499   3.282
26587WAT     H280004   2.627   8.416   3.266
26588WAT      O80005   7.089   2.764   2.925
26588WAT     H180006   7.158   2.791   2.858
26588WAT     H280007   7.058   2.670   2.906
26589WAT      O80008   6.514   0.971   8.977
26589WAT     H180009   6.553   0.879   8.979
26589WAT     H280010   6.583   1.036   8.947
26590WAT      O80011   0.343   5.516   3.682
26590WAT     H180012   0.256   5.510   3.731
26590WAT     H280013   0.404   5.580   3.730
26591WAT      O80014   7.874   2.714   7.933
26591WAT     H180015   7.806   2.767   7.882
26591WAT     H280016   7.943   2.775   7.971
26592WAT      O80017   8.910   7.444   0.991
26592WAT     H180018   8.964   7.491   1.061
26592WAT     H280019   8.904   7.346   1.014
26593WAT      O80020   3.847   5.972   8.025
26593WAT     H180021   3.796   5.918   8.093
26593WAT     H280022   3.944   5.951   8.032
26594WAT      O80023   1.497   2.407   5.363
26594WAT     H180024   1.591   2.419   5.393
26594WAT     H280025   1.458   2.325   5.405
26595WAT      O80026   8.674   5.376   4.488
26595WAT     H180027   8.618   5.294   4.495
26595WAT     H280028   8.631   5.451   4.539
26596WAT      O80029   7.668   8.545   2.880
26596WAT     H180030   7.574   8.524   2.855
26596WAT     H280031   7.721   8.460   2.884
26597WAT      O80032   6.210   7.591   5.831
26597WAT     H180033   6.302   7.590   5.793
26597WAT     H280034   6.171   7.499   5.827
26598WAT      O80035   1.662   6.531   4.805
26598WAT     H180036   1.641   6.549   4.901
26598WAT     H280037   1.578   6.504   4.757
26599WAT      O80038   8.523   2.029   5.490
26599WAT     H180039   8.550   2.086   5.412
26599WAT     H280040   8.561   2.067   5.574
26600WAT      O80041   1.848   1.131   8.872
26600WAT     H180042   1.920   1.072   8.907
26600WAT     H280043   1.813   1.189   8.946
26601WAT      O80044   7.612   0.974   8.435
26601WAT     H180045   7.608   0.915   8.515
26601WAT     H280046   7.697   1.025   8.435
26602WAT      O80047   1.969   2.697   0.113
26602WAT     H180048   1.941   2.730   0.023
26602WAT     H280049   2.063   2.727   0.132
26603WAT      O80050   6.139   4.229   1.411
26603WAT     H180051   6.064   4.258   1.351
26603WAT     H280052   6.130   4.274   1.499
26604WAT      O80053   9.243   1.430   3.386
26604WAT     H180054   9.253   1.529   3.382
26604WAT     H280055   9.287   1.395   3.469
26605WAT      O80056   8.114   4.078   5.232
26605WAT     H180057   8.050   4.038   5.167
26605WAT     H280058   8.152   4.007   5.291
26606WAT      O80059   5.932   5.144   9.512
26606WAT     H180060   6.002   5.175   9.576
26606WAT     H280061   5.884   5.065   9.551
26607WAT      O80062   8.885   1.790   9.445
26607WAT     H180063   8.820   1.858   9.480
26607WAT     H280064   8.958   1.837   9.394
26608WAT      O80065   7.610   0.705   0.682
26608WAT     H180066   7.656   0.643   0.619
26608WAT     H280067   7.526   0.662   0.716
26609WAT      O80068   5.929   2.826   0.195
26609WAT     H180069   5.873   2.904   0.223
26609WAT     H280070   5.904   2.798   0.103
26610WAT      O80071   8.068   4.450   7.582
26610WAT     H180072   8.040   4.528   7.527
26610WAT     H280073   8.055   4.366   7.530
26611WAT      O80074   6.956   9.740   2.381
26611WAT     H180075   7.031   9.752   2.446
26611WAT     H280076   6.877   9.701   2.428
26612WAT      O80077   5.526   2.538   4.623
26612WAT     H180078   5.465   2.550   4.544
26612WAT     H280079   5.510   2.611   4.689
26613WAT      O80080   5.871   6.299   1.457
26613WAT     H180081   5.950   6.267   1.405
26613WAT     H280082   5.801   6.227   1.457
26614WAT      O80083   5.627   2.970   3.118
26614WAT     H180084   5.651   2.875   3.134
26614WAT     H280085   5.647   2.995   3.023
26615WAT      O80086   8.447   0.674   4.960
26615WAT     H180087   8.508   0.700   4.885
26615WAT     H280088   8.366   0.630   4.922
26616WAT      O80089   7.438   2.117   3.539
26616WAT     H180090   7.500   2.061   3.593
26616WAT     H280091   7.468   2.213   3.543
26617WAT      O80092   6.650   8.337   6.998
26617WAT     H180093   6.733   8.331   7.052
26617WAT     H280094   6.576   8.372   7.056
26618WAT      O80095   2.216   3.174   8.927
26618WAT     H180096   2.302   3.133   8.895
26618WAT     H280097   2.213   3.171   9.027
26619WAT      O80098   9.535   7.754   7.616
26619WAT     H180099   9.457   7.816   7.615
26619WAT     H280100   9.545   7.714   7.707
26620WAT      O80101   4.159   4.193   7.007
26620WAT     H180102   4.144   4.173   7.104
26620WAT     H280103   4.180   4.109   6.958
26621WAT      O80104   1.705   1.206   5.493
26621WAT     H180105   1.658   1.273   5.437
26621WAT     H280106   1.769   1.154   5.436
26622WAT      O80107   9.312   8.479   1.639
26622WAT     H180108   9.406   8.487   1.671
26622WAT     H280109   9.249   8.483   1.716
26623WAT      O80110   8.921   4.311   5.934
26623WAT     H180111   8.893   4.330   6.028
26623WAT     H280112   8.863   4.238   5.897
26624WAT      O80113   3.033   7.961   1.510
26624WAT     H180114   3.116   7.972   1.454
26624WAT     H280115   3.037   8.024   1.587
26625WAT      O80116   3.305   8.872   0.592
26625WAT     H180117   3.318   8.964   0.555
26625WAT     H280118   3.375   8.854   0.661
26626WAT      O80119   2.589   9.817   8.839
26626WAT     H180120   2.669   9.824   8.780
26626WAT     H280121   2.549   9.726   8.831
26627WAT      O80122   5.842   2.836   7.706
26627WAT     H180123   5.865   2.932   7.687
26627WAT     H280124   5.857   2.817   7.803
26628WAT      O80125   1.512   0.206   7.463
26628WAT     H180126   1.509   0.136   7.392
26628WAT     H280127   1.587   0.185   7.526
26629WAT      O80128   9.866   1.081   6.259
26629WAT     H180129   9.824   1.169   6.280
26629WAT     H280130   9.852   1.018   6.336
26630WAT      O80131   2.173   0.028   0.161
26630WAT     H180132   2.152   0.043   0.065
26630WAT     H280133   2.269   0.053   0.178
26631WAT      O80134   9.264   2.313   2.859
26631WAT     H180135   9.319   2.388   2.894
26631WAT     H280136   9.217   2.341   2.775
26632WAT      O80137   4.140   0.062   6.978
26632WAT     H180138   4.203   0.018   7.042
26632WAT     H280139   4.141   0.013   6.891
26633WAT      O80140   3.744   3.207   2.719
26633WAT     H180141   3.724   3.305   2.710
26633WAT     H280142   3.725   3.177   2.812
26634WAT      O80143   6.741   0.641   6.408
26634WAT     H180144   6.748   0.627   6.507
26634WAT     H280145   6.666   0.703   6.388
26635WAT      O80146   3.871   3.038   7.794
26635WAT     H180147   3.887   2.953   7.744
26635WAT     H280148   3.849   3.111   7.730
26636WAT      O80149   6.652   3.929   7.402
26636WAT     H180150   6.720   4.002   7.408
26636WAT     H280151   6.655   3.875   7.486
26637WAT      O80152   3.632   7.976   6.272
26637WAT     H180153   3.606   8.005   6.364
26637WAT     H280154   3.700   7.903   6.278
26638WAT      O80155   3.528   8.889   3.827
26638WAT     H180156   3.618   8.864   3.863
26638WAT     H280157   3.482   8.950   3.892
26639WAT      O80158   0.201   8.470   2.721
26639WAT     H180159   0.107   8.451   2.693
26639WAT     H280160   0.242   8.388   2.761
26640WAT      O80161   4.652   4.514   7.443
26640WAT     H180162   4.717   4.493   7.369
26640WAT     H280163   4.701   4.556   7.519
26641WAT      O80164   1.239   1.166   9.242
26641WAT     H180165   1.266   1.145   9.336
26641WAT     H280166   1.140   1.165   9.235
26642WAT      O80167   2.743   8.716   8.981
26642WAT     H180168   2.824   8.700   9.039
26642WAT     H280169   2.755   8.802   8.931
26643WAT      O80170   9.217   0.385   1.087
26643WAT     H180171   9.242   0.456   1.154
26643WAT     H280172   9.201   0.428   0.998
26644WAT      O80173   5.720   9.068   0.336
26644WAT     H180174   5.806   9.100   0.376
26644WAT     H280175   5.644   9.120   0.375
26645WAT      O80176   3.701   0.668   0.403
26645WAT     H180177   3.763   0.726   0.456
26645WAT     H280178   3.608   0.706   0.407
26646WAT      O80179   7.076   0.775   1.920
26646WAT     H180180   7.116   0.729   1.841
26646WAT     H280181   7.147   0.826   1.968
26647WAT      O80182   1.788   3.501   1.308
26647WAT     H180183   1.820   3.556   1.231
26647WAT     H280184   1.817   3.406   1.296
26648WAT      O80185   7.650   0.788   4.286
26648WAT     H180186   7.618   0.858   4.350
26648WAT     H280187   7.572   0.749   4.238
26649WAT      O80188   2.862   1.148   6.970
26649WAT     H180189   2.912   1.234   6.982
26649WAT     H280190   2.767   1.168   6.946
26650WAT      O80191   6.359   7.192   0.404
26650WAT     H180192   6.400   7.214   0.315
26650WAT     H280193   6.268   7.155   0.390
26651WAT      O80194   3.986   5.296   1.027
26651WAT     H180195   4.057   5.275   0.959
26651WAT     H280196   3.898   5.306   0.980
26652WAT      O80197   4.883   7.853   5.184
26652WAT     H180198   4.864   7.776   5.123
26652WAT     H280199   4.848   7.937   5.143
26653WAT      O80200   0.558   1.016   8.956
26653WAT     H180201   0.495   1.070   9.012
26653WAT     H280202   0.560   1.052   8.864
26654WAT      O80203   3.303   5.824   8.862
26654WAT     H180204   3.308   5.830   8.762
26654WAT     H280205   3.270   5.911   8.898
26655WAT      O80206   0.264   4.220   1.135
26655WAT     H180207   0.168   4.244   1.124
26655WAT     H280208   0.290   4.153   1.067
26656WAT      O80209   0.722   5.979   9.601
26656WAT     H180210   0.654   5.933   9.543
26656WAT     H280211   0.811   5.935   9.590
26657WAT      O80212   5.072   7.781   6.111
26657WAT     H180213   5.062   7.844   6.033
26657WAT     H280214   5.049   7.829   6.195
26658WAT      O80215   3.454   9.699   2.207
26658WAT     H180216   3.391   9.698   2.130
26658WAT     H280217   3.520   9.624   2.197
26659WAT      O80218   0.539   9.570   7.622
26659WAT     H180219   0.473   9.589   7.549
26659WAT     H280220   0.493   9.578   7.711
26660WAT      O80221   4.916   0.207   9.827
26660WAT     H180222   4.982   0.135   9.806
26660WAT     H280223   4.915   0.223   9.926
26661WAT      O80224   1.293   4.822   4.462
26661WAT     H180225   1.262   4.740   4.511
26661WAT     H280226   1.316   4.893   4.528
26662WAT      O80227   7.398   2.500   1.127
26662WAT     H180228   7.326   2.469   1.190
26662WAT     H280229   7.357   2.557   1.055
26663WAT      O80230   6.160   2.211   5.608
26663WAT     H180231   6.155   2.273   5.686
26663WAT     H280232   6.127   2.120   5.636
26664WAT      O80233   9.525   9.292   4.613
26664WAT     H180234   9.568   9.363   4.558
26664WAT     H280235   9.590   9.255   4.679
26665WAT      O80236   7.033   6.088   9.190
26665WAT     H180237   6.940   6.094   9.155
26665WAT     H280238   7.097   6.077   9.114
26666WAT      O80239   8.984   5.243   7.401
26666WAT     H180240   8.990   5.262   7.303
26666WAT     H280241   8.920   5.168   7.416
26667WAT      O80242   5.367   8.755   2.542
26667WAT     H180243   5.424   8.832   2.513
26667WAT     H280244   5.364   8.751   2.641
26668WAT      O80245   7.962   6.933   2.977
26668WAT     H180246   7.877   6.885   2.999
26668WAT     H280247   8.020   6.939   3.059
26669WAT      O80248   4.017   3.754   3.393
26669WAT     H180249   4.114   3.732   3.405
26669WAT     H280250   4.008   3.850   3.366
26670WAT      O80251   6.153   2.552   1.651
26670WAT     H180252   6.153   2.583   1.746
26670WAT     H280253   6.171   2.629   1.590
26671WAT      O80254   0.099   9.333   6.822
26671WAT     H180255   0.058   9.264   6.882
26671WAT     H280256   0.037   9.354   6.747
26672WAT      O80257   0.332   2.215   5.532
26672WAT     H180258   0.414   2.243   5.582
26672WAT     H280259   0.336   2.249   5.438
26673WAT      O80260   3.024   8.362   4.250
26673WAT     H180261   2.965   8.348   4.171
26673WAT     H280262   3.100   8.421   4.225
26674WAT      O80263   5.220   1.615   1.933
26674WAT     H180264   5.255   1.547   1.997
26674WAT     H280265   5.142   1.662   1.974
26675WAT      O80266   5.879   7.285   6.868
26675WAT     H180267   5.822   7.214   6.829
26675WAT     H280268   5.851   7.375   6.833
26676WAT      O80269   1.635   8.351   0.147
26676WAT     H180270   1.556   8.354   0.086
26676WAT     H280271   1.617   8.408   0.227
26677WAT      O80272   8.330   6.858   1.504
26677WAT     H180273   8.357   6.934   1.563
26677WAT     H280274   8.367   6.772   1.540
26678WAT      O80275   1.022   8.537   8.345
26678WAT     H180276   1.008   8.597   8.424
26678WAT     H280277   0.942   8.478   8.334
26679WAT      O80278   7.770   4.571   0.289
26679WAT     H180279   7.799   4.528   0.203
26679WAT     H280280   7.778   4.505   0.364
26680WAT      O80281   7.249   9.340   7.277
26680WAT     H180282   7.185   9.414   7.258
26680WAT     H280283   7.294   9.357   7.365
26681WAT      O80284   6.805   4.741   6.161
26681WAT     H180285   6.867   4.664   6.178
26681WAT     H280286   6.804   4.801   6.241
26682WAT      O80287   4.740   4.234   5.445
26682WAT     H180288   4.756   4.305   5.376
26682WAT     H280289   4.752   4.273   5.536
26683WAT      O80290   6.940   1.542   6.024
26683WAT     H180291   6.903   1.511   5.936
26683WAT     H280292   7.016   1.605   6.008
26684WAT      O80293   8.196   9.807   7.251
26684WAT     H180294   8.120   9.873   7.255
26684WAT     H280295   8.182   9.745   7.174
26685WAT      O80296   7.983   5.910   4.586
26685WAT     H180297   8.020   5.995   4.547
26685WAT     H280298   8.021   5.897   4.678
26686WAT      O80299   1.602   7.237   5.367
26686WAT     H180300   1.676   7.298   5.392
26686WAT     H280301   1.523   7.252   5.427
26687WAT      O80302   0.468   8.816   9.407
26687WAT     H180303   0.495   8.848   9.498
26687WAT     H280304   0.545   8.826   9.344
26688WAT      O80305   1.390   2.321   0.715
26688WAT     H180306   1.360   2.378   0.791
26688WAT     H280307   1.332   2.338   0.636
26689WAT      O80308   7.955   6.582   3.443
26689WAT     H180309   7.889   6.557   3.514
26689WAT     H280310   7.996   6.499   3.406
26690WAT      O80311   7.847   0.042   8.768
26690WAT     H180312   7.899  -0.001   8.695
26690WAT     H280313   7.909   0.097   8.825
26691WAT      O80314   3.479   3.905   2.808
26691WAT     H180315   3.548   3.950   2.865
26691WAT     H280316   3.471   3.954   2.721
26692WAT      O80317   4.368   2.200   7.389
26692WAT     H180318   4.427   2.124   7.414
26692WAT     H280319   4.351   2.198   7.290
26693WAT      O80320   0.852   4.023   3.145
26693WAT     H180321   0.860   3.958   3.221
26693WAT     H280322   0.756   4.033   3.120
26694WAT      O80323   7.940   2.378   0.220
26694WAT     H180324   8.023   2.350   0.268
26694WAT     H280325   7.897   2.298   0.179
26695WAT      O80326   1.373   4.925   1.671
26695WAT     H180327   1.449   4.922   1.736
26695WAT     H280328   1.364   4.836   1.626
26696WAT      O80329   2.003   8.330   8.434
26696WAT     H180330   1.921   8.379   8.402
26696WAT     H280331   2.065   8.318   8.357
26697WAT      O80332   2.632   4.592   6.768
26697WAT     H180333   2.556   4.611   6.705
26697WAT     H280334   2.615   4.505   6.815
26698WAT      O80335   8.194   4.614   1.039
26698WAT     H180336   8.122   4.558   1.080
26698WAT     H280337   8.278   4.607   1.093
26699WAT      O80338   2.922   8.566   2.149
26699WAT     H180339   2.893   8.619   2.229
26699WAT     H280340   3.019   8.586   2.130
26700WAT      O80341   4.994   7.881   6.653
26700WAT     H180342   5.076   7.937   6.658
26700WAT     H280343   4.924   7.918   6.714
26701WAT      O80344   0.667   7.057   9.132
26701WAT     H180345   0.744   6.998   9.156
26701WAT     H280346   0.593   7.002   9.095
26702WAT      O80347   9.648   2.886   7.771
26702WAT     H180348   9.688   2.794   7.777
26702WAT     H280349   9.554   2.880   7.740
26703WAT      O80350   7.100   6.514   0.309
26703WAT     H180351   7.128   6.418   0.316
26703WAT     H280352   7.039   6.526   0.231
26704WAT      O80353   7.989   7.571   0.825
26704WAT     H180354   7.932   7.614   0.895
26704WAT     H280355   8.081   7.609   0.830
26705WAT      O80356   8.769   9.508   3.894
26705WAT     H180357   8.840   9.565   3.933
26705WAT     H280358   8.679   9.549   3.912
26706WAT      O80359   9.621   8.905   6.606
26706WAT     H180360   9.715   8.926   6.578
26706WAT     H280361   9.562   8.983   6.586
26707WAT      O80362   3.504   6.245   5.087
26707WAT     H180363   3.559   6.162   5.087
26707WAT     H280364   3.487   6.274   4.993
26708WAT      O80365   0.912   4.810   5.965
26708WAT     H180366   0.827   4.802   5.914
26708WAT     H280367   0.927   4.906   5.991
26709WAT      O80368   0.074   6.692   0.965
26709WAT     H180369   0.024   6.687   0.878
26709WAT     H280370   0.050   6.776   1.012
26710WAT      O80371   6.930   3.775   4.659
26710WAT     H180372   6.872   3.857   4.656
26710WAT     H280373   6.893   3.712   4.727
26711WAT      O80374   9.413   6.585   5.138
26711WAT     H180375   9.383   6.556   5.229
26711WAT     H280376   9.426   6.505   5.080
26712WAT      O80377   3.386   6.112   9.831
26712WAT     H180378   3.436   6.055   9.767
26712WAT     H280379   3.415   6.091   9.924
26713WAT      O80380   3.616   6.889   8.927
26713WAT     H180381   3.664   6.977   8.922
26713WAT     H280382   3.585   6.862   8.836
26714WAT      O80383   1.089   4.138   0.218
26714WAT     H180384   1.112   4.096   0.130
26714WAT     H280385   1.079   4.236   0.206
26715WAT      O80386   2.476   6.309   7.510
26715WAT     H180387   2.477   6.386   7.446
26715WAT     H280388   2.549   6.322   7.577
26716WAT      O80389   3.353   3.000   6.382
26716WAT     H180390   3.341   3.000   6.283
26716WAT     H280391   3.440   3.045   6.405
26717WAT      O80392   0.801   6.937   8.162
26717WAT     H180393   0.835   7.019   8.209
26717WAT     H280394   0.722   6.960   8.106
26718WAT      O80395   0.363   0.239   3.615
26718WAT     H180396   0.410   0.150   3.612
26718WAT     H280397   0.403   0.295   3.687
26719WAT      O80398   9.694   1.487   3.663
26719WAT     H180399   9.700   1.399   3.615
26719WAT     H280400   9.777   1.501   3.718
26720WAT      O80401   7.521   2.325   7.482
26720WAT     H180402   7.478   2.248   7.435
26720WAT     H280403   7.616   2.333   7.454
26721WAT      O80404   0.486   8.633   4.413
26721WAT     H180405   0.570   8.686   4.402
26721WAT     H280406   0.409   8.694   4.429
26722WAT      O80407   5.582   0.226   8.398
26722WAT     H180408   5.503   0.273   8.437
26722WAT     H280409   5.606   0.148   8.456
26723WAT      O80410   2.339   8.200   0.898
26723WAT     H180411   2.417   8.146   0.928
26723WAT     H280412   2.350   8.225   0.802
26724WAT      O80413   3.834   2.521   2.812
26724WAT     H180414   3.835   2.617   2.840
26724WAT     H280415   3.775   2.469   2.874
26725WAT      O80416   9.361   1.340   4.438
26725WAT     H180417   9.379   1.437   4.453
26725WAT     H280418   9.263   1.325   4.427
26726WAT      O80419   1.779   9.302   4.429
26726WAT     H180420   1.709   9.232   4.414
26726WAT     H280421   1.859   9.282   4.372
26727WAT      O80422   0.426   3.831   7.656
26727WAT     H180423   0.372   3.806   7.736
26727WAT     H280424   0.365   3.853   7.580
26728WAT      O80425   2.550   1.058   6.445
26728WAT     H180426   2.624   0.992   6.438
26728WAT     H280427   2.475   1.031   6.385
26729WAT      O80428   9.438   6.521   7.510
26729WAT     H180429   9.517   6.533   7.569
26729WAT     H280430   9.370   6.463   7.556
26730WAT      O80431   2.788   3.206   8.989
26730WAT     H180432   2.796   3.112   9.021
26730WAT     H280433   2.747   3.262   9.061
26731WAT      O80434   6.879   2.169   3.337
26731WAT     H180435   6.854   2.081   3.378
26731WAT     H280436   6.873   2.241   3.407
26732WAT      O80437   7.033   8.954   0.670
26732WAT     H180438   7.001   8.903   0.590
26732WAT     H280439   7.038   8.893   0.749
26733WAT      O80440   2.940   8.002   7.447
26733WAT     H180441   2.864   7.961   7.498
26733WAT     H280442   2.961   7.946   7.367
26734WAT      O80443   4.395   0.984   9.453
26734WAT     H180444   4.368   1.041   9.530
26734WAT     H280445   4.357   0.892   9.464
26735WAT      O80446   1.638   1.691   1.623
26735WAT     H180447   1.634   1.639   1.537
26735WAT     H280448   1.715   1.754   1.620
26736WAT      O80449   1.158   4.059   0.651
26736WAT     H180450   1.096   4.137   0.662
26736WAT     H280451   1.131   3.986   0.714
26737WAT      O80452   4.979   6.037   2.234
26737WAT     H180453   4.891   6.057   2.278
26737WAT     H280454   5.022   6.123   2.205
26738WAT      O80455   8.488   9.109   1.254
26738WAT     H180456   8.486   9.044   1.330
26738WAT     H280457   8.495   9.060   1.167
26739WAT      O80458   4.720   8.415   3.805
26739WAT     H180459   4.751   8.496   3.854
26739WAT     H280460   4.764   8.334   3.843
26740WAT      O80461   1.672   0.918   8.108
26740WAT     H180462   1.685   1.014   8.132
26740WAT     H280463   1.761   0.872   8.107
26741WAT      O80464   3.508   4.028   0.100
26741WAT     H180465   3.534   4.100   0.034
26741WAT     H280466   3.458   4.069   0.176
26742WAT      O80467   0.205   6.665   4.716
26742WAT     H180468   0.227   6.683   4.812
26742WAT     H280469   0.106   6.666   4.704
26743WAT      O80470   5.065   6.927   6.286
26743WAT     H180471   5.133   6.997   6.266
26743WAT     H280472   4.992   6.932   6.218
26744WAT      O80473   9.144   3.500   4.450
26744WAT     H180474   9.044   3.504   4.442
26744WAT     H280475   9.170   3.424   4.508
26745WAT      O80476   7.962   5.370   9.308
26745WAT     H180477   7.868   5.336   9.303
26745WAT     H280478   7.982   5.423   9.226
26746WAT      O80479   3.402   4.386   7.083
26746WAT     H180480   3.320   4.372   7.139
26746WAT     H280481   3.426   4.483   7.083
26747WAT      O80482   0.560   4.626   6.178
26747WAT     H180483   0.492   4.621   6.105
26747WAT     H280484   0.542   4.556   6.247
26748WAT      O80485   4.677   0.803   4.599
26748WAT     H180486   4.694   0.705   4.585
26748WAT     H280487   4.730   0.856   4.533
26749WAT      O80488   4.167   6.065   0.387
26749WAT     H180489   4.103   6.111   0.447
26749WAT     H280490   4.257   6.108   0.394
26750WAT      O80491   3.573   3.775   7.424
26750WAT     H180492   3.658   3.813   7.388
26750WAT     H280493   3.591   3.686   7.466
26751WAT      O80494   3.040   9.714   5.326
26751WAT     H180495   3.100   9.708   5.406
26751WAT     H280496   2.984   9.632   5.320
26752WAT      O80497   7.288   1.233   5.435
26752WAT     H180498   7.241   1.317   5.406
26752WAT     H280499   7.221   1.162   5.453
26753WAT      O80500   9.129   2.761   9.758
26753WAT     H180501   9.173   2.701   9.824
26753WAT     H280502   9.048   2.803   9.799
26754WAT      O80503   3.122   8.010   9.268
26754WAT     H180504   3.138   7.916   9.299
26754WAT     H280505   3.109   8.069   9.348
26755WAT      O80506   3.799   6.526   1.759
26755WAT     H180507   3.870   6.532   1.828
26755WAT     H280508   3.841   6.515   1.669
26756WAT      O80509   1.721   2.363   7.446
26756WAT     H180510   1.711   2.427   7.371
26756WAT     H280511   1.768   2.407   7.523
26757WAT      O80512   3.730   8.335   3.420
26757WAT     H180513   3.752   8.262   3.484
26757WAT     H280514   3.798   8.337   3.347
26758WAT      O80515   4.590   9.830   0.804
26758WAT     H180516   4.595   9.876   0.893
26758WAT     H280517   4.631   9.887   0.734
26759WAT      O80518   6.228   7.947   7.211
26759WAT     H180519   6.197   7.854   7.229
26759WAT     H280520   6.296   7.973   7.280
26760WAT      O80521   3.064   2.913   8.182
26760WAT     H180522   3.048   2.993   8.125
26760WAT     H280523   2.995   2.843   8.163
26761WAT      O80524   2.894   7.267   0.168
26761WAT     H180525   2.891   7.183   0.222
26761WAT     H280526   2.877   7.345   0.228
26762WAT      O80527   3.090   5.077   9.439
26762WAT     H180528   3.182   5.050   9.410
26762WAT     H280529   3.029   4.998   9.434
26763WAT      O80530   0.771   2.317   0.933
26763WAT     H180531   0.679   2.282   0.920
26763WAT     H280532   0.833   2.275   0.866
26764WAT      O80533   1.256   2.687   4.608
26764WAT     H180534   1.242   2.786   4.617
26764WAT     H280535   1.188   2.649   4.547
26765WAT      O80536   9.245   4.563   9.437
26765WAT     H180537   9.276   4.485   9.383
26765WAT     H280538   9.199   4.530   9.520
26766WAT      O80539   5.061   8.262   7.705
26766WAT     H180540   5.143   8.318   7.690
26766WAT     H280541   5.085   8.165   7.695
26767WAT      O80542   3.347   1.369   2.156
26767WAT     H180543   3.359   1.455   2.205
26767WAT     H280544   3.408   1.300   2.195
26768WAT      O80545   5.192   7.999   7.563
26768WAT     H180546   5.290   8.014   7.572
26768WAT     H280547   5.171   7.904   7.588
26769WAT      O80548   8.069   2.635   4.015
26769WAT     H180549   8.085   2.537   4.028
26769WAT     H280550   8.052   2.678   4.104
26770WAT      O80551   2.501   5.276   0.472
26770WAT     H180552   2.536   5.199   0.526
26770WAT     H280553   2.555   5.357   0.490
26771WAT      O80554   1.816   9.691   3.056
26771WAT     H180555   1.854   9.681   3.148
26771WAT     H280556   1.876   9.751   3.002
26772WAT      O80557   4.717   9.629   9.104
26772WAT     H180558   4.689   9.723   9.124
26772WAT     H280559   4.753   9.624   9.011
26773WAT      O80560   3.034   0.636   5.011
26773WAT     H180561   2.967   0.596   4.948
26773WAT     H280562   3.010   0.731   5.030
26774WAT      O80563   7.114   1.050   5.979
26774WAT     H180564   7.200   1.005   6.001
26774WAT     H280565   7.079   1.014   5.892
26775WAT      O80566   6.556   1.285   0.971
26775WAT     H180567   6.542   1.204   0.914
26775WAT     H280568   6.527   1.265   1.065
26776WAT      O80569   0.471   7.085   0.852
26776WAT     H180570   0.487   7.177   0.886
26776WAT     H280571   0.541   7.061   0.785
26777WAT      O80572   7.824   0.659   3.249
26777WAT     H180573   7.820   0.564   3.217
26777WAT     H280574   7.884   0.712   3.188
26778WAT      O80575   3.381   0.594   3.748
26778WAT     H180576   3.438   0.523   3.707
26778WAT     H280577   3.436   0.652   3.808
26779WAT      O80578   5.596   0.929   3.044
26779WAT     H180579   5.563   0.877   2.966
26779WAT     H280580   5.518   0.970   3.092
26780WAT      O80581   5.722   7.618   4.851
26780WAT     H180582   5.713   7.521   4.875
26780WAT     H280583   5.727   7.627   4.752
26781WAT      O80584   8.635   3.629   0.093
26781WAT     H180585   8.680   3.645   0.181
26781WAT     H280586   8.635   3.531   0.073
26782WAT      O80587   3.270   1.396   7.982
26782WAT     H180588   3.205   1.450   8.036
26782WAT     H280589   3.271   1.429   7.888
26783WAT      O80590   5.121   0.194   0.482
26783WAT     H180591   5.037   0.246   0.498
26783WAT     H280592   5.109   0.137   0.400
26784WAT      O80593   5.546   8.442   2.610
26784WAT     H180594   5.642   8.447   2.581
26784WAT     H280595   5.542   8.412   2.705
26785WAT      O80596   7.066   9.133   1.347
26785WAT     H180597   6.993   9.138   1.280
26785WAT     H280598   7.063   9.213   1.407
26786WAT      O80599   3.295   0.197   2.048
26786WAT     H180600   3.220   0.181   1.983
26786WAT     H280601   3.260   0.190   2.141
26787WAT      O80602   3.954   1.653   3.857
26787WAT     H180603   3.869   1.606   3.880
26787WAT     H280604   4.011   1.592   3.801
26788WAT      O80605   6.214   9.536   2.546
26788WAT     H180606   6.144   9.513   2.614
26788WAT     H280607   6.286   9.466   2.547
26789WAT      O80608   6.435   9.196   2.000
26789WAT     H180609   6.350   9.243   1.976
26789WAT     H280610   6.419   9.098   2.007
26790WAT      O80611   3.551   1.191   4.513
26790WAT     H180612   3.649   1.176   4.509
26790WAT     H280613   3.503   1.112   4.474
26791WAT      O80614   6.115   2.053   7.284
26791WAT     H180615   6.083   1.985   7.351
26791WAT     H280616   6.042   2.072   7.218
26792WAT      O80617   2.046   5.031   3.882
26792WAT     H180618   2.051   5.112   3.940
26792WAT     H280619   1.963   5.035   3.826
26793WAT      O80620   9.240   8.346   7.867
26793WAT     H180621   9.250   8.352   7.967
26793WAT     H280622   9.202   8.257   7.843
26794WAT      O80623   2.337   9.560   1.563
26794WAT     H180624   2.317   9.490   1.631
26794WAT     H280625   2.251   9.593   1.523
26795WAT      O80626   2.305   7.036   7.890
26795WAT     H180627   2.310   7.063   7.986
26795WAT     H280628   2.213   7.056   7.855
26796WAT      O80629   0.494   2.334   5.707
26796WAT     H180630   0.554   2.277   5.762
26796WAT     H280631   0.459   2.409   5.763
26797WAT      O80632   5.831   2.879   9.492
26797WAT     H180633   5.849   2.792   9.448
26797WAT     H280634   5.737   2.908   9.471
26798WAT      O80635   5.541   8.513   0.232
26798WAT     H180636   5.505   8.607   0.227
26798WAT     H280637   5.617   8.503   0.168
26799WAT      O80638   7.155   9.580   6.609
26799WAT     H180639   7.073   9.546   6.656
26799WAT     H280640   7.156   9.545   6.515
26800WAT      O80641   6.010   0.660   7.218
26800WAT     H180642   6.065   0.698   7.144
26800WAT     H280643   6.012   0.723   7.296
26801WAT      O80644   6.409   1.041   3.504
26801WAT     H180645   6.319   1.016   3.539
26801WAT     H280646   6.415   1.017   3.406
26802WAT      O80647   0.738   8.917   6.565
26802WAT     H180648   0.722   8.977   6.486
26802WAT     H280649   0.687   8.832   6.553
26803WAT      O80650   9.075   7.423   4.662
26803WAT     H180651   9.105   7.344   4.609
26803WAT     H280652   9.006   7.474   4.611
26804WAT      O80653   6.039   5.973   0.641
26804WAT     H180654   5.966   6.038   0.620
26804WAT     H280655   6.024   5.935   0.732
26805WAT      O80656   3.848   7.145   4.171
26805WAT     H180657   3.922   7.208   4.193
26805WAT     H280658   3.863   7.058   4.218
26806WAT      O80659   1.897   8.745   3.720
26806WAT     H180660   1.994   8.764   3.703
26806WAT     H280661   1.863   8.681   3.651
26807WAT      O80662   5.689   4.478   9.346
26807WAT     H180663   5.654   4.498   9.254
26807WAT     H280664   5.772   4.532   9.362
26808WAT      O80665   8.931   9.042   7.955
26808WAT     H180666   9.016   9.071   7.911
26808WAT     H280667   8.873   9.122   7.971
26809WAT      O80668   1.821   4.272   4.645
26809WAT     H180669   1.863   4.343   4.701
26809WAT     H280670   1.751   4.312   4.586
26810WAT      O80671   2.743   8.581   2.446
26810WAT     H180672   2.677   8.653   2.421
26810WAT     H280673   2.716   8.495   2.403
26811WAT      O80674   1.645   6.965   5.968
26811WAT     H180675   1.580   6.888   5.968
26811WAT     H280676   1.708   6.955   6.044
26812WAT      O80677   6.396   1.776   8.128
26812WAT     H180678   6.446   1.698   8.091
26812WAT     H280679   6.449   1.817   8.202
26813WAT      O80680   8.215   2.786   7.439
26813WAT     H180681   8.279   2.798   7.363
26813WAT     H280682   8.261   2.739   7.514
26814WAT      O80683   5.224   9.338   8.942
26814WAT     H180684   5.223   9.321   9.041
26814WAT     H280685   5.181   9.426   8.923
26815WAT      O80686   4.238   4.933   1.390
26815WAT     H180687   4.192   5.021   1.375
26815WAT     H280688   4.310   4.945   1.459
26816WAT      O80689   0.308   2.001   9.739
26816WAT     H180690   0.251   2.079   9.714
26816WAT     H280691   0.380   1.988   9.671
26817WAT      O80692   3.742   1.417   2.923
26817WAT     H180693   3.761   1.449   2.831
26817WAT     H280694   3.792   1.332   2.939
26818WAT      O80695   0.623   0.690   0.487
26818WAT     H180696   0.679   0.607   0.490
26818WAT     H280697   0.663   0.759   0.548
26819WAT      O80698   3.384   1.022   4.236
26819WAT     H180699   3.312   1.085   4.206
26819WAT     H280700   3.366   0.993   4.330
26820WAT      O80701   5.314   8.821   8.072
26820WAT     H180702   5.274   8.912   8.061
26820WAT     H280703   5.247   8.751   8.047
26821WAT      O80704   7.060   8.049   7.985
26821WAT     H180705   7.048   7.950   7.994
26821WAT     H280706   6.971   8.091   7.965
26822WAT      O80707   1.645   6.427   5.966
26822WAT     H180708   1.625   6.417   5.868
26822WAT     H280709   1.705   6.352   5.996
26823WAT      O80710   1.640   9.754   0.327
26823WAT     H180711   1.629   9.727   0.231
26823WAT     H280712   1.590   9.839   0.344
26824WAT      O80713   7.621   5.462   1.801
26824WAT     H180714   7.622   5.516   1.717
26824WAT     H280715   7.615   5.522   1.880
26825WAT      O80716   7.412   1.822   3.013
26825WAT     H180717   7.319   1.785   3.022
26825WAT     H280718   7.472   1.752   2.975
26826WAT      O80719   7.084   5.821   4.513
26826WAT     H180720   7.019   5.794   4.441
26826WAT     H280721   7.124   5.909   4.489
26827WAT      O80722   0.993   6.392   5.984
26827WAT     H180723   0.960   6.440   6.065
26827WAT     H280724   1.079   6.432   5.954
26828WAT      O80725   0.985   6.442   5.381
26828WAT     H180726   1.024   6.413   5.469
26828WAT     H280727   0.975   6.362   5.322
26829WAT      O80728   1.546   7.510   0.539
26829WAT     H180729   1.594   7.487   0.623
26829WAT     H280730   1.477   7.441   0.520
26830WAT      O80731   7.261   7.703   3.748
26830WAT     H180732   7.361   7.698   3.744
26830WAT     H280733   7.224   7.700   3.655
26831WAT      O80734   8.537   6.188   8.695
26831WAT     H180735   8.447   6.211   8.733
26831WAT     H280736   8.574   6.267   8.647
26832WAT      O80737   5.613   3.389   3.305
26832WAT     H180738   5.524   3.387   3.349
26832WAT     H280739   5.680   3.341   3.361
26833WAT      O80740   0.581   6.813   0.060
26833WAT     H180741   0.527   6.894   0.086
26833WAT     H280742   0.522   6.732   0.061
26834WAT      O80743   1.053   2.278   1.758
26834WAT     H180744   0.997   2.360   1.745
26834WAT     H280745   1.066   2.261   1.855
26835WAT      O80746   7.340   3.744   2.265
26835WAT     H180747   7.320   3.838   2.238
26835WAT     H280748   7.353   3.688   2.183
26836WAT      O80749   6.346   5.773   4.926
26836WAT     H180750   6.346   5.748   4.830
26836WAT     H280751   6.269   5.728   4.972
26837WAT      O80752   1.679   5.235   7.381
26837WAT     H180753   1.676   5.291   7.463
26837WAT     H280754   1.773   5.232   7.346
26838WAT      O80755   2.387   9.354   5.971
26838WAT     H180756   2.483   9.351   5.943
26838WAT     H280757   2.380   9.396   6.062
26839WAT      O80758   1.568   7.543   2.735
26839WAT     H180759   1.558   7.601   2.816
26839WAT     H280760   1.585   7.449   2.763
26840WAT      O80761   2.427   6.202   5.615
26840WAT     H180762   2.354   6.148   5.574
26840WAT     H280763   2.452   6.163   5.703
26841WAT      O80764   6.933   2.374   9.303
26841WAT     H180765   6.858   2.325   9.347
26841WAT     H280766   6.921   2.369   9.203
26842WAT      O80767   2.520   4.569   4.481
26842WAT     H180768   2.492   4.534   4.571
26842WAT     H280769   2.446   4.624   4.443
26843WAT      O80770   5.540   9.743   2.332
26843WAT     H180771   5.611   9.757   2.263
26843WAT     H280772   5.463   9.693   2.293
26844WAT      O80773   7.369   6.817   0.673
26844WAT     H180774   7.303   6.781   0.607
26844WAT     H280775   7.425   6.742   0.709
26845WAT      O80776   6.898   1.430   0.848
26845WAT     H180777   6.957   1.352   0.871
26845WAT     H280778   6.947   1.491   0.785
26846WAT      O80779   3.024   9.477   6.124
26846WAT     H180780   3.061   9.423   6.049
26846WAT     H280781   3.098   9.530   6.167
26847WAT      O80782   2.455   0.450   2.342
26847WAT     H180783   2.480   0.359   2.377
26847WAT     H280784   2.507   0.469   2.259
26848WAT      O80785   9.500   1.247   4.643
26848WAT     H180786   9.447   1.280   4.565
26848WAT     H280787   9.441   1.241   4.723
26849WAT      O80788   3.136   2.250   2.816
26849WAT     H180789   3.042   2.274   2.842
26849WAT     H280790   3.182   2.206   2.893
26850WAT      O80791   8.126   6.383   4.403
26850WAT     H180792   8.150   6.293   4.439
26850WAT     H280793   8.196   6.413   4.339
26851WAT      O80794   3.189   8.369   2.480
26851WAT     H180795   3.116   8.301   2.480
26851WAT     H280796   3.241   8.363   2.395
26852WAT      O80797   6.510   7.572   5.797
26852WAT     H180798   6.604   7.589   5.768
26852WAT     H280799   6.509   7.553   5.896
26853WAT      O80800   5.962   1.421   3.594
26853WAT     H180801   5.920   1.490   3.654
26853WAT     H280802   5.905   1.410   3.512
26854WAT      O80803   0.993   1.857   8.106
26854WAT     H180804   0.945   1.939   8.076
26854WAT     H280805   0.993   1.789   8.033
26855WAT      O80806   8.147   4.507   9.113
26855WAT     H180807   8.124   4.604   9.106
26855WAT     H280808   8.205   4.480   9.036
26856WAT      O80809   6.488   8.452   9.714
26856WAT     H180810   6.421   8.423   9.782
26856WAT     H280811   6.580   8.445   9.753
26857WAT      O80812   4.768   9.805   8.203
26857WAT     H180813   4.831   9.883   8.206
26857WAT     H280814   4.820   9.721   8.186
26858WAT      O80815   5.437   0.945   4.324
26858WAT     H180816   5.502   0.889   4.376
26858WAT     H280817   5.456   1.042   4.340
26859WAT      O80818   1.725   5.014   3.198
26859WAT     H180819   1.631   4.980   3.204
26859WAT     H280820   1.738   5.088   3.264
26860WAT      O80821   3.614   1.351   5.710
26860WAT     H180822   3.613   1.422   5.780
26860WAT     H280823   3.708   1.327   5.688
26861WAT      O80824   8.131   8.164   5.591
26861WAT     H180825   8.220   8.201   5.566
26861WAT     H280826   8.088   8.126   5.509
26862WAT      O80827   6.713   6.821   6.101
26862WAT     H180828   6.744   6.801   6.194
26862WAT     H280829   6.770   6.770   6.036
26863WAT      O80830   1.640   7.445   9.150
26863WAT     H180831   1.729   7.415   9.115
26863WAT     H280832   1.569   7.422   9.083
26864WAT      O80833   8.020   7.391   9.702
26864WAT     H180834   7.963   7.452   9.756
26864WAT     H280835   7.976   7.301   9.696
26865WAT      O80836   8.814   3.548   7.962
26865WAT     H180837   8.714   3.541   7.967
26865WAT     H280838   8.842   3.567   7.868
26866WAT      O80839   9.370   2.924   5.568
26866WAT     H180840   9.308   3.002   5.580
26866WAT     H280841   9.373   2.871   5.652
26867WAT      O80842   1.880   8.079   0.539
26867WAT     H180843   1.922   7.990   0.558
26867WAT     H280844   1.887   8.099   0.442
26868WAT      O80845   8.026   0.258   2.860
26868WAT     H180846   7.997   0.354   2.858
26868WAT     H280847   8.124   0.253   2.844
26869WAT      O80848   2.340   9.412   1.167
26869WAT     H180849   2.406   9.487   1.178
26869WAT     H280850   2.286   9.428   1.084
26870WAT      O80851   1.377   3.174   7.762
26870WAT     H180852   1.344   3.133   7.678
26870WAT     H280853   1.438   3.110   7.809
26871WAT      O80854   3.849   8.861   7.012
26871WAT     H180855   3.885   8.853   6.919
26871WAT     H280856   3.856   8.955   7.043
26872WAT      O80857   5.434   8.629   1.923
26872WAT     H180858   5.342   8.656   1.953
26872WAT     H280859   5.498   8.640   1.998
26873WAT      O80860   3.009   8.001   6.175
26873WAT     H180861   2.968   7.997   6.084
26873WAT     H280862   3.099   8.044   6.170
26874WAT      O80863   5.811   3.758   5.863
26874WAT     H180864   5.908   3.775   5.881
26874WAT     H280865   5.793   3.764   5.765
26875WAT      O80866   8.673   5.302   8.597
26875WAT     H180867   8.653   5.205   8.608
26875WAT     H280868   8.770   5.314   8.574
26876WAT      O80869   6.922   2.045   7.511
26876WAT     H180870   6.882   2.111   7.575
26876WAT     H280871   6.862   2.036   7.431
26877WAT      O80872   4.967   1.472   4.133
26877WAT     H180873   4.998   1.504   4.223
26877WAT     H280874   4.918   1.386   4.143
26878WAT      O80875   5.858   0.037   1.436
26878WAT     H180876   5.904  -0.036   1.385
26878WAT     H280877   5.848   0.117   1.378
26879WAT      O80878   1.115   6.882   4.898
26879WAT     H180879   1.072   6.896   4.986
26879WAT     H280880   1.202   6.932   4.895
26880WAT      O80881   2.693   8.099   2.530
26880WAT     H180882   2.616   8.061   2.478
26880WAT     H280883   2.660   8.173   2.588
26881WAT      O80884   2.031   2.052   6.396
26881WAT     H180885   2.086   2.096   6.324
26881WAT     H280886   2.083   1.978   6.437
26882WAT      O80887   2.577   6.578   5.929
26882WAT     H180888   2.522   6.659   5.912
26882WAT     H280889   2.552   6.505   5.865
26883WAT      O80890   8.812   9.425   0.005
26883WAT     H180891   8.745   9.493   0.036
26883WAT     H280892   8.764   9.347  -0.034
26884WAT      O80893   4.935   0.794   9.154
26884WAT     H180894   4.839   0.766   9.155
26884WAT     H280895   4.981   0.751   9.077
26885WAT      O80896   3.989   0.284   6.530
26885WAT     H180897   4.031   0.227   6.460
26885WAT     H280898   4.009   0.380   6.512
26886WAT      O80899   9.734   2.561   6.621
26886WAT     H180900   9.819   2.509   6.607
26886WAT     H280901   9.749   2.631   6.691
26887WAT      O80902   3.228   7.232   6.919
26887WAT     H180903   3.167   7.241   6.997
26887WAT     H280904   3.320   7.262   6.946
26888WAT      O80905   4.668   1.926   8.639
26888WAT     H180906   4.578   1.894   8.609
26888WAT     H280907   4.715   1.973   8.564
26889WAT      O80908   4.371   7.678   4.636
26889WAT     H180909   4.333   7.618   4.706
26889WAT     H280910   4.435   7.627   4.578
26890WAT      O80911   5.558   8.401   2.196
26890WAT     H180912   5.575   8.334   2.124
26890WAT     H280913   5.461   8.422   2.201
26891WAT      O80914   3.874   7.629   7.083
26891WAT     H180915   3.823   7.681   7.014
26891WAT     H280916   3.813   7.560   7.124
26892WAT      O80917   7.652   2.639   2.800
26892WAT     H180918   7.696   2.557   2.763
26892WAT     H280919   7.703   2.670   2.880
26893WAT      O80920   6.803   0.005   0.694
26893WAT     H180921   6.706   0.022   0.676
26893WAT     H280922   6.858   0.051   0.625
26894WAT      O80923   2.521   8.983   6.573
26894WAT     H180924   2.538   9.079   6.550
26894WAT     H280925   2.447   8.978   6.640
26895WAT      O80926   5.946   1.493   1.587
26895WAT     H180927   6.010   1.425   1.623
26895WAT     H280928   5.917   1.466   1.495
26896WAT      O80929   1.911   1.753   3.404
26896WAT     H180930   1.838   1.715   3.461
26896WAT     H280931   1.944   1.838   3.444
26897WAT      O80932   3.534   2.804   5.284
26897WAT     H180933   3.482   2.776   5.203
26897WAT     H280934   3.626   2.765   5.280
26898WAT      O80935   5.897   5.823   4.559
26898WAT     H180936   5.877   5.921   4.562
26898WAT     H280937   5.847   5.777   4.633
26899WAT      O80938   4.407   6.974   1.029
26899WAT     H180939   4.403   6.947   0.933
26899WAT     H280940   4.419   7.073   1.035
26900WAT      O80941   9.868   8.915   3.016
26900WAT     H180942   9.795   8.968   3.059
26900WAT     H280943   9.872   8.825   3.059
26901WAT      O80944   2.044   8.856   8.156
26901WAT     H180945   2.063   8.893   8.065
26901WAT     H280946   2.091   8.768   8.166
26902WAT      O80947   3.683   0.372   9.049
26902WAT     H180948   3.667   0.393   9.145
26902WAT     H280949   3.615   0.305   9.017
26903WAT      O80950   3.462   2.649   3.577
26903WAT     H180951   3.474   2.556   3.543
26903WAT     H280952   3.538   2.706   3.546
26904WAT      O80953   1.405   5.908   9.208
26904WAT     H180954   1.359   5.832   9.162
26904WAT     H280955   1.339   5.980   9.226
26905WAT      O80956   2.601   6.154   9.714
26905WAT     H180957   2.607   6.064   9.671
26905WAT     H280958   2.689   6.200   9.707
26906WAT      O80959   2.676   5.848   1.634
26906WAT     H180960   2.644   5.942   1.621
26906WAT     H280961   2.772   5.848   1.658
26907WAT      O80962   0.463   5.884   6.422
26907WAT     H180963   0.401   5.962   6.426
26907WAT     H280964   0.410   5.799   6.428
26908WAT      O80965   9.473   2.625   1.713
26908WAT     H180966   9.426   2.701   1.759
26908WAT     H280967   9.406   2.556   1.687
26909WAT      O80968   1.826   8.998   5.694
26909WAT     H180969   1.786   8.916   5.653
26909WAT     H280970   1.919   8.978   5.725
26910WAT      O80971   2.970   8.110   7.162
26910WAT     H180972   2.870   8.110   7.161
26910WAT     H280973   3.004   8.085   7.071
26911WAT      O80974   2.749   6.727   6.087
26911WAT     H180975   2.826   6.678   6.127
26911WAT     H280976   2.684   6.662   6.048
26912WAT      O80977   3.022   8.168   9.483
26912WAT     H180978   2.978   8.202   9.400
26912WAT     H280979   3.044   8.245   9.543
26913WAT      O80980   1.543   1.812   5.302
26913WAT     H180981   1.585   1.722   5.289
26913WAT     H280982   1.614   1.877   5.329
26914WAT      O80983   8.811   1.458   6.898
26914WAT     H180984   8.795   1.369   6.856
26914WAT     H280985   8.872   1.512   6.841
26915WAT      O80986   7.861   3.718   1.163
26915WAT     H180987   7.801   3.637   1.161
26915WAT     H280988   7.956   3.688   1.155
26916WAT      O80989   2.630   8.777   6.673
26916WAT     H180990   2.715   8.796   6.624
26916WAT     H280991   2.558   8.838   6.640
26917WAT      O80992   5.782   9.810   3.340
26917WAT     H180993   5.723   9.743   3.386
26917WAT     H280994   5.872   9.770   3.323
26918WAT      O80995   0.248   6.740   9.404
26918WAT     H180996   0.239   6.717   9.307
26918WAT     H280997   0.315   6.680   9.447
26919WAT      O80998   7.659   6.212   8.904
26919WAT     H180999   7.742   6.259   8.935
26919WAT     H281000   7.591   6.213   8.978
26920WAT      O81001   3.422   9.455   5.582
26920WAT     H181002   3.331   9.450   5.542
26920WAT     H281003   3.486   9.493   5.514
26921WAT      O81004   7.062   6.707   7.769
26921WAT     H181005   7.120   6.768   7.823
26921WAT     H281006   7.092   6.709   7.674
26922WAT      O81007   8.249   7.298   6.225
26922WAT     H181008   8.219   7.354   6.148
26922WAT     H281009   8.201   7.327   6.308
26923WAT      O81010   1.140   0.940   3.877
26923WAT     H181011   1.119   0.867   3.942
26923WAT     H281012   1.175   1.020   3.926
26924WAT      O81013   6.921   9.801   1.355
26924WAT     H181014   6.898   9.746   1.435
26924WAT     H281015   6.878   9.763   1.274
26925WAT      O81016   6.893   4.827   8.932
26925WAT     H181017   6.897   4.921   8.899
26925WAT     H281018   6.969   4.810   8.995
26926WAT      O81019   2.643   3.234   0.368
26926WAT     H181020   2.738   3.206   0.356
26926WAT     H281021   2.617   3.226   0.464
26927WAT      O81022   5.062   0.222   4.383
26927WAT     H181023   5.101   0.172   4.460
26927WAT     H281024   4.991   0.284   4.415
26928WAT      O81025   8.382   0.010   4.449
26928WAT     H181026   8.404   0.099   4.408
26928WAT     H281027   8.458  -0.053   4.434
26929WAT      O81028   1.882   0.833   1.062
26929WAT     H181029   1.896   0.752   1.120
26929WAT     H281030   1.926   0.819   0.974
26930WAT      O81031   1.956   4.141   4.442
26930WAT     H181032   1.928   4.184   4.528
26930WAT     H281033   2.019   4.202   4.394
26931WAT      O81034   1.239   6.526   3.381
26931WAT     H181035   1.198   6.487   3.464
26931WAT     H281036   1.246   6.454   3.312
26932WAT      O81037   1.252   8.181   8.164
26932WAT     H181038   1.154   8.162   8.159
26932WAT     H281039   1.300   8.103   8.204
26933WAT      O81040   9.748   0.672   4.786
26933WAT     H181041   9.800   0.742   4.736
26933WAT     H281042   9.713   0.604   4.722
26934WAT      O81043   5.912   8.699   3.274
26934WAT     H181044   5.989   8.758   3.249
26934WAT     H281045   5.946   8.607   3.295
26935WAT      O81046   9.765   6.717   7.182
26935WAT     H181047   9.859   6.698   7.210
26935WAT     H281048   9.747   6.673   7.094
26936WAT      O81049   0.122   0.939   0.574
26936WAT     H181050   0.183   0.862   0.554
26936WAT     H281051   0.135   0.969   0.668
26937WAT      O81052   5.144   6.374   1.148
26937WAT     H181053   5.216   6.406   1.087
26937WAT     H281054   5.145   6.427   1.232
26938WAT      O81055   8.855   2.928   1.278
26938WAT     H181056   8.834   2.854   1.215
26938WAT     H281057   8.871   3.013   1.227
26939WAT      O81058   2.699   8.274   1.129
26939WAT     H181059   2.679   8.362   1.087
26939WAT     H281060   2.762   8.287   1.206
26940WAT      O81061   4.356   3.330   0.520
26940WAT     H181062   4.260   3.305   0.514
26940WAT     H281063   4.397   3.288   0.602
26941WAT      O81064   4.352   8.185   1.128
26941WAT     H181065   4.269   8.240   1.116
26941WAT     H281066   4.344   8.132   1.213
26942WAT      O81067   3.500   3.557   9.045
26942WAT     H181068   3.480   3.464   9.078
26942WAT     H281069   3.443   3.623   9.094
26943WAT      O81070   3.284   2.986   6.665
26943WAT     H181071   3.313   2.987   6.570
26943WAT     H281072   3.188   2.956   6.670
26944WAT      O81073   9.751   0.986   3.956
26944WAT     H181074   9.720   0.912   4.017
26944WAT     H281075   9.729   1.074   3.998
26945WAT      O81076   4.904   9.088   4.415
26945WAT     H181077   4.842   9.137   4.476
26945WAT     H281078   4.876   8.992   4.409
26946WAT      O81079   5.922   9.289   8.389
26946WAT     H181080   5.828   9.311   8.361
26946WAT     H281081   5.973   9.373   8.405
26947WAT      O81082   6.526   3.531   4.458
26947WAT     H181083   6.486   3.622   4.457
26947WAT     H281084   6.616   3.533   4.416
26948WAT      O81085   3.440   6.800   0.015
26948WAT     H181086   3.452   6.710  -0.027
26948WAT     H281087   3.346   6.830   0.002
26949WAT      O81088   4.993   0.063   6.034
26949WAT     H181089   4.923  -0.004   6.057
26949WAT     H281090   5.011   0.061   5.935
26950WAT      O81091   4.070   2.829   9.558
26950WAT     H181092   4.088   2.734   9.583
26950WAT     H281093   4.151   2.885   9.578
26951WAT      O81094   3.223   6.755   6.863
26951WAT     H181095   3.222   6.806   6.949
26951WAT     H281096   3.158   6.796   6.799
26952WAT      O81097   3.025   2.235   8.182
26952WAT     H181098   3.065   2.144   8.176
26952WAT     H281099   2.978   2.257   8.096
26953WAT      O81100   4.602   8.723   5.583
26953WAT     H181101   4.649   8.664   5.517
26953WAT     H281102   4.593   8.815   5.545
26954WAT      O81103   0.075   7.371   9.356
26954WAT     H181104   0.068   7.272   9.362
26954WAT     H281105   0.104   7.398   9.264
26955WAT      O81106   6.255   3.989   9.831
26955WAT     H181107   6.271   4.085   9.805
26955WAT     H281108   6.335   3.934   9.808
26956WAT      O81109   5.219   7.526   0.947
26956WAT     H181110   5.248   7.444   0.996
26956WAT     H281111   5.123   7.546   0.969
26957WAT      O81112   5.849   8.560   0.896
26957WAT     H181113   5.920   8.623   0.865
26957WAT     H281114   5.812   8.511   0.817
26958WAT      O81115   0.631   3.441   1.363
26958WAT     H181116   0.660   3.405   1.275
26958WAT     H281117   0.616   3.539   1.356
26959WAT      O81118   1.647   7.980   7.964
26959WAT     H181119   1.630   8.058   8.024
26959WAT     H281120   1.564   7.923   7.959
26960WAT      O81121   5.826   5.633   4.367
26960WAT     H181122   5.786   5.655   4.278
26960WAT     H281123   5.873   5.714   4.403
26961WAT      O81124   1.857   1.642   5.040
26961WAT     H181125   1.855   1.609   5.134
26961WAT     H281126   1.860   1.564   4.978
26962WAT      O81127   8.381   0.676   6.723
26962WAT     H181128   8.298   0.635   6.762
26962WAT     H281129   8.461   0.641   6.771
26963WAT      O81130   9.674   3.225   2.382
26963WAT     H181131   9.703   3.306   2.332
26963WAT     H281132   9.728   3.216   2.466
26964WAT      O81133   1.754   5.587   5.052
26964WAT     H181134   1.690   5.570   5.127
26964WAT     H281135   1.827   5.647   5.084
26965WAT      O81136   3.306   0.773   2.407
26965WAT     H181137   3.278   0.793   2.313
26965WAT     H281138   3.364   0.692   2.407
26966WAT      O81139   1.027   3.860   1.908
26966WAT     H181140   1.022   3.881   2.006
26966WAT     H281141   0.989   3.935   1.855
26967WAT      O81142   4.795   2.563   0.106
26967WAT     H181143   4.880   2.556   0.053
26967WAT     H281144   4.808   2.628   0.181
26968WAT      O81145   5.310   8.257   8.779
26968WAT     H181146   5.264   8.328   8.833
26968WAT     H281147   5.394   8.229   8.826
26969WAT      O81148   1.818   3.322   0.101
26969WAT     H181149   1.910   3.337   0.063
26969WAT     H281150   1.754   3.385   0.058
26970WAT      O81151   2.162   1.501   2.028
26970WAT     H181152   2.111   1.437   1.970
26970WAT     H281153   2.149   1.475   2.124
26971WAT      O81154   1.155   5.228   8.917
26971WAT     H181155   1.183   5.180   8.835
26971WAT     H281156   1.063   5.199   8.944
26972WAT      O81157   8.911   9.190   0.457
26972WAT     H181158   8.843   9.241   0.509
26972WAT     H281159   8.990   9.248   0.438
26973WAT      O81160   4.509   9.045   1.157
26973WAT     H181161   4.529   8.965   1.214
26973WAT     H281162   4.592   9.100   1.146
26974WAT      O81163   8.185   3.098   7.902
26974WAT     H181164   8.096   3.106   7.858
26974WAT     H281165   8.174   3.055   7.992
26975WAT      O81166   9.458   5.560   5.179
26975WAT     H181167   9.483   5.630   5.112
26975WAT     H281168   9.519   5.566   5.258
26976WAT      O81169   5.584   9.540   9.851
26976WAT     H181170   5.490   9.511   9.834
26976WAT     H281171   5.648   9.467   9.825
26977WAT      O81172   8.572   0.649   8.156
26977WAT     H181173   8.556   0.699   8.070
26977WAT     H281174   8.597   0.555   8.135
26978WAT      O81175   7.428   5.906   3.144
26978WAT     H181176   7.494   5.850   3.095
26978WAT     H281177   7.410   5.990   3.092
26979WAT      O81178   7.751   1.181   1.602
26979WAT     H181179   7.750   1.273   1.564
26979WAT     H281180   7.723   1.185   1.698
26980WAT      O81181   5.650   8.206   0.382
26980WAT     H181182   5.609   8.158   0.305
26980WAT     H281183   5.631   8.156   0.467
26981WAT      O81184   6.458   2.969   5.300
26981WAT     H181185   6.361   2.992   5.316
26981WAT     H281186   6.498   3.038   5.239
26982WAT      O81187   6.003   7.694   4.788
26982WAT     H181188   5.956   7.616   4.828
26982WAT     H281189   6.065   7.734   4.855
26983WAT      O81190   9.538   1.161   7.873
26983WAT     H181191   9.577   1.253   7.875
26983WAT     H281192   9.551   1.117   7.962
26984WAT      O81193   8.568   7.341   1.523
26984WAT     H181194   8.605   7.314   1.434
26984WAT     H281195   8.632   7.313   1.595
26985WAT      O81196   0.819   1.120   5.365
26985WAT     H181197   0.816   1.162   5.274
26985WAT     H281198   0.816   1.021   5.357
26986WAT      O81199   0.819   1.807   3.469
26986WAT     H181200   0.802   1.753   3.551
26986WAT     H281201   0.916   1.828   3.463
26987WAT      O81202   1.130   7.229   9.486
26987WAT     H181203   1.081   7.141   9.486
26987WAT     H281204   1.193   7.232   9.564
26988WAT      O81205   2.172   5.552   1.256
26988WAT     H181206   2.091   5.512   1.214
26988WAT     H281207   2.223   5.481   1.305
26989WAT      O81208   9.777   6.003   3.040
26989WAT     H181209   9.816   6.039   3.125
26989WAT     H281210   9.758   6.079   2.978
26990WAT      O81211   9.115   8.941   0.894
26990WAT     H181212   9.212   8.932   0.912
26990WAT     H281213   9.063   8.929   0.979
26991WAT      O81214   7.194   5.314   2.908
26991WAT     H181215   7.238   5.367   2.836
26991WAT     H281216   7.163   5.375   2.981
26992WAT      O81217   5.572   6.520   2.244
26992WAT     H181218   5.489   6.563   2.279
26992WAT     H281219   5.588   6.435   2.293
26993WAT      O81220   0.657   6.872   4.273
26993WAT     H181221   0.677   6.955   4.220
26993WAT     H281222   0.713   6.797   4.240
26994WAT      O81223   5.211   7.528   6.105
26994WAT     H181224   5.153   7.485   6.036
26994WAT     H281225   5.170   7.614   6.134
26995WAT      O81226   8.887   3.630   4.371
26995WAT     H181227   8.934   3.712   4.339
26995WAT     H281228   8.800   3.619   4.322
26996WAT      O81229   5.985   7.753   3.133
26996WAT     H181230   5.911   7.697   3.170
26996WAT     H281231   5.988   7.841   3.179
26997WAT      O81232   4.253   0.058   0.649
26997WAT     H181233   4.287   0.126   0.713
26997WAT     H281234   4.181   0.004   0.693
26998WAT      O81235   9.581   3.006   4.738
26998WAT     H181236   9.498   2.973   4.693
26998WAT     H281237   9.636   3.057   4.672
26999WAT      O81238   8.303   3.503   6.964
26999WAT     H181239   8.358   3.534   7.041
26999WAT     H281240   8.224   3.452   6.997
27000WAT      O81241   7.361   3.792   9.166
27000WAT     H181242   7.339   3.866   9.102
27000WAT     H281243   7.287   3.725   9.167
27001WAT      O81244   1.817   7.716   5.051
27001WAT     H181245   1.833   7.650   4.978
27001WAT     H281246   1.881   7.699   5.126
27002WAT      O81247  -0.005   8.643   6.695
27002WAT     H181248   0.086   8.624   6.658
27002WAT     H281249  -0.000   8.723   6.755
27003WAT      O81250   9.496   7.231   4.066
27003WAT     H181251   9.590   7.198   4.070
27003WAT     H281252   9.454   7.202   3.980
27004WAT      O81253   6.706   5.130   0.826
27004WAT     H181254   6.660   5.177   0.900
27004WAT     H281255   6.774   5.191   0.785
27005WAT      O81256   3.115   9.175   0.671
27005WAT     H181257   3.120   9.108   0.745
27005WAT     H281258   3.184   9.154   0.602
27006WAT      O81259   9.693   2.997   8.031
27006WAT     H181260   9.678   2.947   8.117
27006WAT     H281261   9.700   2.932   7.956
27007WAT      O81262   2.240   6.031   5.493
27007WAT     H181263   2.179   6.107   5.470
27007WAT     H281264   2.235   5.961   5.421
27008WAT      O81265   9.624   2.722   1.165
27008WAT     H181266   9.701   2.743   1.225
27008WAT     H281267   9.542   2.769   1.197
27009WAT      O81268   2.555   1.364   5.228
27009WAT     H181269   2.458   1.357   5.202
27009WAT     H281270   2.612   1.320   5.159
27010WAT      O81271   0.181   5.483   6.202
27010WAT     H181272   0.107   5.549   6.196
27010WAT     H281273   0.174   5.432   6.288
27011WAT      O81274   1.676   6.606   5.149
27011WAT     H181275   1.589   6.577   5.188
27011WAT     H281276   1.664   6.696   5.105
27012WAT      O81277   8.339   7.751   8.015
27012WAT     H181278   8.255   7.740   8.068
27012WAT     H281279   8.405   7.680   8.041
27013WAT      O81280   5.747   4.426   3.912
27013WAT     H181281   5.744   4.336   3.869
27013WAT     H281282   5.803   4.488   3.857
27014WAT      O81283   1.309   0.019   8.653
27014WAT     H181284   1.232   0.053   8.707
27014WAT     H281285   1.276  -0.006   8.562
27015WAT      O81286   4.783   4.375   3.345
27015WAT     H181287   4.688   4.382   3.316
27015WAT     H281288   4.792   4.402   3.440
27016WAT      O81289   7.484   4.199   6.123
27016WAT     H181290   7.434   4.178   6.040
27016WAT     H281291   7.421   4.202   6.201
27017WAT      O81292   2.065   9.353   8.224
27017WAT     H181293   2.113   9.441   8.222
27017WAT     H281294   2.022   9.341   8.314
27018WAT      O81295   3.190   6.754   1.907
27018WAT     H181296   3.285   6.786   1.906
27018WAT     H281297   3.158   6.748   2.002
27019WAT      O81298   2.115   1.723   7.789
27019WAT     H181299   2.083   1.652   7.852
27019WAT     H281300   2.077   1.706   7.698
27020WAT      O81301   4.484   8.364   4.705
27020WAT     H181302   4.405   8.414   4.739
27020WAT     H281303   4.555   8.429   4.677
27021WAT      O81304   5.063   8.762   4.578
27021WAT     H181305   5.075   8.859   4.600
27021WAT     H281306   4.980   8.751   4.523
27022WAT      O81307   4.872   1.061   3.606
27022WAT     H181308   4.811   0.983   3.616
27022WAT     H281309   4.957   1.044   3.656
27023WAT      O81310   0.854   2.540   0.610
27023WAT     H181311   0.770   2.594   0.617
27023WAT     H281312   0.867   2.512   0.515
27024WAT      O81313   0.858   5.536   3.729
27024WAT     H181314   0.840   5.560   3.824
27024WAT     H281315   0.811   5.601   3.669
27025WAT      O81316   0.647   1.140   0.188
27025WAT     H181317   0.623   1.197   0.266
27025WAT     H281318   0.728   1.086   0.210
27026WAT      O81319   4.567   9.441   5.827
27026WAT     H181320   4.554   9.400   5.918
27026WAT     H281321   4.661   9.472   5.817
27027WAT      O81322   8.719   6.241   9.737
27027WAT     H181323   8.781   6.234   9.659
27027WAT     H281324   8.702   6.150   9.774
27028WAT      O81325   8.505   2.263   7.369
27028WAT     H181326   8.582   2.204   7.393
27028WAT     H281327   8.430   2.247   7.435
27029WAT      O81328   9.114   9.721   3.135
27029WAT     H181329   9.162   9.734   3.048
27029WAT     H281330   9.090   9.625   3.146
27030WAT      O81331   9.208   1.840   8.801
27030WAT     H181332   9.253   1.900   8.867
27030WAT     H281333   9.212   1.881   8.710
27031WAT      O81334   0.364   7.527   1.899
27031WAT     H181335   0.311   7.561   1.976
27031WAT     H281336   0.441   7.588   1.881
27032WAT      O81337   9.237   9.124   7.391
27032WAT     H181338   9.261   9.048   7.330
27032WAT     H281339   9.236   9.210   7.340
27033WAT      O81340   6.948   8.643   2.439
27033WAT     H181341   6.854   8.655   2.471
27033WAT     H281342   7.011   8.686   2.504
27034WAT      O81343   7.619   9.477   7.330
27034WAT     H181344   7.566   9.508   7.251
27034WAT     H281345   7.558   9.469   7.409
27035WAT      O81346   4.638   2.477   7.349
27035WAT     H181347   4.666   2.381   7.354
27035WAT     H281348   4.676   2.527   7.426
27036WAT      O81349   6.939   0.906   6.133
27036WAT     H181350   6.996   0.978   6.095
27036WAT     H281351   6.971   0.817   6.100
27037WAT      O81352   8.132   2.768   0.983
27037WAT     H181353   8.090   2.714   0.910
27037WAT     H281354   8.065   2.780   1.057
27038WAT      O81355   6.387   7.217   9.343
27038WAT     H181356   6.460   7.153   9.319
27038WAT     H281357   6.410   7.308   9.308
27039WAT      O81358   9.820   4.344   2.383
27039WAT     H181359   9.829   4.434   2.340
27039WAT     H281360   9.723   4.323   2.397
27040WAT      O81361   5.630   8.462   3.994
27040WAT     H181362   5.534   8.474   4.021
27040WAT     H281363   5.634   8.422   3.903
27041WAT      O81364   8.353   6.050   6.786
27041WAT     H181365   8.303   6.003   6.858
27041WAT     H281366   8.449   6.022   6.788
27042WAT      O81367   4.938   1.777   3.742
27042WAT     H181368   4.972   1.683   3.743
27042WAT     H281369   4.838   1.776   3.747
27043WAT      O81370   9.000   0.386   6.384
27043WAT     H181371   8.977   0.315   6.450
27043WAT     H281372   8.922   0.447   6.371
27044WAT      O81373   3.586   7.613   8.844
27044WAT     H181374   3.614   7.556   8.922
27044WAT     H281375   3.493   7.588   8.817
27045WAT      O81376   3.884   7.388   4.535
27045WAT     H181377   3.967   7.353   4.578
27045WAT     H281378   3.908   7.459   4.468
27046WAT      O81379   5.872   1.620   6.575
27046WAT     H181380   5.830   1.542   6.528
27046WAT     H281381   5.881   1.599   6.673
27047WAT      O81382   1.570   8.259   9.203
27047WAT     H181383   1.668   8.246   9.187
27047WAT     H281384   1.531   8.173   9.238
27048WAT      O81385   7.059   8.081   7.357
27048WAT     H181386   7.118   8.019   7.306
27048WAT     H281387   7.101   8.172   7.361
27049WAT      O81388   1.450   9.618   2.487
27049WAT     H181389   1.416   9.621   2.393
27049WAT     H281390   1.377   9.643   2.550
27050WAT      O81391   9.123   7.433   1.389
27050WAT     H181392   9.042   7.432   1.447
27050WAT     H281393   9.163   7.341   1.386
27051WAT      O81394   7.410   3.278   7.962
27051WAT     H181395   7.373   3.199   8.012
27051WAT     H281396   7.395   3.265   7.864
27052WAT      O81397   7.089   2.133   6.834
27052WAT     H181398   7.067   2.126   6.931
27052WAT     H281399   7.179   2.092   6.817
27053WAT      O81400   9.400   1.643   2.277
27053WAT     H181401   9.384   1.681   2.368
27053WAT     H281402   9.450   1.557   2.285
27054WAT      O81403   3.697   2.219   0.155
27054WAT     H181404   3.777   2.175   0.114
27054WAT     H281405   3.722   2.257   0.244
27055WAT      O81406   0.646   9.377   0.794
27055WAT     H181407   0.582   9.367   0.870
27055WAT     H281408   0.722   9.313   0.805
27056WAT      O81409   3.243   3.699   0.059
27056WAT     H181410   3.215   3.637  -0.014
27056WAT     H281411   3.199   3.788   0.046
27057WAT      O81412   3.768   1.518   3.170
27057WAT     H181413   3.783   1.438   3.228
27057WAT     H281414   3.772   1.490   3.074
27058WAT      O81415   2.031   0.891   1.662
27058WAT     H181416   2.098   0.851   1.725
27058WAT     H281417   1.939   0.861   1.688
27059WAT      O81418   8.783   1.253   5.046
27059WAT     H181419   8.751   1.170   5.090
27059WAT     H281420   8.862   1.289   5.096
27060WAT      O81421   8.658   6.665   6.064
27060WAT     H181422   8.663   6.565   6.065
27060WAT     H281423   8.676   6.698   5.971
27061WAT      O81424   3.294   3.902   0.941
27061WAT     H181425   3.350   3.957   0.880
27061WAT     H281426   3.333   3.811   0.950
27062WAT      O81427   0.119   5.485   8.674
27062WAT     H181428   0.171   5.555   8.626
27062WAT     H281429   0.021   5.500   8.660
27063WAT      O81430   2.763   1.259   5.050
27063WAT     H181431   2.785   1.263   4.952
27063WAT     H281432   2.762   1.164   5.080
27064WAT      O81433   5.016   0.762   6.103
27064WAT     H181434   4.916   0.756   6.103
27064WAT     H281435   5.051   0.728   6.190
27065WAT      O81436   1.824   6.074   9.260
27065WAT     H181437   1.912   6.034   9.287
27065WAT     H281438   1.815   6.165   9.301
27066WAT      O81439   2.888   2.791   8.623
27066WAT     H181440   2.964   2.855   8.628
27066WAT     H281441   2.898   2.733   8.542
27067WAT      O81442   1.407   9.316   4.799
27067WAT     H181443   1.425   9.338   4.703
27067WAT     H281444   1.435   9.393   4.856
27068WAT      O81445   7.233   0.576   4.066
27068WAT     H181446   7.174   0.511   4.018
27068WAT     H281447   7.190   0.667   4.067
27069WAT      O81448   4.485   4.124   1.921
27069WAT     H181449   4.531   4.127   2.010
27069WAT     H281450   4.441   4.211   1.903
27070WAT      O81451   3.059   8.986   4.018
27070WAT     H181452   2.999   9.051   3.971
27070WAT     H281453   3.149   9.027   4.031
27071WAT      O81454   9.593   6.672   5.597
27071WAT     H181455   9.651   6.619   5.536
27071WAT     H281456   9.514   6.617   5.625
27072WAT      O81457   6.078   9.172   2.082
27072WAT     H181458   6.005   9.115   2.044
27072WAT     H281459   6.061   9.184   2.180
27073WAT      O81460   1.332   6.256   5.135
27073WAT     H181461   1.263   6.212   5.193
27073WAT     H281462   1.416   6.270   5.188
27074WAT      O81463   8.093   0.277   5.499
27074WAT     H181464   8.002   0.318   5.497
27074WAT     H281465   8.089   0.189   5.546
27075WAT      O81466   9.844   7.956   0.584
27075WAT     H181467   9.895   7.882   0.540
27075WAT     H281468   9.837   8.033   0.521
27076WAT      O81469   0.191   8.041   9.222
27076WAT     H181470   0.106   7.988   9.219
27076WAT     H281471   0.269   7.979   9.211
27077WAT      O81472   2.296   0.153   4.111
27077WAT     H181473   2.255   0.075   4.159
27077WAT     H281474   2.265   0.238   4.154
27078WAT      O81475   7.991   7.695   6.480
27078WAT     H181476   7.898   7.659   6.475
27078WAT     H281477   7.990   7.793   6.462
27079WAT      O81478   7.464   5.182   8.344
27079WAT     H181479   7.370   5.176   8.312
27079WAT     H281480   7.468   5.239   8.426
27080WAT      O81481   5.541   9.537   8.303
27080WAT     H181482   5.526   9.636   8.309
27080WAT     H281483   5.456   9.493   8.274
27081WAT      O81484   4.804   1.088   3.180
27081WAT     H181485   4.768   1.047   3.264
27081WAT     H281486   4.734   1.147   3.140
27082WAT      O81487   5.985   4.446   0.459
27082WAT     H181488   6.084   4.455   0.449
27082WAT     H281489   5.942   4.536   0.453
27083WAT      O81490   1.510   8.642   5.670
27083WAT     H181491   1.478   8.632   5.764
27083WAT     H281492   1.461   8.716   5.625
27084WAT      O81493   2.640   8.993   8.015
27084WAT     H181494   2.556   9.025   8.059
27084WAT     H281495   2.623   8.980   7.917
27085WAT      O81496   2.518   9.330   8.127
27085WAT     H181497   2.506   9.371   8.036
27085WAT     H281498   2.457   9.251   8.136
27086WAT      O81499   8.870   1.888   2.280
27086WAT     H181500   8.848   1.954   2.352
27086WAT     H281501   8.787   1.861   2.233
27087WAT      O81502   6.612   7.504   0.494
27087WAT     H181503   6.602   7.576   0.563
27087WAT     H281504   6.669   7.431   0.532
27088WAT      O81505   5.612   9.333   2.466
27088WAT     H181506   5.577   9.422   2.497
27088WAT     H281507   5.594   9.323   2.369
27089WAT      O81508   6.254   7.950   9.542
27089WAT     H181509   6.253   7.976   9.639
27089WAT     H281510   6.161   7.932   9.512
27090WAT      O81511   8.607   0.063   7.030
27090WAT     H181512   8.642  -0.029   7.047
27090WAT     H281513   8.570   0.101   7.114
27091WAT      O81514   3.444   6.588   2.555
27091WAT     H181515   3.482   6.563   2.643
27091WAT     H281516   3.446   6.687   2.544
27092WAT      O81517   4.285   5.399   4.546
27092WAT     H181518   4.234   5.410   4.461
27092WAT     H281519   4.361   5.335   4.532
27093WAT      O81520   2.505   3.743   4.725
27093WAT     H181521   2.521   3.837   4.693
27093WAT     H281522   2.428   3.743   4.789
27094WAT      O81523   7.756   4.029   4.175
27094WAT     H181524   7.686   4.095   4.151
27094WAT     H281525   7.834   4.076   4.216
27095WAT      O81526   1.362   5.121   5.337
27095WAT     H181527   1.369   5.032   5.383
27095WAT     H281528   1.402   5.191   5.396
27096WAT      O81529   2.491   3.543   3.887
27096WAT     H181530   2.554   3.588   3.824
27096WAT     H281531   2.400   3.539   3.847
27097WAT      O81532   9.376   2.877   4.609
27097WAT     H181533   9.299   2.824   4.644
27097WAT     H281534   9.420   2.826   4.535
27098WAT      O81535   9.005   7.557   3.333
27098WAT     H181536   8.906   7.548   3.342
27098WAT     H281537   9.037   7.501   3.257
27099WAT      O81538   2.297   6.466   1.896
27099WAT     H181539   2.373   6.403   1.911
27099WAT     H281540   2.332   6.558   1.877
27100WAT      O81541   9.698   1.595   9.465
27100WAT     H181542   9.643   1.678   9.475
27100WAT     H281543   9.643   1.523   9.423
27101WAT      O81544   9.689   3.167   1.947
27101WAT     H181545   9.674   3.258   1.986
27101WAT     H281546   9.656   3.098   2.011
27102WAT      O81547   5.495   3.307   3.605
27102WAT     H181548   5.404   3.287   3.568
27102WAT     H281549   5.504   3.264   3.695
27103WAT      O81550   6.634   0.226   2.630
27103WAT     H181551   6.621   0.175   2.544
27103WAT     H281552   6.721   0.200   2.671
27104WAT      O81553   3.035   3.857   8.486
27104WAT     H181554   3.082   3.788   8.431
27104WAT     H281555   2.952   3.887   8.438
27105WAT      O81556   5.772   5.136   5.657
27105WAT     H181557   5.724   5.056   5.694
27105WAT     H281558   5.828   5.108   5.579
27106WAT      O81559   8.108   1.670   0.666
27106WAT     H181560   8.107   1.770   0.658
27106WAT     H281561   8.118   1.629   0.576
27107WAT      O81562   4.564   4.691   3.019
27107WAT     H181563   4.609   4.753   3.083
27107WAT     H281564   4.607   4.601   3.025
27108WAT      O81565   7.050   6.395   7.638
27108WAT     H181566   6.965   6.344   7.618
27108WAT     H281567   7.027   6.484   7.676
27109WAT      O81568   4.325   6.071   6.394
27109WAT     H181569   4.260   5.996   6.382
27109WAT     H281570   4.326   6.128   6.312
27110WAT      O81571   8.171   6.608   7.466
27110WAT     H181572   8.271   6.603   7.460
27110WAT     H281573   8.135   6.650   7.383
27111WAT      O81574   8.597   7.703   1.222
27111WAT     H181575   8.649   7.725   1.140
27111WAT     H281576   8.548   7.616   1.208
27112WAT      O81577   2.838   9.371   7.434
27112WAT     H181578   2.759   9.392   7.377
27112WAT     H281579   2.863   9.275   7.424
27113WAT      O81580   9.233   3.033   2.762
27113WAT     H181581   9.309   2.996   2.816
27113WAT     H281582   9.201   2.963   2.697
27114WAT      O81583   5.170   8.139   1.367
27114WAT     H181584   5.239   8.189   1.314
27114WAT     H281585   5.180   8.162   1.464
27115WAT      O81586   6.373   0.460   2.482
27115WAT     H181587   6.273   0.468   2.488
27115WAT     H281588   6.403   0.480   2.389
27116WAT      O81589   5.261   4.407   2.992
27116WAT     H181590   5.360   4.411   2.978
27116WAT     H281591   5.238   4.321   3.039
27117WAT      O81592   3.573   6.286   2.633
27117WAT     H181593   3.652   6.320   2.582
27117WAT     H281594   3.549   6.350   2.706
27118WAT      O81595   0.886   0.513   8.195
27118WAT     H181596   0.852   0.489   8.104
27118WAT     H281597   0.986   0.512   8.195
27119WAT      O81598   3.201   1.643   0.071
27119WAT     H181599   3.272   1.695   0.118
27119WAT     H281600   3.195   1.673  -0.024
27120WAT      O81601   9.152   9.180   7.851
27120WAT     H181602   9.244   9.142   7.838
27120WAT     H281603   9.158   9.271   7.891
27121WAT      O81604   2.375   2.201   5.264
27121WAT     H181605   2.339   2.271   5.326
27121WAT     H281606   2.472   2.217   5.249
27122WAT      O81607   8.807   2.659   6.285
27122WAT     H181608   8.722   2.684   6.238
27122WAT     H281609   8.850   2.584   6.236
27123WAT      O81610   8.535   5.548   7.278
27123WAT     H181611   8.607   5.557   7.209
27123WAT     H281612   8.513   5.451   7.289
27124WAT      O81613   2.222   9.819   1.357
27124WAT     H181614   2.315   9.845   1.331
27124WAT     H281615   2.162   9.898   1.347
27125WAT      O81616   9.594   7.267   3.083
27125WAT     H181617   9.604   7.205   3.004
27125WAT     H281618   9.499   7.265   3.114
27126WAT      O81619   2.182   4.222   3.002
27126WAT     H181620   2.147   4.275   3.079
27126WAT     H281621   2.108   4.208   2.935
27127WAT      O81622   5.274   3.250   4.568
27127WAT     H181623   5.253   3.157   4.598
27127WAT     H281624   5.225   3.268   4.482
27128WAT      O81625   2.612   2.703   1.635
27128WAT     H181626   2.585   2.664   1.547
27128WAT     H281627   2.701   2.746   1.627
27129WAT      O81628   4.589   4.302   0.769
27129WAT     H181629   4.491   4.279   0.766
27129WAT     H281630   4.601   4.385   0.825
27130WAT      O81631   2.813   6.279   9.262
27130WAT     H181632   2.787   6.323   9.176
27130WAT     H281633   2.865   6.196   9.244
27131WAT      O81634   6.716   4.728   8.065
27131WAT     H181635   6.634   4.670   8.072
27131WAT     H281636   6.743   4.758   8.157
27132WAT      O81637   4.357   0.398   0.868
27132WAT     H181638   4.453   0.399   0.896
27132WAT     H281639   4.315   0.312   0.897
27133WAT      O81640   1.839   4.404   9.699
27133WAT     H181641   1.924   4.358   9.676
27133WAT     H281642   1.785   4.419   9.615
27134WAT      O81643   1.453   9.260   2.640
27134WAT     H181644   1.394   9.189   2.602
27134WAT     H281645   1.431   9.273   2.736
27135WAT      O81646   4.175   3.555   9.087
27135WAT     H181647   4.254   3.550   9.148
27135WAT     H281648   4.094   3.580   9.140
27136WAT      O81649   6.887   0.156   2.723
27136WAT     H181650   6.888   0.180   2.820
27136WAT     H281651   6.969   0.104   2.701
27137WAT      O81652   2.858   4.505   3.249
27137WAT     H181653   2.863   4.480   3.153
27137WAT     H281654   2.933   4.462   3.299
27138WAT      O81655   5.635   3.623   7.155
27138WAT     H181656   5.680   3.536   7.174
27138WAT     H281657   5.640   3.642   7.057
27139WAT      O81658   4.723   2.624   3.756
27139WAT     H181659   4.689   2.570   3.679
27139WAT     H281660   4.730   2.565   3.837
27140WAT      O81661   0.947   0.530   3.014
27140WAT     H181662   1.008   0.505   3.089
27140WAT     H281663   0.921   0.447   2.963
27141WAT      O81664   9.813   6.653   0.763
27141WAT     H181665   9.809   6.622   0.668
27141WAT     H281666   9.742   6.607   0.816
27142WAT      O81667   4.069   4.978   7.567
27142WAT     H181668   4.106   4.975   7.474
27142WAT     H281669   4.081   5.069   7.606
27143WAT      O81670   7.134   4.890   0.578
27143WAT     H181671   7.086   4.906   0.492
27143WAT     H281672   7.181   4.974   0.606
27144WAT      O81673   0.080   7.971   1.552
27144WAT     H181674   0.015   8.010   1.487
27144WAT     H281675   0.076   8.020   1.639
27145WAT      O81676   4.345   3.744   2.870
27145WAT     H181677   4.428   3.759   2.923
27145WAT     H281678   4.368   3.737   2.773
27146WAT      O81679   8.707   5.206   5.529
27146WAT     H181680   8.766   5.261   5.470
27146WAT     H281681   8.748   5.115   5.542
27147WAT      O81682   3.065   6.576   3.483
27147WAT     H181683   2.996   6.523   3.434
27147WAT     H281684   3.141   6.517   3.507
27148WAT      O81685   3.668   5.974   6.630
27148WAT     H181686   3.612   5.967   6.548
27148WAT     H281687   3.609   5.978   6.711
27149WAT      O81688   4.277   6.984   5.454
27149WAT     H181689   4.364   7.033   5.460
27149WAT     H281690   4.280   6.919   5.378
27150WAT      O81691   3.749   4.913   7.145
27150WAT     H181692   3.741   4.969   7.227
27150WAT     H281693   3.763   4.972   7.066
27151WAT      O81694   1.882   9.572   8.123
27151WAT     H181695   1.810   9.642   8.124
27151WAT     H281696   1.849   9.490   8.169
27152WAT      O81697   3.947   6.137   5.694
27152WAT     H181698   3.899   6.076   5.631
27152WAT     H281699   4.039   6.155   5.660
27153WAT      O81700   4.229   7.928   0.693
27153WAT     H181701   4.280   7.926   0.607
27153WAT     H281702   4.132   7.912   0.675
27154WAT      O81703   7.434   9.064   9.741
27154WAT     H181704   7.486   9.039   9.660
27154WAT     H281705   7.411   8.981   9.793
27155WAT      O81706   3.694   4.764   9.176
27155WAT     H181707   3.684   4.833   9.104
27155WAT     H281708   3.776   4.709   9.158
27156WAT      O81709   8.092   3.247   6.202
27156WAT     H181710   8.011   3.280   6.152
27156WAT     H281711   8.156   3.323   6.215
27157WAT      O81712   6.873   5.355   3.190
27157WAT     H181713   6.869   5.260   3.219
27157WAT     H281714   6.840   5.414   3.263
27158WAT      O81715   1.003   6.724   4.006
27158WAT     H181716   1.013   6.690   3.913
27158WAT     H281717   1.093   6.749   4.042
27159WAT      O81718   1.557   4.115   7.932
27159WAT     H181719   1.639   4.057   7.930
27159WAT     H281720   1.569   4.187   8.000
27160WAT      O81721   1.690   6.850   9.429
27160WAT     H181722   1.759   6.882   9.493
27160WAT     H281723   1.647   6.928   9.384
27161WAT      O81724   8.624   3.651   4.607
27161WAT     H181725   8.724   3.657   4.601
27161WAT     H281726   8.594   3.564   4.568
27162WAT      O81727   0.944   7.283   5.360
27162WAT     H181728   0.875   7.352   5.340
27162WAT     H281729   0.899   7.198   5.386
27163WAT      O81730   4.725   6.558   8.173
27163WAT     H181731   4.784   6.554   8.253
27163WAT     H281732   4.746   6.482   8.112
27164WAT      O81733   5.124   7.385   5.892
27164WAT     H181734   5.102   7.463   5.834
27164WAT     H281735   5.048   7.320   5.891
27165WAT      O81736   4.674   0.399   1.369
27165WAT     H181737   4.771   0.378   1.360
27165WAT     H281738   4.641   0.445   1.287
27166WAT      O81739   8.461   5.101   7.091
27166WAT     H181740   8.444   5.095   7.190
27166WAT     H281741   8.377   5.079   7.042
27167WAT      O81742   6.078   6.455   6.727
27167WAT     H181743   6.040   6.420   6.813
27167WAT     H281744   6.092   6.554   6.735
27168WAT      O81745   0.613   4.105   7.585
27168WAT     H181746   0.671   4.031   7.552
27168WAT     H281747   0.534   4.067   7.634
27169WAT      O81748   7.327   7.284   3.409
27169WAT     H181749   7.370   7.313   3.495
27169WAT     H281750   7.229   7.271   3.423
27170WAT      O81751   3.681   2.022   4.476
27170WAT     H181752   3.754   2.008   4.409
27170WAT     H281753   3.660   1.934   4.520
27171WAT      O81754   9.042   3.172   7.807
27171WAT     H181755   8.991   3.209   7.884
27171WAT     H281756   9.061   3.245   7.741
27172WAT      O81757   4.745   7.932   5.985
27172WAT     H181758   4.683   7.869   5.939
27172WAT     H281759   4.708   7.955   6.075
27173WAT      O81760   3.252   2.501   8.847
27173WAT     H181761   3.220   2.411   8.876
27173WAT     H281762   3.273   2.499   8.749
27174WAT      O81763   4.398   3.474   1.100
27174WAT     H181764   4.401   3.536   1.178
27174WAT     H281765   4.411   3.526   1.015
27175WAT      O81766   0.109   7.017   9.085
27175WAT     H181767   0.011   7.038   9.078
27175WAT     H281768   0.139   7.032   9.179
27176WAT      O81769   7.702   8.742   6.838
27176WAT     H181770   7.760   8.699   6.768
27176WAT     H281771   7.620   8.686   6.850
27177WAT      O81772   6.045   2.138   4.724
27177WAT     H181773   6.052   2.199   4.803
27177WAT     H281774   6.046   2.192   4.640
27178WAT      O81775   9.174   7.418   2.106
27178WAT     H181776   9.084   7.378   2.121
27178WAT     H281777   9.178   7.509   2.149
27179WAT      O81778  -0.000   1.472   1.404
27179WAT     H181779   0.059   1.392   1.414
27179WAT     H281780   0.016   1.535   1.479
27180WAT      O81781   5.754   4.995   0.694
27180WAT     H181782   5.723   4.902   0.714
27180WAT     H281783   5.682   5.060   0.717
27181WAT      O81784   0.815   4.328   6.702
27181WAT     H181785   0.733   4.346   6.649
27181WAT     H281786   0.895   4.363   6.653
27182WAT      O81787   9.719   5.188   1.549
27182WAT     H181788   9.673   5.276   1.544
27182WAT     H281789   9.739   5.165   1.644
27183WAT      O81790   4.436   3.482   3.158
27183WAT     H181791   4.533   3.503   3.168
27183WAT     H281792   4.385   3.567   3.149
27184WAT      O81793   3.206   8.437   6.101
27184WAT     H181794   3.115   8.459   6.067
27184WAT     H281795   3.274   8.463   6.033
27185WAT      O81796   4.464   4.475   6.440
27185WAT     H181797   4.431   4.504   6.530
27185WAT     H281798   4.564   4.478   6.439
27186WAT      O81799   2.857   1.228   8.173
27186WAT     H181800   2.889   1.191   8.086
27186WAT     H281801   2.758   1.220   8.178
27187WAT      O81802   3.002   7.738   1.093
27187WAT     H181803   2.932   7.678   1.054
27187WAT     H281804   2.966   7.831   1.098
27188WAT      O81805   5.343   8.022   4.974
27188WAT     H181806   5.366   7.925   4.971
27188WAT     H281807   5.244   8.033   4.963
27189WAT      O81808   5.345   4.968   4.536
27189WAT     H181809   5.433   5.011   4.558
27189WAT     H281810   5.336   4.960   4.437
27190WAT      O81811   9.387   5.857   4.431
27190WAT     H181812   9.435   5.823   4.511
27190WAT     H281813   9.356   5.951   4.447
27191WAT      O81814   9.837   7.567   1.146
27191WAT     H181815   9.799   7.592   1.057
27191WAT     H281816   9.799   7.627   1.216
27192WAT      O81817   6.790   3.283   6.488
27192WAT     H181818   6.752   3.277   6.396
27192WAT     H281819   6.889   3.286   6.483
27193WAT      O81820   1.948   6.366   4.291
27193WAT     H181821   1.930   6.362   4.389
27193WAT     H281822   1.894   6.295   4.245
27194WAT      O81823   8.550   1.312   8.037
27194WAT     H181824   8.518   1.375   8.107
27194WAT     H281825   8.641   1.278   8.062
27195WAT      O81826   9.107   5.315   8.341
27195WAT     H181827   9.109   5.234   8.282
27195WAT     H281828   9.198   5.356   8.346
27196WAT      O81829   8.557   8.396   1.882
27196WAT     H181830   8.506   8.355   1.806
27196WAT     H281831   8.512   8.481   1.910
27197WAT      O81832   3.411   6.345   3.274
27197WAT     H181833   3.326   6.307   3.237
27197WAT     H281834   3.452   6.279   3.337
27198WAT      O81835   0.074   2.441   6.520
27198WAT     H181836   0.067   2.495   6.437
27198WAT     H281837   0.107   2.349   6.498
27199WAT      O81838   7.107   7.012   7.270
27199WAT     H181839   7.185   7.032   7.330
27199WAT     H281840   7.058   6.932   7.305
27200WAT      O81841   9.388   4.553   4.180
27200WAT     H181842   9.295   4.527   4.155
27200WAT     H281843   9.451   4.520   4.111
27201WAT      O81844   0.666   1.015   7.158
27201WAT     H181845   0.703   0.951   7.225
27201WAT     H281846   0.687   0.983   7.065
27202WAT      O81847   9.333   5.861   2.555
27202WAT     H181848   9.409   5.800   2.530
27202WAT     H281849   9.368   5.953   2.570
27203WAT      O81850   4.600   2.654   1.746
27203WAT     H181851   4.582   2.700   1.833
27203WAT     H281852   4.587   2.555   1.757
27204WAT      O81853   1.216   3.966   6.403
27204WAT     H181854   1.216   3.895   6.474
27204WAT     H281855   1.133   4.021   6.412
27205WAT      O81856   1.117   8.748   8.207
27205WAT     H181857   1.077   8.689   8.277
27205WAT     H281858   1.050   8.763   8.134
27206WAT      O81859   8.164   5.202   1.267
27206WAT     H181860   8.197   5.295   1.286
27206WAT     H281861   8.226   5.157   1.203
27207WAT      O81862   9.714   5.086   6.032
27207WAT     H181863   9.708   5.139   6.117
27207WAT     H281864   9.810   5.074   6.007
27208WAT      O81865   4.483   0.675   0.053
27208WAT     H181866   4.515   0.582   0.073
27208WAT     H281867   4.492   0.693  -0.044
27209WAT      O81868   5.302   5.471   3.626
27209WAT     H181869   5.255   5.403   3.682
27209WAT     H281870   5.369   5.520   3.683
27210WAT      O81871   9.169   9.644   9.650
27210WAT     H181872   9.088   9.587   9.662
27210WAT     H281873   9.250   9.586   9.648
27211WAT      O81874   2.476   6.219   8.413
27211WAT     H181875   2.447   6.290   8.348
27211WAT     H281876   2.465   6.129   8.370
27212WAT      O81877   9.667   6.327   1.217
27212WAT     H181878   9.616   6.403   1.175
27212WAT     H281879   9.711   6.274   1.145
27213WAT      O81880   6.865   9.630   3.067
27213WAT     H181881   6.913   9.545   3.046
27213WAT     H281882   6.886   9.659   3.160
27214WAT      O81883   7.547   5.726   1.642
27214WAT     H181884   7.498   5.659   1.585
27214WAT     H281885   7.487   5.757   1.716
27215WAT      O81886   1.505   3.880   5.111
27215WAT     H181887   1.565   3.814   5.156
27215WAT     H281888   1.447   3.924   5.179
27216WAT      O81889   0.983   6.893   0.109
27216WAT     H181890   0.942   6.803   0.097
27216WAT     H281891   0.914   6.957   0.144
27217WAT      O81892   0.310   9.027   6.354
27217WAT     H181893   0.288   9.032   6.451
27217WAT     H281894   0.307   8.932   6.324
27218WAT      O81895   7.078   1.323   5.626
27218WAT     H181896   7.160   1.293   5.675
27218WAT     H281897   7.056   1.417   5.651
27219WAT      O81898   8.236   5.567   4.054
27219WAT     H181899   8.301   5.521   4.114
27219WAT     H281900   8.284   5.637   4.000
27220WAT      O81901   2.860   9.183   3.659
27220WAT     H181902   2.879   9.256   3.594
27220WAT     H281903   2.916   9.103   3.637
27221WAT      O81904   0.509   8.436   4.238
27221WAT     H181905   0.498   8.505   4.309
27221WAT     H281906   0.422   8.391   4.222
27222WAT      O81907   0.893   4.716   5.521
27222WAT     H181908   0.809   4.744   5.567
27222WAT     H281909   0.961   4.689   5.589
27223WAT      O81910   9.100   3.493   2.288
27223WAT     H181911   9.198   3.492   2.307
27223WAT     H281912   9.052   3.542   2.361
27224WAT      O81913   1.075   8.226   5.275
27224WAT     H181914   1.006   8.193   5.210
27224WAT     H281915   1.031   8.244   5.363
27225WAT      O81916   1.208   3.061   7.567
27225WAT     H181917   1.151   3.000   7.512
27225WAT     H281918   1.183   3.156   7.547
27226WAT      O81919   7.120   5.747   3.596
27226WAT     H181920   7.063   5.823   3.626
27226WAT     H281921   7.216   5.768   3.613
27227WAT      O81922   7.904   3.508   4.684
27227WAT     H181923   7.938   3.535   4.775
27227WAT     H281924   7.806   3.487   4.691
27228WAT      O81925   4.800   6.925   7.598
27228WAT     H181926   4.776   6.915   7.502
27228WAT     H281927   4.891   6.887   7.614
27229WAT      O81928   2.552   7.095   0.208
27229WAT     H181929   2.618   7.097   0.133
27229WAT     H281930   2.561   7.177   0.264
27230WAT      O81931   2.772   3.338   9.850
27230WAT     H181932   2.842   3.314   9.917
27230WAT     H281933   2.711   3.406   9.890
27231WAT      O81934   8.594   2.654   9.057
27231WAT     H181935   8.625   2.737   9.103
27231WAT     H281936   8.526   2.678   8.988
27232WAT      O81937   9.089   5.535   9.182
27232WAT     H181938   9.097   5.593   9.101
27232WAT     H281939   9.087   5.439   9.154
27233WAT      O81940   6.122   1.908   3.853
27233WAT     H181941   6.025   1.935   3.853
27233WAT     H281942   6.135   1.832   3.789
27234WAT      O81943   7.308   0.525   6.687
27234WAT     H181944   7.256   0.517   6.772
27234WAT     H281945   7.405   0.538   6.709
27235WAT      O81946   7.407   7.804   8.910
27235WAT     H181947   7.462   7.884   8.886
27235WAT     H281948   7.467   7.730   8.940
27236WAT      O81949   9.331   1.746   3.595
27236WAT     H181950   9.335   1.846   3.604
27236WAT     H281951   9.309   1.722   3.501
27237WAT      O81952   8.831   0.585   5.837
27237WAT     H181953   8.837   0.662   5.773
27237WAT     H281954   8.743   0.539   5.825
27238WAT      O81955   6.781   9.442   6.028
27238WAT     H181956   6.736   9.355   6.010
27238WAT     H281957   6.716   9.505   6.071
27239WAT      O81958   3.702   4.199   8.703
27239WAT     H181959   3.651   4.276   8.663
27239WAT     H281960   3.733   4.139   8.630
27240WAT      O81961   0.487   3.642   9.562
27240WAT     H181962   0.402   3.669   9.517
27240WAT     H281963   0.515   3.713   9.626
27241WAT      O81964   2.903   7.568   4.375
27241WAT     H181965   2.993   7.540   4.407
27241WAT     H281966   2.908   7.597   4.280
27242WAT      O81967   7.655   1.509   0.200
27242WAT     H181968   7.723   1.537   0.268
27242WAT     H281969   7.597   1.438   0.239
27243WAT      O81970   6.962   1.547   7.334
27243WAT     H181971   6.895   1.531   7.262
27243WAT     H281972   7.022   1.623   7.307
27244WAT      O81973   5.644   9.484   6.917
27244WAT     H181974   5.668   9.414   6.984
27244WAT     H281975   5.727   9.519   6.875
27245WAT      O81976   2.227   5.145   7.897
27245WAT     H181977   2.250   5.059   7.942
27245WAT     H281978   2.292   5.216   7.923
27246WAT      O81979   2.122   7.134   2.693
27246WAT     H181980   2.103   7.079   2.612
27246WAT     H281981   2.130   7.074   2.773
27247WAT      O81982   1.117   4.910   9.869
27247WAT     H181983   1.127   4.920   9.770
27247WAT     H281984   1.206   4.890   9.910
27248WAT      O81985   6.420   8.765   8.620
27248WAT     H181986   6.470   8.705   8.682
27248WAT     H281987   6.323   8.741   8.621
27249WAT      O81988   3.675   7.841   5.923
27249WAT     H181989   3.696   7.758   5.975
27249WAT     H281990   3.599   7.889   5.967
27250WAT      O81991   5.048   7.984   4.397
27250WAT     H181992   5.003   7.987   4.308
27250WAT     H281993   5.055   7.889   4.428
27251WAT      O81994   5.527   1.179   9.330
27251WAT     H181995   5.472   1.134   9.261
27251WAT     H281996   5.483   1.265   9.357
27252WAT      O81997   8.362   2.695   1.573
27252WAT     H181998   8.456   2.728   1.578
27252WAT     H281999   8.316   2.739   1.496
27253WAT      O82000   5.097   2.049   1.105
27253WAT     H182001   5.085   2.090   1.195
27253WAT     H282002   5.118   2.121   1.038
27254WAT      O82003   9.616   4.926   1.582
27254WAT     H182004   9.660   5.014   1.564
27254WAT     H282005   9.526   4.924   1.537
27255WAT      O82006   2.873   7.198   0.597
27255WAT     H182007   2.971   7.214   0.600
27255WAT     H282008   2.830   7.233   0.680
27256WAT      O82009   8.418   3.935   9.805
27256WAT     H182010   8.481   3.939   9.883
27256WAT     H282011   8.355   3.859   9.818
27257WAT      O82012   4.871   0.798   9.436
27257WAT     H182013   4.789   0.850   9.413
27257WAT     H282014   4.909   0.757   9.353
27258WAT      O82015   0.946   7.345   2.077
27258WAT     H182016   1.028   7.392   2.109
27258WAT     H282017   0.962   7.246   2.078
27259WAT      O82018   9.070   2.175   2.012
27259WAT     H182019   9.070   2.075   2.016
27259WAT     H282020   9.086   2.205   1.918
27260WAT      O82021   4.135   3.575   7.875
27260WAT     H182022   4.234   3.581   7.861
27260WAT     H282023   4.115   3.501   7.940
27261WAT      O82024   2.664   0.496   1.677
27261WAT     H182025   2.745   0.531   1.629
27261WAT     H282026   2.619   0.427   1.620
27262WAT      O82027   8.748   4.175   6.578
27262WAT     H182028   8.820   4.206   6.517
27262WAT     H282029   8.772   4.084   6.614
27263WAT      O82030   4.776   7.300   6.620
27263WAT     H182031   4.729   7.288   6.532
27263WAT     H282032   4.858   7.356   6.607
27264WAT      O82033   8.667   7.979   0.266
27264WAT     H182034   8.599   8.050   0.288
27264WAT     H282035   8.628   7.916   0.199
27265WAT      O82036   6.552   2.403   6.805
27265WAT     H182037   6.528   2.338   6.733
27265WAT     H282038   6.471   2.424   6.859
27266WAT      O82039   6.167   1.007   3.645
27266WAT     H182040   6.226   0.983   3.721
27266WAT     H282041   6.109   1.084   3.671
27267WAT      O82042   3.832   7.296   9.355
27267WAT     H182043   3.743   7.334   9.380
27267WAT     H282044   3.901   7.369   9.357
27268WAT      O82045   8.155   3.953   1.364
27268WAT     H182046   8.055   3.960   1.374
27268WAT     H282047   8.180   3.961   1.268
27269WAT      O82048   9.307   5.161   0.726
27269WAT     H182049   9.237   5.091   0.716
27269WAT     H282050   9.398   5.119   0.718
27270WAT      O82051   7.390   1.641   2.702
27270WAT     H182052   7.309   1.696   2.684
27270WAT     H282053   7.377   1.590   2.787
27271WAT      O82054   7.952   3.440   5.983
27271WAT     H182055   7.915   3.514   5.926
27271WAT     H282056   8.026   3.395   5.935
27272WAT      O82057   1.013   1.026   3.290
27272WAT     H182058   1.033   0.933   3.322
27272WAT     H282059   1.093   1.083   3.305
27273WAT      O82060   0.432   0.437   9.011
27273WAT     H182061   0.411   0.380   8.932
27273WAT     H282062   0.386   0.526   9.001
27274WAT      O82063   6.202   2.812   6.561
27274WAT     H182064   6.151   2.875   6.619
27274WAT     H282065   6.296   2.804   6.595
27275WAT      O82066   2.109   2.278   5.164
27275WAT     H182067   2.190   2.221   5.180
27275WAT     H282068   2.132   2.353   5.102
27276WAT      O82069   0.891   2.291   6.861
27276WAT     H182070   0.966   2.254   6.807
27276WAT     H282071   0.826   2.338   6.801
27277WAT      O82072   6.835   4.643   1.680
27277WAT     H182073   6.868   4.736   1.697
27277WAT     H282074   6.745   4.632   1.722
27278WAT      O82075   7.393   5.882   0.407
27278WAT     H182076   7.419   5.934   0.488
27278WAT     H282077   7.323   5.814   0.431
27279WAT      O82078   7.701   0.736   6.949
27279WAT     H182079   7.762   0.666   6.986
27279WAT     H282080   7.623   0.749   7.011
27280WAT      O82081   7.960   7.705   4.630
27280WAT     H182082   7.941   7.701   4.728
27280WAT     H282083   8.058   7.694   4.614
27281WAT      O82084   9.530   4.232   9.635
27281WAT     H182085   9.491   4.207   9.723
27281WAT     H282086   9.509   4.328   9.615
27282WAT      O82087   1.221   5.716   9.103
27282WAT     H182088   1.196   5.624   9.071
27282WAT     H282089   1.236   5.775   9.024
27283WAT      O82090   4.454   4.106   6.256
27283WAT     H182091   4.524   4.177   6.255
27283WAT     H282092   4.476   4.038   6.325
27284WAT      O82093   4.954   1.612   5.217
27284WAT     H182094   4.863   1.610   5.175
27284WAT     H282095   4.959   1.687   5.283
27285WAT      O82096   2.529   7.440   8.614
27285WAT     H182097   2.436   7.442   8.576
27285WAT     H282098   2.537   7.363   8.678
27286WAT      O82099   6.118   6.314   4.322
27286WAT     H182100   6.070   6.359   4.247
27286WAT     H282101   6.143   6.221   4.295
27287WAT      O82102   4.300   1.514   4.317
27287WAT     H182103   4.244   1.592   4.290
27287WAT     H282104   4.391   1.523   4.277
27288WAT      O82105   5.142   1.841   0.920
27288WAT     H182106   5.121   1.920   0.977
27288WAT     H282107   5.169   1.872   0.829
27289WAT      O82108   1.234   1.579   7.876
27289WAT     H182109   1.142   1.547   7.898
27289WAT     H282110   1.301   1.518   7.919
27290WAT      O82111   3.869   5.351   2.942
27290WAT     H182112   3.954   5.299   2.944
27290WAT     H282113   3.823   5.343   3.030
27291WAT      O82114   6.417   0.109   5.885
27291WAT     H182115   6.485   0.155   5.828
27291WAT     H282116   6.431   0.010   5.881
27292WAT      O82117   5.459   4.178   3.329
27292WAT     H182118   5.545   4.206   3.288
27292WAT     H282119   5.477   4.113   3.403
27293WAT      O82120   9.707   2.620   7.856
27293WAT     H182121   9.697   2.561   7.776
27293WAT     H282122   9.755   2.571   7.928
27294WAT      O82123   4.906   7.357   1.588
27294WAT     H182124   4.841   7.368   1.514
27294WAT     H282125   4.988   7.411   1.569
27295WAT      O82126   9.578   5.769   3.796
27295WAT     H182127   9.594   5.810   3.706
27295WAT     H282128   9.545   5.839   3.859
27296WAT      O82129   2.535   9.441   7.573
27296WAT     H182130   2.545   9.418   7.476
27296WAT     H282131   2.607   9.506   7.600
27297WAT      O82132   9.385   5.111   8.987
27297WAT     H182133   9.294   5.089   9.021
27297WAT     H282134   9.452   5.051   9.031
27298WAT      O82135   6.636   4.747   7.017
27298WAT     H182136   6.565   4.815   7.035
27298WAT     H282137   6.720   4.773   7.063
27299WAT      O82138   1.792   4.930   3.813
27299WAT     H182139   1.756   4.841   3.839
27299WAT     H282140   1.730   5.002   3.845
27300WAT      O82141   0.971   6.145   4.678
27300WAT     H182142   0.940   6.100   4.762
27300WAT     H282143   0.936   6.094   4.599
27301WAT      O82144   4.682   1.325   4.381
27301WAT     H182145   4.741   1.385   4.434
27301WAT     H282146   4.609   1.290   4.439
27302WAT      O82147   7.298   8.951   1.278
27302WAT     H182148   7.237   9.013   1.327
27302WAT     H282149   7.369   8.919   1.341
27303WAT      O82150   8.447   3.624   8.525
27303WAT     H182151   8.529   3.615   8.582
27303WAT     H282152   8.389   3.697   8.560
27304WAT      O82153   1.708   8.357   8.907
27304WAT     H182154   1.805   8.336   8.919
27304WAT     H282155   1.675   8.406   8.987
27305WAT      O82156   2.506   0.646   6.440
27305WAT     H182157   2.475   0.553   6.458
27305WAT     H282158   2.518   0.660   6.342
27306WAT      O82159   3.060   7.683   1.830
27306WAT     H182160   3.088   7.760   1.889
27306WAT     H282161   2.969   7.653   1.856
27307WAT      O82162   9.134   6.286   8.163
27307WAT     H182163   9.088   6.212   8.114
27307WAT     H282164   9.137   6.367   8.106
27308WAT      O82165   7.358   0.937   2.803
27308WAT     H182166   7.305   0.862   2.842
27308WAT     H282167   7.373   0.920   2.706
27309WAT      O82168   7.011   3.496   2.736
27309WAT     H182169   7.004   3.596   2.737
27309WAT     H282170   7.013   3.464   2.641
27310WAT      O82171   2.351   4.362   4.292
27310WAT     H182172   2.430   4.347   4.352
27310WAT     H282173   2.383   4.366   4.197
27311WAT      O82174   2.669   5.714   5.342
27311WAT     H182175   2.678   5.633   5.400
27311WAT     H282176   2.736   5.782   5.370
27312WAT      O82177   8.831   3.834   1.591
27312WAT     H182178   8.742   3.824   1.635
27312WAT     H282179   8.823   3.895   1.512
27313WAT      O82180   3.069   7.457   4.019
27313WAT     H182181   3.037   7.457   3.924
27313WAT     H282182   3.046   7.545   4.062
27314WAT      O82183   8.288   2.201   6.750
27314WAT     H182184   8.368   2.261   6.756
27314WAT     H282185   8.318   2.106   6.754
27315WAT      O82186   3.379   7.503   9.738
27315WAT     H182187   3.411   7.597   9.731
27315WAT     H282188   3.312   7.485   9.667
27316WAT      O82189   3.194   3.956   0.335
27316WAT     H182190   3.149   3.900   0.265
27316WAT     H282191   3.193   4.052   0.306
27317WAT      O82192   8.843   8.471   5.990
27317WAT     H182193   8.892   8.494   6.074
27317WAT     H282194   8.839   8.552   5.931
27318WAT      O82195   5.699   6.563   3.981
27318WAT     H182196   5.717   6.514   4.067
27318WAT     H282197   5.618   6.524   3.937
27319WAT      O82198   0.033   8.914   4.128
27319WAT     H182199   0.072   8.848   4.064
27319WAT     H282200  -0.067   8.912   4.122
27320WAT      O82201   3.447   8.655   7.487
27320WAT     H182202   3.358   8.658   7.532
27320WAT     H282203   3.515   8.617   7.550
27321WAT      O82204   0.984   4.260   2.405
27321WAT     H182205   0.994   4.164   2.430
27321WAT     H282206   1.043   4.280   2.327
27322WAT      O82207   7.524   7.585   6.406
27322WAT     H182208   7.433   7.593   6.366
27322WAT     H282209   7.522   7.518   6.480
27323WAT      O82210   1.373   5.379   3.691
27323WAT     H182211   1.429   5.449   3.647
27323WAT     H282212   1.431   5.318   3.744
27324WAT      O82213   3.171   9.377   5.089
27324WAT     H182214   3.153   9.476   5.091
27324WAT     H282215   3.114   9.334   5.019
27325WAT      O82216   1.333   0.984   3.385
27325WAT     H182217   1.323   0.899   3.333
27325WAT     H282218   1.334   0.962   3.483
27326WAT      O82219   4.845   6.129   8.261
27326WAT     H182220   4.830   6.030   8.271
27326WAT     H282221   4.912   6.145   8.189
27327WAT      O82222   3.522   4.361   0.737
27327WAT     H182223   3.434   4.402   0.712
27327WAT     H282224   3.582   4.431   0.776
27328WAT      O82225   5.010   5.205   6.880
27328WAT     H182226   5.085   5.237   6.822
27328WAT     H282227   4.994   5.270   6.953
27329WAT      O82228   2.481   7.517   4.016
27329WAT     H182229   2.395   7.507   3.965
27329WAT     H282230   2.465   7.497   4.113
27330WAT      O82231   4.543   6.821   5.941
27330WAT     H182232   4.625   6.878   5.932
27330WAT     H282233   4.546   6.774   6.030
27331WAT      O82234   3.947   9.363   1.574
27331WAT     H182235   3.850   9.371   1.595
27331WAT     H282236   3.996   9.331   1.656
27332WAT      O82237   9.742   9.789   8.938
27332WAT     H182238   9.674   9.806   8.867
27332WAT     H282239   9.730   9.856   9.011
27333WAT      O82240   3.100   8.660   4.784
27333WAT     H182241   3.077   8.755   4.762
27333WAT     H282242   3.016   8.606   4.791
27334WAT      O82243   4.948   8.959   5.589
27334WAT     H182244   4.876   9.008   5.638
27334WAT     H282245   4.953   8.865   5.622
27335WAT      O82246   5.126   9.695   9.545
27335WAT     H182247   5.132   9.595   9.547
27335WAT     H282248   5.217   9.733   9.533
27336WAT      O82249   2.153   0.379   4.968
27336WAT     H182250   2.167   0.297   5.023
27336WAT     H282251   2.074   0.429   5.003
27337WAT      O82252   2.069   2.861   9.456
27337WAT     H182253   2.083   2.897   9.364
27337WAT     H282254   1.995   2.794   9.455
27338WAT      O82255   4.881   4.558   6.995
27338WAT     H182256   4.945   4.633   6.979
27338WAT     H282257   4.874   4.502   6.913
27339WAT      O82258   7.108   5.462   3.115
27339WAT     H182259   7.151   5.448   3.204
27339WAT     H282260   7.018   5.418   3.114
27340WAT      O82261   6.519   9.742   7.227
27340WAT     H182262   6.569   9.767   7.310
27340WAT     H282263   6.445   9.807   7.212
27341WAT      O82264   3.319   3.666   7.567
27341WAT     H182265   3.243   3.729   7.586
27341WAT     H282266   3.404   3.717   7.560
27342WAT      O82267   4.425   2.318   0.802
27342WAT     H182268   4.377   2.368   0.731
27342WAT     H282269   4.521   2.347   0.805
27343WAT      O82270   8.260   7.228   4.646
27343WAT     H182271   8.294   7.223   4.552
27343WAT     H282272   8.328   7.188   4.707
27344WAT      O82273   6.298   8.343   0.486
27344WAT     H182274   6.304   8.337   0.585
27344WAT     H282275   6.363   8.410   0.452
27345WAT      O82276   7.189   5.305   1.022
27345WAT     H182277   7.118   5.235   1.013
27345WAT     H282278   7.279   5.260   1.028
27346WAT      O82279   3.187   6.314   1.447
27346WAT     H182280   3.262   6.317   1.381
27346WAT     H282281   3.126   6.392   1.433
27347WAT      O82282   0.101   0.743   4.975
27347WAT     H182283   0.100   0.823   4.915
27347WAT     H282284   0.031   0.753   5.045
27348WAT      O82285   2.621   8.342   6.094
27348WAT     H182286   2.652   8.308   6.005
27348WAT     H282287   2.700   8.367   6.149
27349WAT      O82288   4.259   5.208   2.762
27349WAT     H182289   4.170   5.190   2.804
27349WAT     H282290   4.320   5.249   2.830
27350WAT      O82291   8.038   6.745   8.193
27350WAT     H182292   8.077   6.836   8.198
27350WAT     H282293   7.948   6.744   8.237
27351WAT      O82294   3.566   3.436   6.811
27351WAT     H182295   3.610   3.507   6.755
27351WAT     H282296   3.468   3.453   6.816
27352WAT      O82297   9.040   0.087   8.290
27352WAT     H182298   9.125   0.106   8.241
27352WAT     H282299   9.033   0.148   8.369
27353WAT      O82300   4.672   5.306   5.048
27353WAT     H182301   4.672   5.398   5.085
27353WAT     H282302   4.749   5.295   4.985
27354WAT      O82303   7.391   2.155   7.323
27354WAT     H182304   7.317   2.124   7.382
27354WAT     H282305   7.463   2.085   7.322
27355WAT      O82306   2.398   7.057   5.148
27355WAT     H182307   2.392   7.002   5.231
27355WAT     H282308   2.400   7.154   5.172
27356WAT      O82309   5.395   7.740   8.156
27356WAT     H182310   5.392   7.838   8.134
27356WAT     H282311   5.486   7.717   8.191
27357WAT      O82312   5.049   2.200   4.405
27357WAT     H182313   5.112   2.199   4.483
27357WAT     H282314   4.956   2.219   4.439
27358WAT      O82315   8.720   5.448   8.841
27358WAT     H182316   8.685   5.406   8.757
27358WAT     H282317   8.682   5.401   8.921
27359WAT      O82318   2.761   1.924   3.934
27359WAT     H182319   2.806   1.836   3.948
27359WAT     H282320   2.805   1.994   3.990
27360WAT      O82321   1.393   4.023   7.120
27360WAT     H182322   1.389   3.952   7.049
27360WAT     H282323   1.461   3.997   7.188
27361WAT      O82324   2.489   0.181   2.472
27361WAT     H182325   2.392   0.159   2.461
27361WAT     H282326   2.523   0.137   2.555
27362WAT      O82327   5.774   3.160   1.002
27362WAT     H182328   5.729   3.208   1.078
27362WAT     H282329   5.750   3.205   0.916
27363WAT      O82330   7.938   2.891   2.351
27363WAT     H182331   8.005   2.892   2.277
27363WAT     H282332   7.976   2.937   2.431
27364WAT      O82333   7.385   3.755   3.065
27364WAT     H182334   7.307   3.722   3.118
27364WAT     H282335   7.470   3.730   3.112
27365WAT      O82336   5.123   1.202   8.534
27365WAT     H182337   5.207   1.196   8.481
27365WAT     H282338   5.055   1.255   8.484
27366WAT      O82339   7.507   7.189   9.826
27366WAT     H182340   7.459   7.123   9.883
27366WAT     H282341   7.584   7.227   9.877
27367WAT      O82342   8.485   6.957   6.004
27367WAT     H182343   8.466   6.902   6.086
27367WAT     H282344   8.549   6.908   5.945
27368WAT      O82345   4.471   0.596   7.545
27368WAT     H182346   4.517   0.511   7.571
27368WAT     H282347   4.445   0.646   7.627
27369WAT      O82348   7.776   9.585   3.386
27369WAT     H182349   7.681   9.602   3.410
27369WAT     H282350   7.801   9.641   3.307
27370WAT      O82351   8.931   7.081   2.810
27370WAT     H182352   8.944   7.128   2.898
27370WAT     H282353   8.919   6.983   2.825
27371WAT      O82354   4.831   3.743   9.423
27371WAT     H182355   4.870   3.713   9.336
27371WAT     H282356   4.754   3.804   9.405
27372WAT      O82357   9.403   1.687   7.519
27372WAT     H182358   9.330   1.737   7.566
27372WAT     H282359   9.468   1.751   7.479
27373WAT      O82360   3.712   6.140   9.596
27373WAT     H182361   3.801   6.103   9.624
27373WAT     H282362   3.725   6.206   9.522
27374WAT      O82363   3.927   6.651   2.549
27374WAT     H182364   3.845   6.670   2.494
27374WAT     H282365   3.900   6.625   2.642
27375WAT      O82366   0.201   3.583   4.971
27375WAT     H182367   0.244   3.493   4.980
27375WAT     H282368   0.259   3.642   4.915
27376WAT      O82369   0.556   5.400   5.215
27376WAT     H182370   0.480   5.443   5.166
27376WAT     H282371   0.576   5.311   5.173
27377WAT      O82372   2.496   4.847   2.908
27377WAT     H182373   2.482   4.844   2.809
27377WAT     H282374   2.571   4.785   2.933
27378WAT      O82375   3.926   5.806   4.072
27378WAT     H182376   3.848   5.745   4.060
27378WAT     H282377   3.908   5.870   4.146
27379WAT      O82378   4.920   7.253   4.303
27379WAT     H182379   4.929   7.163   4.345
27379WAT     H282380   4.982   7.260   4.226
27380WAT      O82381   7.820   5.228   3.373
27380WAT     H182382   7.723   5.246   3.358
27380WAT     H282383   7.868   5.229   3.285
27381WAT      O82384   2.598   3.325   9.589
27381WAT     H182385   2.628   3.232   9.569
27381WAT     H282386   2.534   3.324   9.666
27382WAT      O82387   4.403   6.065   3.915
27382WAT     H182388   4.316   6.037   3.873
27382WAT     H282389   4.428   6.156   3.882
27383WAT      O82390   3.737   1.028   2.300
27383WAT     H182391   3.691   0.940   2.287
27383WAT     H282392   3.789   1.026   2.385
27384WAT      O82393   2.987   6.152   0.216
27384WAT     H182394   3.084   6.174   0.229
27384WAT     H282395   2.931   6.228   0.247
27385WAT      O82396   7.922   1.177   5.442
27385WAT     H182397   7.945   1.124   5.524
27385WAT     H282398   7.957   1.130   5.361
27386WAT      O82399   2.357   7.953   1.209
27386WAT     H182400   2.432   8.000   1.163
27386WAT     H282401   2.300   8.020   1.257
27387WAT      O82402   8.757   7.958   4.134
27387WAT     H182403   8.663   7.945   4.104
27387WAT     H282404   8.782   7.886   4.199
27388WAT      O82405   1.022   9.011   5.831
27388WAT     H182406   0.973   9.097   5.821
27388WAT     H282407   0.963   8.945   5.879
27389WAT      O82408   3.188   8.610   7.259
27389WAT     H182409   3.226   8.698   7.231
27389WAT     H282410   3.236   8.536   7.212
27390WAT      O82411   0.741   3.510   4.938
27390WAT     H182412   0.749   3.608   4.918
27390WAT     H282413   0.712   3.462   4.855
27391WAT      O82414   2.052   2.717   7.933
27391WAT     H182415   2.046   2.799   7.989
27391WAT     H282416   1.961   2.679   7.918
27392WAT      O82417   8.702   3.736   8.310
27392WAT     H182418   8.623   3.702   8.362
27392WAT     H282419   8.707   3.835   8.318
27393WAT      O82420   1.650   8.840   6.511
27393WAT     H182421   1.725   8.865   6.450
27393WAT     H282422   1.645   8.740   6.519
27394WAT      O82423   8.441   7.348   0.763
27394WAT     H182424   8.459   7.413   0.836
27394WAT     H282425   8.390   7.394   0.690
27395WAT      O82426   4.929   3.659   9.188
27395WAT     H182427   4.947   3.562   9.203
27395WAT     H282428   4.843   3.670   9.138
27396WAT      O82429   4.994   9.637   4.204
27396WAT     H182430   5.091   9.621   4.226
27396WAT     H282431   4.966   9.725   4.242
27397WAT      O82432   1.132   6.314   2.293
27397WAT     H182433   1.192   6.241   2.259
27397WAT     H282434   1.187   6.393   2.320
27398WAT      O82435   6.373   3.609   8.493
27398WAT     H182436   6.402   3.514   8.484
27398WAT     H282437   6.314   3.633   8.416
27399WAT      O82438   5.391   3.824   0.518
27399WAT     H182439   5.330   3.779   0.583
27399WAT     H282440   5.420   3.759   0.448
27400WAT      O82441   5.995   9.809   4.430
27400WAT     H182442   5.971   9.855   4.345
27400WAT     H282443   5.916   9.808   4.491
27401WAT      O82444   5.580   0.269   0.469
27401WAT     H182445   5.604   0.331   0.393
27401WAT     H282446   5.607   0.312   0.556
27402WAT      O82447   1.011   0.779   3.435
27402WAT     H182448   1.024   0.831   3.519
27402WAT     H282449   0.942   0.708   3.451
27403WAT      O82450   6.080   0.534   9.220
27403WAT     H182451   6.049   0.557   9.312
27403WAT     H282452   6.150   0.463   9.225
27404WAT      O82453   3.878   4.146   4.338
27404WAT     H182454   3.951   4.084   4.366
27404WAT     H282455   3.885   4.232   4.389
27405WAT      O82456   1.992   0.938   5.390
27405WAT     H182457   2.041   1.021   5.364
27405WAT     H282458   1.947   0.952   5.479
27406WAT      O82459   5.811   1.777   5.655
27406WAT     H182460   5.806   1.795   5.753
27406WAT     H282461   5.801   1.679   5.639
27407WAT      O82462   4.092   9.559   5.377
27407WAT     H182463   4.140   9.558   5.465
27407WAT     H282464   4.142   9.502   5.312
27408WAT      O82465   2.936   9.354   8.133
27408WAT     H182466   2.883   9.434   8.106
27408WAT     H282467   2.906   9.322   8.223
27409WAT      O82468   7.093   6.130   7.347
27409WAT     H182469   7.111   6.037   7.316
27409WAT     H282470   7.180   6.178   7.361
27410WAT      O82471   3.424   8.178   7.532
27410WAT     H182472   3.377   8.092   7.511
27410WAT     H282473   3.512   8.180   7.484
27411WAT      O82474   6.136   8.156   0.975
27411WAT     H182475   6.113   8.134   0.880
27411WAT     H282476   6.216   8.104   1.002
27412WAT      O82477   0.901   3.751   4.910
27412WAT     H182478   0.943   3.786   4.993
27412WAT     H282479   0.969   3.702   4.856
27413WAT      O82480   1.236   6.331   8.703
27413WAT     H182481   1.213   6.245   8.748
27413WAT     H282482   1.152   6.381   8.680
27414WAT      O82483   3.612   3.368   7.089
27414WAT     H182484   3.582   3.380   6.994
27414WAT     H282485   3.656   3.452   7.121
27415WAT      O82486   8.061   0.151   3.137
27415WAT     H182487   8.158   0.136   3.156
27415WAT     H282488   8.050   0.175   3.040
27416WAT      O82489   9.651   3.907   5.769
27416WAT     H182490   9.702   3.839   5.822
27416WAT     H282491   9.586   3.861   5.709
27417WAT      O82492   5.206   6.028   0.539
27417WAT     H182493   5.158   5.941   0.521
27417WAT     H282494   5.296   6.025   0.497
27418WAT      O82495   8.298   8.873   1.695
27418WAT     H182496   8.250   8.895   1.780
27418WAT     H282497   8.328   8.778   1.697
27419WAT      O82498   5.030   8.170   9.709
27419WAT     H182499   4.944   8.134   9.673
27419WAT     H282500   5.044   8.136   9.802
27420WAT      O82501   4.629   1.421   5.683
27420WAT     H182502   4.725   1.397   5.672
27420WAT     H282503   4.606   1.425   5.780
27421WAT      O82504   9.077   6.592   0.182
27421WAT     H182505   9.028   6.621   0.264
27421WAT     H282506   9.045   6.502   0.153
27422WAT      O82507   3.707   6.443   3.474
27422WAT     H182508   3.774   6.446   3.549
27422WAT     H282509   3.648   6.523   3.479
27423WAT      O82510   3.397   1.108   7.800
27423WAT     H182511   3.353   1.194   7.824
27423WAT     H282512   3.395   1.046   7.878
27424WAT      O82513   8.803   5.049   3.921
27424WAT     H182514   8.857   4.965   3.915
27424WAT     H282515   8.805   5.097   3.833
27425WAT      O82516   3.764   9.022   3.322
27425WAT     H182517   3.843   9.022   3.259
27425WAT     H282518   3.797   9.019   3.416
27426WAT      O82519   8.051   2.503   1.269
27426WAT     H182520   8.027   2.600   1.264
27426WAT     H282521   8.021   2.465   1.356
27427WAT      O82522   2.380   2.089   1.271
27427WAT     H182523   2.393   2.123   1.178
27427WAT     H282524   2.374   2.166   1.334
27428WAT      O82525   0.828   2.093   6.067
27428WAT     H182526   0.902   2.132   6.013
27428WAT     H282527   0.761   2.051   6.006
27429WAT      O82528   1.054   9.043   2.454
27429WAT     H182529   1.006   9.029   2.540
27429WAT     H282530   0.991   9.079   2.385
27430WAT      O82531   5.719   1.067   8.896
27430WAT     H182532   5.705   1.161   8.866
27430WAT     H282533   5.638   1.013   8.874
27431WAT      O82534   0.511   4.595   0.084
27431WAT     H182535   0.534   4.660   0.011
27431WAT     H282536   0.595   4.566   0.130
27432WAT      O82537   0.981   4.546   0.188
27432WAT     H182538   0.981   4.629   0.243
27432WAT     H282539   1.057   4.549   0.122
27433WAT      O82540   0.134   6.174   9.295
27433WAT     H182541   0.048   6.160   9.246
27433WAT     H282542   0.181   6.086   9.304
27434WAT      O82543   0.013   8.037   7.626
27434WAT     H182544  -0.068   8.067   7.676
27434WAT     H282545   0.080   8.112   7.623
27435WAT      O82546   6.073   7.452   7.409
27435WAT     H182547   6.011   7.378   7.387
27435WAT     H282548   6.163   7.434   7.369
27436WAT      O82549   5.017   9.267   6.786
27436WAT     H182550   5.067   9.260   6.700
27436WAT     H282551   4.929   9.219   6.779
27437WAT      O82552   7.323   6.264   7.301
27437WAT     H182553   7.419   6.235   7.298
27437WAT     H282554   7.291   6.284   7.209
27438WAT      O82555   6.781   5.464   2.191
27438WAT     H182556   6.686   5.469   2.222
27438WAT     H282557   6.841   5.449   2.269
27439WAT      O82558   5.307   6.483   0.975
27439WAT     H182559   5.299   6.465   0.877
27439WAT     H282560   5.393   6.529   0.995
27440WAT      O82561   5.181   5.404   7.779
27440WAT     H182562   5.153   5.314   7.813
27440WAT     H282563   5.235   5.392   7.696
27441WAT      O82564   1.040   1.377   8.682
27441WAT     H182565   1.083   1.462   8.650
27441WAT     H282566   0.961   1.357   8.625
27442WAT      O82567   4.363   0.791   9.209
27442WAT     H182568   4.326   0.778   9.301
27442WAT     H282569   4.304   0.852   9.157
27443WAT      O82570   4.690   2.740   9.328
27443WAT     H182571   4.636   2.693   9.258
27443WAT     H282572   4.713   2.832   9.296
27444WAT      O82573   6.173   5.936   7.093
27444WAT     H182574   6.161   6.015   7.153
27444WAT     H282575   6.134   5.957   7.003
27445WAT      O82576   2.322   8.619   4.738
27445WAT     H182577   2.288   8.713   4.738
27445WAT     H282578   2.380   8.605   4.657
27446WAT      O82579   4.959   0.655   5.786
27446WAT     H182580   4.987   0.634   5.880
27446WAT     H282581   5.016   0.604   5.722
27447WAT      O82582   2.348   6.427   9.282
27447WAT     H182583   2.427   6.390   9.332
27447WAT     H282584   2.278   6.356   9.274
27448WAT      O82585   5.806   7.473   8.336
27448WAT     H182586   5.840   7.493   8.427
27448WAT     H282587   5.707   7.487   8.334
27449WAT      O82588   9.002   0.134   0.127
27449WAT     H182589   9.019   0.103   0.033
27449WAT     H282590   9.054   0.217   0.144
27450WAT      O82591   1.334   9.497   1.684
27450WAT     H182592   1.338   9.576   1.622
27450WAT     H282593   1.373   9.523   1.773
27451WAT      O82594   8.398   7.479   6.564
27451WAT     H182595   8.363   7.388   6.543
27451WAT     H282596   8.376   7.502   6.659
27452WAT      O82597   5.884   6.470   0.018
27452WAT     H182598   5.860   6.383  -0.024
27452WAT     H282599   5.921   6.532  -0.051
27453WAT      O82600   1.958   3.776   9.181
27453WAT     H182601   2.036   3.737   9.231
27453WAT     H282602   1.978   3.775   9.083
27454WAT      O82603   5.110   3.136   7.799
27454WAT     H182604   5.158   3.151   7.713
27454WAT     H282605   5.176   3.123   7.873
27455WAT      O82606   5.381   5.746   1.285
27455WAT     H182607   5.331   5.660   1.288
27455WAT     H282608   5.319   5.820   1.259
27456WAT      O82609   3.368   6.172   2.176
27456WAT     H182610   3.345   6.233   2.100
27456WAT     H282611   3.350   6.077   2.150
27457WAT      O82612   6.236   4.105   8.078
27457WAT     H182613   6.309   4.069   8.021
27457WAT     H282614   6.159   4.133   8.020
27458WAT      O82615   4.982   7.617   4.121
27458WAT     H182616   4.959   7.537   4.065
27458WAT     H282617   4.986   7.698   4.064
27459WAT      O82618   3.367   1.639   8.159
27459WAT     H182619   3.298   1.631   8.087
27459WAT     H282620   3.328   1.606   8.246
27460WAT      O82621   1.056   4.800   8.949
27460WAT     H182622   1.018   4.785   9.040
27460WAT     H282623   1.133   4.864   8.956
27461WAT      O82624   1.308   7.171   8.801
27461WAT     H182625   1.324   7.259   8.756
27461WAT     H282626   1.275   7.187   8.894
27462WAT      O82627   8.006   7.836   9.071
27462WAT     H182628   7.921   7.792   9.101
27462WAT     H282629   8.018   7.922   9.122
27463WAT      O82630   8.700   1.403   0.654
27463WAT     H182631   8.673   1.496   0.631
27463WAT     H282632   8.619   1.345   0.661
27464WAT      O82633   8.763   7.517   2.060
27464WAT     H182634   8.737   7.605   2.021
27464WAT     H282635   8.698   7.446   2.031
27465WAT      O82636   3.673   4.973   3.495
27465WAT     H182637   3.690   5.063   3.536
27465WAT     H282638   3.667   4.983   3.395
27466WAT      O82639   1.533   1.901   5.966
27466WAT     H182640   1.530   1.848   6.051
27466WAT     H282641   1.611   1.871   5.911
27467WAT      O82642   1.712   7.699   4.310
27467WAT     H182643   1.770   7.672   4.233
27467WAT     H282644   1.720   7.631   4.383
27468WAT      O82645   5.075   1.455   3.320
27468WAT     H182646   5.144   1.478   3.251
27468WAT     H282647   5.119   1.443   3.409
27469WAT      O82648   1.706   3.677   4.444
27469WAT     H182649   1.720   3.657   4.347
27469WAT     H282650   1.777   3.740   4.476
27470WAT      O82651   8.419   9.594   7.002
27470WAT     H182652   8.330   9.625   7.035
27470WAT     H282653   8.410   9.557   6.910
27471WAT      O82654   7.774   8.778   4.500
27471WAT     H182655   7.761   8.875   4.521
27471WAT     H282656   7.806   8.731   4.582
27472WAT      O82657   2.058   9.668   0.477
27472WAT     H182658   1.959   9.683   0.469
27472WAT     H282659   2.106   9.755   0.472
27473WAT      O82660   8.795   1.162   8.097
27473WAT     H182661   8.888   1.161   8.133
27473WAT     H282662   8.767   1.069   8.074
27474WAT      O82663   8.906   8.104   0.897
27474WAT     H182664   8.952   8.161   0.965
27474WAT     H282665   8.818   8.144   0.873
27475WAT      O82666   1.405   1.875   6.442
27475WAT     H182667   1.438   1.968   6.423
27475WAT     H282668   1.457   1.836   6.517
27476WAT      O82669   5.176   1.601   6.502
27476WAT     H182670   5.227   1.681   6.471
27476WAT     H282671   5.081   1.607   6.470
27477WAT      O82672   1.982   4.748   0.598
27477WAT     H182673   1.895   4.701   0.613
27477WAT     H282674   2.054   4.680   0.585
27478WAT      O82675   7.048   3.955   9.158
27478WAT     H182676   7.112   3.954   9.081
27478WAT     H282677   7.067   3.877   9.218
27479WAT      O82678   4.765   7.680   1.867
27479WAT     H182679   4.709   7.686   1.785
27479WAT     H282680   4.775   7.584   1.894
27480WAT      O82681   4.312   4.357   6.234
27480WAT     H182682   4.331   4.425   6.306
27480WAT     H282683   4.351   4.269   6.260
27481WAT      O82684   0.027   9.282   9.443
27481WAT     H182685   0.014   9.360   9.383
27481WAT     H282686   0.107   9.297   9.501
27482WAT      O82687   7.125   1.690   5.899
27482WAT     H182688   7.208   1.670   5.950
27482WAT     H282689   7.145   1.683   5.801
27483WAT      O82690   0.779   5.752   6.019
27483WAT     H182691   0.795   5.735   6.116
27483WAT     H282692   0.866   5.770   5.973
27484WAT      O82693   2.257   8.360   8.272
27484WAT     H182694   2.290   8.344   8.365
27484WAT     H282695   2.307   8.302   8.208
27485WAT      O82696   2.248   1.722   1.808
27485WAT     H182697   2.248   1.743   1.906
27485WAT     H282698   2.254   1.623   1.795
27486WAT      O82699   0.422   9.452   8.740
27486WAT     H182700   0.458   9.519   8.675
27486WAT     H282701   0.346   9.493   8.790
27487WAT      O82702   6.604   7.052   6.481
27487WAT     H182703   6.676   7.081   6.544
27487WAT     H282704   6.529   7.119   6.484
27488WAT      O82705   6.279   2.185   4.324
27488WAT     H182706   6.243   2.217   4.412
27488WAT     H282707   6.204   2.146   4.270
27489WAT      O82708   5.421   9.200   4.421
27489WAT     H182709   5.366   9.116   4.414
27489WAT     H282710   5.464   9.219   4.333
27490WAT      O82711   4.814   2.186   2.139
27490WAT     H182712   4.850   2.146   2.223
27490WAT     H282713   4.714   2.178   2.138
27491WAT      O82714   2.464   8.785   6.893
27491WAT     H182715   2.506   8.839   6.966
27491WAT     H282716   2.532   8.766   6.823
27492WAT      O82717   6.502   7.505   4.719
27492WAT     H182718   6.414   7.549   4.698
27492WAT     H282719   6.496   7.407   4.700
27493WAT      O82720   0.045   0.954   4.719
27493WAT     H182721   0.043   0.899   4.635
27493WAT     H282722  -0.020   1.030   4.710
27494WAT      O82723   2.082   5.027   7.688
27494WAT     H182724   2.120   5.084   7.761
27494WAT     H282725   2.098   5.072   7.600
27495WAT      O82726   2.322   4.979   5.204
27495WAT     H182727   2.224   4.995   5.220
27495WAT     H282728   2.336   4.883   5.178
27496WAT      O82729   6.587   8.189   1.782
27496WAT     H182730   6.555   8.100   1.748
27496WAT     H282731   6.538   8.262   1.735
27497WAT      O82732   8.674   4.286   7.785
27497WAT     H182733   8.716   4.195   7.781
27497WAT     H282734   8.575   4.276   7.789
27498WAT      O82735   7.037   2.744   1.684
27498WAT     H182736   6.996   2.694   1.760
27498WAT     H282737   7.092   2.820   1.719
27499WAT      O82738   8.833   8.243   1.652
27499WAT     H182739   8.805   8.159   1.699
27499WAT     H282740   8.833   8.319   1.717
27500WAT      O82741   1.403   1.956   7.807
27500WAT     H182742   1.361   2.029   7.754
27500WAT     H282743   1.342   1.928   7.881
27501WAT      O82744   6.746   3.343   0.226
27501WAT     H182745   6.707   3.266   0.277
27501WAT     H282746   6.816   3.387   0.281
27502WAT      O82747   5.506   4.157   2.967
27502WAT     H182748   5.519   4.251   2.936
27502WAT     H282749   5.433   4.113   2.913
27503WAT      O82750   2.756   3.576   5.284
27503WAT     H182751   2.706   3.660   5.264
27503WAT     H282752   2.698   3.497   5.263
27504WAT      O82753   6.699   5.398   7.411
27504WAT     H182754   6.777   5.343   7.383
27504WAT     H282755   6.624   5.338   7.438
27505WAT      O82756   4.688   8.970   8.522
27505WAT     H182757   4.673   8.876   8.550
27505WAT     H282758   4.600   9.017   8.512
27506WAT      O82759   6.406   7.704   8.013
27506WAT     H182760   6.479   7.663   8.068
27506WAT     H282761   6.373   7.636   7.947
27507WAT      O82762   3.714   9.251   8.276
27507WAT     H182763   3.771   9.202   8.211
27507WAT     H282764   3.769   9.323   8.320
27508WAT      O82765   1.124   5.422   3.811
27508WAT     H182766   1.214   5.436   3.770
27508WAT     H282767   1.054   5.467   3.756
27509WAT      O82768   8.751   3.013   2.670
27509WAT     H182769   8.826   3.012   2.736
27509WAT     H282770   8.760   3.093   2.610
27510WAT      O82771   5.093   2.789   1.957
27510WAT     H182772   5.100   2.886   1.934
27510WAT     H282773   5.006   2.772   2.003
27511WAT      O82774   5.384   6.940   0.626
27511WAT     H182775   5.443   6.869   0.663
27511WAT     H282776   5.430   7.029   0.633
27512WAT      O82777   6.788   1.818   5.515
27512WAT     H182778   6.715   1.750   5.513
27512WAT     H282779   6.754   1.905   5.480
27513WAT      O82780   0.557   8.341   3.194
27513WAT     H182781   0.648   8.382   3.202
27513WAT     H282782   0.556   8.253   3.240
27514WAT      O82783   1.279   6.132   2.781
27514WAT     H182784   1.315   6.202   2.720
27514WAT     H282785   1.185   6.155   2.807
27515WAT      O82786   1.199   3.022   0.591
27515WAT     H182787   1.268   2.963   0.634
27515WAT     H282788   1.220   3.033   0.494
27516WAT      O82789   5.319   3.233   4.237
27516WAT     H182790   5.368   3.215   4.322
27516WAT     H282791   5.354   3.174   4.165
27517WAT      O82792   7.864   5.971   2.796
27517WAT     H182793   7.776   5.988   2.752
27517WAT     H282794   7.854   5.897   2.863
27518WAT      O82795   7.300   8.367   6.375
27518WAT     H182796   7.229   8.436   6.361
27518WAT     H282797   7.259   8.276   6.372
27519WAT      O82798   6.531   7.084   6.942
27519WAT     H182799   6.563   7.028   6.866
27519WAT     H282800   6.538   7.180   6.918
27520WAT      O82801   8.259   7.425   0.349
27520WAT     H182802   8.310   7.340   0.360
27520WAT     H282803   8.161   7.404   0.342
27521WAT      O82804   2.684   9.185   9.865
27521WAT     H182805   2.778   9.184   9.831
27521WAT     H282806   2.651   9.279   9.868
27522WAT      O82807   7.186   6.938   8.648
27522WAT     H182808   7.236   6.995   8.583
27522WAT     H282809   7.248   6.910   8.722
27523WAT      O82810   0.052   5.742   7.238
27523WAT     H182811   0.122   5.785   7.296
27523WAT     H282812   0.082   5.650   7.212
27524WAT      O82813   2.975   6.173   2.380
27524WAT     H182814   3.061   6.191   2.427
27524WAT     H282815   2.975   6.080   2.344
27525WAT      O82816   4.682   8.556   9.376
27525WAT     H182817   4.721   8.475   9.331
27525WAT     H282818   4.702   8.637   9.321
27526WAT      O82819   4.942   4.198   0.900
27526WAT     H182820   4.943   4.295   0.877
27526WAT     H282821   4.963   4.143   0.819
27527WAT      O82822   6.482   6.505   7.873
27527WAT     H182823   6.413   6.517   7.944
27527WAT     H282824   6.439   6.469   7.790
27528WAT      O82825   3.284   4.608   6.081
27528WAT     H182826   3.186   4.593   6.067
27528WAT     H282827   3.323   4.531   6.132
27529WAT      O82828   6.184   8.984   7.160
27529WAT     H182829   6.091   8.952   7.174
27529WAT     H282830   6.196   9.071   7.208
27530WAT      O82831   3.410   6.874   7.330
27530WAT     H182832   3.353   6.853   7.409
27530WAT     H282833   3.490   6.926   7.360
27531WAT      O82834   5.392   6.335   4.846
27531WAT     H182835   5.420   6.347   4.941
27531WAT     H282836   5.402   6.238   4.820
27532WAT      O82837   6.876   0.532   8.924
27532WAT     H182838   6.931   0.606   8.961
27532WAT     H282839   6.788   0.529   8.971
27533WAT      O82840   6.716   6.745   8.499
27533WAT     H182841   6.780   6.696   8.439
27533WAT     H282842   6.623   6.733   8.464
27534WAT      O82843   9.629   6.359   5.109
27534WAT     H182844   9.570   6.315   5.177
27534WAT     H282845   9.714   6.306   5.099
27535WAT      O82846   2.935   9.823   8.457
27535WAT     H182847   2.839   9.818   8.485
27535WAT     H282848   2.940   9.843   8.359
27536WAT      O82849   1.467   6.154   7.987
27536WAT     H182850   1.545   6.209   8.016
27536WAT     H282851   1.383   6.208   7.995
27537WAT      O82852   7.329   4.302   7.245
27537WAT     H182853   7.275   4.345   7.172
27537WAT     H282854   7.367   4.216   7.212
27538WAT      O82855   8.892   8.954   4.723
27538WAT     H182856   8.901   9.025   4.653
27538WAT     H282857   8.803   8.909   4.713
27539WAT      O82858   3.408   8.715   9.042
27539WAT     H182859   3.449   8.624   9.050
27539WAT     H282860   3.457   8.779   9.102
27540WAT      O82861   9.340   2.657   5.054
27540WAT     H182862   9.351   2.720   5.131
27540WAT     H282863   9.403   2.683   4.980
27541WAT      O82864   6.554   9.767   0.342
27541WAT     H182865   6.560   9.788   0.440
27541WAT     H282866   6.644   9.740   0.308
27542WAT      O82867   2.787   4.948   4.612
27542WAT     H182868   2.731   4.889   4.552
27542WAT     H282869   2.746   5.039   4.617
27543WAT      O82870   0.618   2.520   1.378
27543WAT     H182871   0.666   2.545   1.294
27543WAT     H282872   0.550   2.589   1.401
27544WAT      O82873   5.114   2.092   0.010
27544WAT     H182874   5.059   2.051   0.083
27544WAT     H282875   5.140   2.022  -0.056
27545WAT      O82876   1.137   0.466   1.108
27545WAT     H182877   1.164   0.377   1.073
27545WAT     H282878   1.057   0.499   1.058
27546WAT      O82879   0.924   1.970   1.767
27546WAT     H182880   0.980   1.913   1.828
27546WAT     H282881   0.973   2.054   1.744
27547WAT      O82882   5.707   0.212   8.684
27547WAT     H182883   5.754   0.298   8.661
27547WAT     H282884   5.750   0.171   8.764
27548WAT      O82885   5.587   1.273   6.068
27548WAT     H182886   5.537   1.187   6.070
27548WAT     H282887   5.674   1.260   6.021
27549WAT      O82888   2.062   8.448   5.361
27549WAT     H182889   2.098   8.354   5.365
27549WAT     H282890   2.112   8.504   5.427
27550WAT      O82891   1.083   7.959   4.178
27550WAT     H182892   1.080   7.971   4.277
27550WAT     H282893   1.028   8.030   4.133
27551WAT      O82894   5.165   4.515   6.676
27551WAT     H182895   5.174   4.428   6.724
27551WAT     H282896   5.109   4.578   6.730
27552WAT      O82897   8.386   2.027   3.341
27552WAT     H182898   8.288   2.028   3.323
27552WAT     H282899   8.403   1.979   3.427
27553WAT      O82900   0.269   5.141   1.671
27553WAT     H182901   0.187   5.147   1.615
27553WAT     H282902   0.266   5.058   1.727
27554WAT      O82903   4.855   9.494   9.312
27554WAT     H182904   4.913   9.576   9.315
27554WAT     H282905   4.795   9.499   9.232
27555WAT      O82906   3.762   9.489   6.142
27555WAT     H182907   3.856   9.474   6.170
27555WAT     H282908   3.756   9.491   6.042
27556WAT      O82909   5.578   4.777   7.100
27556WAT     H182910   5.568   4.734   7.190
27556WAT     H282911   5.498   4.756   7.044
27557WAT      O82912   5.984   3.012   4.976
27557WAT     H182913   5.941   2.924   4.959
27557WAT     H282914   6.081   3.007   4.954
27558WAT      O82915   0.306   0.168   9.595
27558WAT     H182916   0.354   0.255   9.612
27558WAT     H282917   0.313   0.110   9.677
27559WAT      O82918   3.919   5.812   2.548
27559WAT     H182919   3.859   5.779   2.621
27559WAT     H282920   3.876   5.796   2.459
27560WAT      O82921   3.587   0.624   1.547
27560WAT     H182922   3.635   0.538   1.564
27560WAT     H282923   3.493   0.618   1.580
27561WAT      O82924   4.638   0.074   3.643
27561WAT     H182925   4.676  -0.018   3.648
27561WAT     H282926   4.540   0.071   3.663
27562WAT      O82927   1.377   1.655   3.738
27562WAT     H182928   1.315   1.733   3.741
27562WAT     H282929   1.467   1.682   3.770
27563WAT      O82930   8.453   6.350   0.196
27563WAT     H182931   8.540   6.394   0.217
27563WAT     H282932   8.466   6.251   0.192
27564WAT      O82933   6.020   4.290   4.065
27564WAT     H182934   5.960   4.285   4.145
27564WAT     H282935   6.111   4.257   4.091
27565WAT      O82936   5.198   2.444   3.411
27565WAT     H182937   5.259   2.486   3.345
27565WAT     H282938   5.218   2.347   3.419
27566WAT      O82939   6.829   7.712   2.138
27566WAT     H182940   6.881   7.661   2.207
27566WAT     H282941   6.889   7.732   2.061
27567WAT      O82942   7.509   4.163   4.110
27567WAT     H182943   7.504   4.079   4.055
27567WAT     H282944   7.497   4.140   4.206
27568WAT      O82945   5.053   0.039   5.768
27568WAT     H182946   5.073  -0.056   5.744
27568WAT     H282947   5.120   0.099   5.725
27569WAT      O82948   5.635   8.512   9.197
27569WAT     H182949   5.726   8.516   9.156
27569WAT     H282950   5.577   8.450   9.144
27570WAT      O82951   1.123   5.748   5.489
27570WAT     H182952   1.215   5.736   5.451
27570WAT     H282953   1.071   5.663   5.477
27571WAT      O82954   1.811   4.793   9.577
27571WAT     H182955   1.755   4.713   9.596
27571WAT     H282956   1.850   4.785   9.485
27572WAT      O82957   2.738   1.881   9.027
27572WAT     H182958   2.751   1.912   9.121
27572WAT     H282959   2.789   1.796   9.013
27573WAT      O82960   0.917   5.503   4.165
27573WAT     H182961   0.855   5.543   4.097
27573WAT     H282962   1.010   5.531   4.145
27574WAT      O82963   8.146   1.651   9.045
27574WAT     H182964   8.082   1.630   9.119
27574WAT     H282965   8.196   1.734   9.068
27575WAT      O82966   7.436   2.749   2.980
27575WAT     H182967   7.400   2.819   2.919
27575WAT     H282968   7.512   2.701   2.936
27576WAT      O82969   1.512   0.710   7.341
27576WAT     H182970   1.415   0.696   7.320
27576WAT     H282971   1.553   0.624   7.368
27577WAT      O82972   7.175   9.709   7.978
27577WAT     H182973   7.128   9.644   7.919
27577WAT     H282974   7.272   9.685   7.983
27578WAT      O82975   0.199   0.090   2.027
27578WAT     H182976   0.129   0.088   1.955
27578WAT     H282977   0.186   0.171   2.084
27579WAT      O82978   4.509   5.455   1.974
27579WAT     H182979   4.459   5.443   2.060
27579WAT     H282980   4.607   5.449   1.991
27580WAT      O82981   7.548   3.880   9.341
27580WAT     H182982   7.598   3.821   9.405
27580WAT     H282983   7.484   3.825   9.287
27581WAT      O82984   0.496   6.413   4.409
27581WAT     H182985   0.456   6.410   4.317
27581WAT     H282986   0.572   6.478   4.411
27582WAT      O82987   7.663   4.784   8.046
27582WAT     H182988   7.612   4.698   8.048
27582WAT     H282989   7.708   4.799   8.134
27583WAT      O82990   2.562   5.930   2.794
27583WAT     H182991   2.611   5.843   2.790
27583WAT     H282992   2.525   5.951   2.703
27584WAT      O82993   7.005   9.307   2.324
27584WAT     H182994   6.960   9.395   2.311
27584WAT     H282995   6.935   9.236   2.338
27585WAT      O82996   1.315   8.439   8.912
27585WAT     H182997   1.253   8.427   8.990
27585WAT     H282998   1.402   8.475   8.944
27586WAT      O82999   6.364   3.593   5.641
27586WAT     H183000   6.328   3.564   5.552
27586WAT     H283001   6.373   3.693   5.641
27587WAT      O83002   0.210   0.491   9.346
27587WAT     H183003   0.220   0.392   9.348
27587WAT     H283004   0.297   0.534   9.368
27588WAT      O83005   5.501   8.365   8.325
27588WAT     H183006   5.463   8.304   8.395
27588WAT     H283007   5.491   8.460   8.354
27589WAT      O83008   3.537   3.047   5.368
27589WAT     H183009   3.456   3.070   5.423
27589WAT     H283010   3.536   2.949   5.347
27590WAT      O83011   9.084   3.538   1.383
27590WAT     H183012   9.097   3.630   1.347
27590WAT     H283013   9.014   3.539   1.454
27591WAT      O83014   1.569   4.922   3.506
27591WAT     H183015   1.517   4.846   3.546
27591WAT     H283016   1.652   4.937   3.560
27592WAT      O83017   8.776   8.674   5.007
27592WAT     H183018   8.680   8.701   5.003
27592WAT     H283019   8.794   8.606   4.936
27593WAT      O83020   5.992   7.048   4.008
27593WAT     H183021   5.934   7.130   4.014
27593WAT     H283022   5.968   6.986   4.083
27594WAT      O83023   5.609   1.644   1.547
27594WAT     H183024   5.542   1.696   1.600
27594WAT     H283025   5.700   1.682   1.561
27595WAT      O83026   0.346   7.877   4.544
27595WAT     H183027   0.279   7.935   4.590
27595WAT     H283028   0.347   7.787   4.586
27596WAT      O83029   1.501   9.534   4.951
27596WAT     H183030   1.445   9.607   4.912
27596WAT     H283031   1.557   9.571   5.026
27597WAT      O83032   0.041   3.484   6.072
27597WAT     H183033   0.054   3.386   6.087
27597WAT     H283034   0.130   3.529   6.069
27598WAT      O83035   7.848   3.079   3.623
27598WAT     H183036   7.779   3.143   3.656
27598WAT     H283037   7.900   3.121   3.548
27599WAT      O83038   9.884   4.896   1.765
27599WAT     H183039   9.853   4.848   1.847
27599WAT     H283040   9.982   4.911   1.771
27600WAT      O83041   3.178   5.242   3.874
27600WAT     H183042   3.178   5.341   3.890
27600WAT     H283043   3.141   5.223   3.783
27601WAT      O83044   9.004   3.813   8.134
27601WAT     H183045   8.912   3.777   8.124
27601WAT     H283046   9.051   3.810   8.046
27602WAT      O83047   4.129   0.047   2.243
27602WAT     H183048   4.184   0.003   2.314
27602WAT     H283049   4.040   0.001   2.237
27603WAT      O83050   8.294   2.905   9.496
27603WAT     H183051   8.342   2.817   9.496
27603WAT     H283052   8.360   2.979   9.508
27604WAT      O83053   9.578   0.006   8.716
27604WAT     H183054   9.478   0.004   8.708
27604WAT     H283055   9.609   0.101   8.725
27605WAT      O83056   5.531   7.073   1.924
27605WAT     H183057   5.556   7.138   1.852
27605WAT     H283058   5.552   7.113   2.013
27606WAT      O83059   3.416   7.026   7.043
27606WAT     H183060   3.466   7.105   7.079
27606WAT     H283061   3.416   6.952   7.110
27607WAT      O83062   9.388   6.711   6.083
27607WAT     H183063   9.369   6.804   6.114
27607WAT     H283064   9.478   6.707   6.040
27608WAT      O83065   5.595   0.511   0.337
27608WAT     H183066   5.528   0.539   0.405
27608WAT     H283067   5.678   0.566   0.347
27609WAT      O83068   7.833   6.278   4.739
27609WAT     H183069   7.772   6.279   4.818
27609WAT     H283070   7.884   6.363   4.735
27610WAT      O83071   4.071   0.343   0.499
27610WAT     H183072   3.973   0.362   0.498
27610WAT     H283073   4.088   0.257   0.547
27611WAT      O83074   6.504   2.252   3.379
27611WAT     H183075   6.518   2.207   3.291
27611WAT     H283076   6.499   2.182   3.451
27612WAT      O83077   9.805   8.425   4.053
27612WAT     H183078   9.770   8.512   4.020
27612WAT     H283079   9.905   8.423   4.043
27613WAT      O83080   4.352   5.025   7.724
27613WAT     H183081   4.347   5.017   7.823
27613WAT     H283082   4.273   4.979   7.683
27614WAT      O83083   8.841   7.260   6.064
27614WAT     H183084   8.746   7.228   6.056
27614WAT     H283085   8.890   7.202   6.129
27615WAT      O83086   6.826   1.641   6.718
27615WAT     H183087   6.863   1.551   6.698
27615WAT     H283088   6.739   1.653   6.669
27616WAT      O83089   5.764   0.178   2.404
27616WAT     H183090   5.846   0.121   2.410
27616WAT     H283091   5.706   0.143   2.330
27617WAT      O83092   3.145   6.282   2.591
27617WAT     H183093   3.085   6.226   2.646
27617WAT     H283094   3.131   6.379   2.613
27618WAT      O83095   0.370   9.359   3.395
27618WAT     H183096   0.451   9.415   3.378
27618WAT     H283097   0.373   9.323   3.488
27619WAT      O83098   1.742   7.911   4.496
27619WAT     H183099   1.688   7.996   4.491
27619WAT     H283100   1.722   7.854   4.416
27620WAT      O83101   4.795   5.667   6.018
27620WAT     H183102   4.809   5.574   5.983
27620WAT     H283103   4.774   5.728   5.942
27621WAT      O83104   7.191   0.433   0.361
27621WAT     H183105   7.231   0.494   0.429
27621WAT     H283106   7.224   0.458   0.270
27622WAT      O83107   1.558   5.881   6.528
27622WAT     H183108   1.572   5.817   6.453
27622WAT     H283109   1.474   5.933   6.513
27623WAT      O83110   0.444   7.536   9.680
27623WAT     H183111   0.460   7.613   9.618
27623WAT     H283112   0.400   7.462   9.630
27624WAT      O83113   7.101   1.429   1.152
27624WAT     H183114   7.168   1.492   1.191
27624WAT     H283115   7.079   1.358   1.219
27625WAT      O83116   5.275   0.686   6.320
27625WAT     H183117   5.298   0.681   6.223
27625WAT     H283118   5.356   0.665   6.374
27626WAT      O83119   2.021   7.811   6.934
27626WAT     H183120   2.057   7.729   6.891
27626WAT     H283121   1.933   7.790   6.977
27627WAT      O83122   8.506   1.632   9.681
27627WAT     H183123   8.439   1.561   9.704
27627WAT     H283124   8.573   1.639   9.755
27628WAT      O83125   4.475   2.837   1.897
27628WAT     H183126   4.498   2.862   1.803
27628WAT     H283127   4.425   2.912   1.941
27629WAT      O83128   2.499   5.803   7.528
27629WAT     H183129   2.464   5.841   7.442
27629WAT     H283130   2.473   5.706   7.534
27630WAT      O83131   9.695   0.006   2.744
27630WAT     H183132   9.686  -0.067   2.676
27630WAT     H283133   9.611   0.013   2.797
27631WAT      O83134   3.396   6.832   9.072
27631WAT     H183135   3.333   6.807   8.997
27631WAT     H283136   3.479   6.872   9.033
27632WAT      O83137   8.299   3.192   7.671
27632WAT     H183138   8.292   3.120   7.602
27632WAT     H283139   8.268   3.157   7.759
27633WAT      O83140   8.463   9.186   3.738
27633WAT     H183141   8.406   9.118   3.785
27633WAT     H283142   8.542   9.209   3.795
27634WAT      O83143   4.875   8.664   4.182
27634WAT     H183144   4.841   8.678   4.089
27634WAT     H283145   4.879   8.566   4.201
27635WAT      O83146   6.601   2.007   4.557
27635WAT     H183147   6.576   2.084   4.616
27635WAT     H283148   6.588   2.033   4.462
27636WAT      O83149   0.935   1.309   0.388
27636WAT     H183150   0.837   1.328   0.391
27636WAT     H283151   0.951   1.227   0.334
27637WAT      O83152   3.464   8.808   0.821
27637WAT     H183153   3.409   8.754   0.885
27637WAT     H283154   3.554   8.765   0.810
27638WAT      O83155   6.184   2.491   9.212
27638WAT     H183156   6.210   2.398   9.239
27638WAT     H283157   6.236   2.557   9.266
27639WAT      O83158   8.566   3.440   1.499
27639WAT     H183159   8.515   3.440   1.585
27639WAT     H283160   8.657   3.401   1.514
27640WAT      O83161   2.914   5.528   0.758
27640WAT     H183162   3.000   5.550   0.805
27640WAT     H283163   2.918   5.561   0.664
27641WAT      O83164   8.853   5.627   2.658
27641WAT     H183165   8.795   5.681   2.598
27641WAT     H283166   8.872   5.538   2.616
27642WAT      O83167   1.796   0.847   9.112
27642WAT     H183168   1.718   0.890   9.157
27642WAT     H283169   1.876   0.907   9.119
27643WAT      O83170   4.808   5.125   3.622
27643WAT     H183171   4.892   5.076   3.647
27643WAT     H283172   4.831   5.200   3.559
27644WAT      O83173   8.371   6.558   6.610
27644WAT     H183174   8.439   6.496   6.650
27644WAT     H283175   8.319   6.601   6.684
27645WAT      O83176   6.153   7.494   4.992
27645WAT     H183177   6.238   7.461   5.032
27645WAT     H283178   6.120   7.573   5.043
27646WAT      O83179   4.634   6.519   0.417
27646WAT     H183180   4.723   6.528   0.372
27646WAT     H283181   4.646   6.532   0.516
27647WAT      O83182   9.775   2.034   1.943
27647WAT     H183183   9.693   2.033   1.886
27647WAT     H283184   9.760   2.093   2.022
27648WAT      O83185   8.623   9.152   4.165
27648WAT     H183186   8.655   9.117   4.254
27648WAT     H283187   8.547   9.095   4.133
27649WAT      O83188   9.745   9.509   4.208
27649WAT     H183189   9.806   9.587   4.221
27649WAT     H283190   9.687   9.525   4.128
27650WAT      O83191   1.870   9.096   2.807
27650WAT     H183192   1.914   9.186   2.802
27650WAT     H283193   1.923   9.036   2.866
27651WAT      O83194   9.008   7.981   0.618
27651WAT     H183195   8.933   7.936   0.569
27651WAT     H283196   8.993   7.974   0.716
27652WAT      O83197   0.860   4.384   1.009
27652WAT     H183198   0.854   4.284   1.001
27652WAT     H283199   0.799   4.415   1.081
27653WAT      O83200   8.564   0.231   0.990
27653WAT     H183201   8.614   0.156   0.946
27653WAT     H283202   8.489   0.260   0.932
27654WAT      O83203   9.133   1.024   9.287
27654WAT     H183204   9.167   0.931   9.299
27654WAT     H283205   9.161   1.080   9.365
27655WAT      O83206   3.541   4.930   2.915
27655WAT     H183207   3.461   4.990   2.920
27655WAT     H283208   3.619   4.975   2.959
27656WAT      O83209   4.965   3.286   6.491
27656WAT     H183210   5.061   3.310   6.486
27656WAT     H283211   4.940   3.269   6.587
27657WAT      O83212   7.610   7.716   2.565
27657WAT     H183213   7.629   7.628   2.608
27657WAT     H283214   7.645   7.790   2.623
27658WAT      O83215   1.284   1.758   5.351
27658WAT     H183216   1.379   1.788   5.342
27658WAT     H283217   1.225   1.823   5.303
27659WAT      O83218   4.850   8.148   1.890
27659WAT     H183219   4.898   8.191   1.813
27659WAT     H283220   4.890   8.059   1.909
27660WAT      O83221   5.749   1.284   4.726
27660WAT     H183222   5.823   1.340   4.763
27660WAT     H283223   5.710   1.229   4.799
27661WAT      O83224   2.954   2.019   0.602
27661WAT     H183225   3.006   1.934   0.589
27661WAT     H283226   2.858   2.003   0.575
27662WAT      O83227   8.142   1.278   2.983
27662WAT     H183228   8.223   1.317   2.939
27662WAT     H283229   8.069   1.269   2.915
27663WAT      O83230   3.932   1.919   8.944
27663WAT     H183231   3.942   2.005   8.994
27663WAT     H283232   3.867   1.930   8.870
27664WAT      O83233   8.634   7.827   4.553
27664WAT     H183234   8.635   7.893   4.628
27664WAT     H283235   8.722   7.779   4.550
27665WAT      O83236   9.465   8.763   1.546
27665WAT     H183237   9.521   8.705   1.606
27665WAT     H283238   9.414   8.829   1.600
27666WAT      O83239   5.354   0.255   3.070
27666WAT     H183240   5.298   0.190   3.018
27666WAT     H283241   5.380   0.331   3.011
27667WAT      O83242   5.262   1.477   5.671
27667WAT     H183243   5.280   1.394   5.724
27667WAT     H283244   5.233   1.451   5.578
27668WAT      O83245   9.307   7.596   9.643
27668WAT     H183246   9.341   7.652   9.719
27668WAT     H283247   9.379   7.535   9.612
27669WAT      O83248   2.518   7.544   5.038
27669WAT     H183249   2.543   7.502   5.125
27669WAT     H283250   2.523   7.644   5.046
27670WAT      O83251   3.820   0.433   0.505
27670WAT     H183252   3.769   0.504   0.456
27670WAT     H283253   3.812   0.449   0.604
27671WAT      O83254   2.470   4.181   8.962
27671WAT     H183255   2.415   4.101   8.936
27671WAT     H283256   2.465   4.195   9.061
27672WAT      O83257   7.893   5.922   3.501
27672WAT     H183258   7.808   5.869   3.493
27672WAT     H283259   7.948   5.884   3.576
27673WAT      O83260   1.005   3.323   7.248
27673WAT     H183261   0.982   3.419   7.231
27673WAT     H283262   0.977   3.268   7.169
27674WAT      O83263   0.409   1.330   7.868
27674WAT     H183264   0.348   1.402   7.901
27674WAT     H283265   0.368   1.284   7.789
27675WAT      O83266   9.525   3.024   8.867
27675WAT     H183267   9.459   3.029   8.942
27675WAT     H283268   9.610   2.983   8.899
27676WAT      O83269   7.741   9.717   0.352
27676WAT     H183270   7.731   9.782   0.427
27676WAT     H283271   7.662   9.655   0.350
27677WAT      O83272   0.751   4.565   5.985
27677WAT     H183273   0.676   4.583   6.050
27677WAT     H283274   0.837   4.557   6.035
27678WAT      O83275   9.314   8.952   2.469
27678WAT     H183276   9.223   8.977   2.501
27678WAT     H283277   9.318   8.853   2.452
27679WAT      O83278   3.463   2.906   5.768
27679WAT     H183279   3.556   2.915   5.805
27679WAT     H283280   3.424   2.819   5.799
27680WAT      O83281   9.579   7.729   7.888
27680WAT     H183282   9.593   7.809   7.946
27680WAT     H283283   9.598   7.646   7.941
27681WAT      O83284   8.543   1.717   5.097
27681WAT     H183285   8.504   1.768   5.174
27681WAT     H283286   8.529   1.619   5.112
27682WAT      O83287   3.679   3.531   9.470
27682WAT     H183288   3.678   3.581   9.384
27682WAT     H283289   3.622   3.579   9.537
27683WAT      O83290   6.962   4.330   7.566
27683WAT     H183291   7.034   4.262   7.551
27683WAT     H283292   6.972   4.404   7.500
27684WAT      O83293   3.867   1.218   6.866
27684WAT     H183294   3.852   1.293   6.801
27684WAT     H283295   3.826   1.242   6.954
27685WAT      O83296   9.460   4.888   0.952
27685WAT     H183297   9.366   4.916   0.974
27685WAT     H283298   9.503   4.849   1.034
27686WAT      O83299   7.264   9.680   5.720
27686WAT     H183300   7.269   9.692   5.621
27686WAT     H283301   7.206   9.601   5.741
27687WAT      O83302   5.194   1.406   2.509
27687WAT     H183303   5.229   1.432   2.599
27687WAT     H283304   5.197   1.485   2.449
27688WAT      O83305   7.454   9.822   6.343
27688WAT     H183306   7.444   9.787   6.436
27688WAT     H283307   7.492   9.915   6.346
27689WAT      O83308   4.790   2.022   1.562
27689WAT     H183309   4.749   2.088   1.499
27689WAT     H283310   4.870   2.063   1.605
27690WAT      O83311   6.862   8.486   0.295
27690WAT     H183312   6.913   8.412   0.339
27690WAT     H283313   6.764   8.465   0.298
27691WAT      O83314   6.486   9.684   6.360
27691WAT     H183315   6.574   9.708   6.401
27691WAT     H283316   6.423   9.654   6.431
27692WAT      O83317   7.029   4.884   4.160
27692WAT     H183318   6.930   4.875   4.153
27692WAT     H283319   7.052   4.945   4.236
27693WAT      O83320   8.241   7.996   6.312
27693WAT     H183321   8.258   8.092   6.290
27693WAT     H283322   8.203   7.950   6.231
27694WAT      O83323   0.955   5.174   8.319
27694WAT     H183324   0.927   5.267   8.345
27694WAT     H283325   1.030   5.144   8.377
27695WAT      O83326   0.921   9.185   2.257
27695WAT     H183327   0.971   9.168   2.172
27695WAT     H283328   0.946   9.275   2.292
27696WAT      O83329   6.993   4.729   6.874
27696WAT     H183330   7.079   4.728   6.825
27696WAT     H283331   6.917   4.740   6.810
27697WAT      O83332   3.424   5.232   1.309
27697WAT     H183333   3.515   5.210   1.274
27697WAT     H283334   3.392   5.157   1.368
27698WAT      O83335   1.199   5.898   2.656
27698WAT     H183336   1.237   5.977   2.706
27698WAT     H283337   1.123   5.928   2.599
27699WAT      O83338   4.818   2.516   4.693
27699WAT     H183339   4.765   2.450   4.746
27699WAT     H283340   4.775   2.606   4.699
27700WAT      O83341   9.103   5.266   4.218
27700WAT     H183342   9.043   5.330   4.266
27700WAT     H283343   9.082   5.173   4.249
27701WAT      O83344   4.849   7.906   5.498
27701WAT     H183345   4.752   7.930   5.499
27701WAT     H283346   4.876   7.885   5.404
27702WAT      O83347   2.984   5.678   5.170
27702WAT     H183348   2.968   5.616   5.093
27702WAT     H283349   2.942   5.767   5.151
27703WAT      O83350   8.093   0.318   0.985
27703WAT     H183351   8.055   0.403   1.021
27703WAT     H283352   8.019   0.258   0.955
27704WAT      O83353   7.443  -0.004   7.200
27704WAT     H183354   7.495   0.081   7.206
27704WAT     H283355   7.378  -0.009   7.276
27705WAT      O83356   3.087   4.738   3.576
27705WAT     H183357   3.011   4.677   3.599
27705WAT     H283358   3.069   4.783   3.489
27706WAT      O83359   9.801   0.030   1.863
27706WAT     H183360   9.758   0.046   1.774
27706WAT     H283361   9.793  -0.066   1.888
27707WAT      O83362   2.234   2.441   8.908
27707WAT     H183363   2.180   2.512   8.864
27707WAT     H283364   2.236   2.360   8.850
27708WAT      O83365   0.933   0.627   0.998
27708WAT     H183366   0.930   0.726   1.012
27708WAT     H283367   0.902   0.605   0.906
27709WAT      O83368   8.150   3.666   3.993
27709WAT     H183369   8.159   3.763   4.017
27709WAT     H283370   8.232   3.638   3.943
27710WAT      O83371   1.124   2.292   7.192
27710WAT     H183372   1.069   2.336   7.263
27710WAT     H283373   1.113   2.193   7.198
27711WAT      O83374   5.795   6.948   1.943
27711WAT     H183375   5.764   6.884   2.014
27711WAT     H283376   5.716   7.000   1.909
27712WAT      O83377   6.721   2.964   8.772
27712WAT     H183378   6.769   2.996   8.854
27712WAT     H283379   6.772   2.887   8.732
27713WAT      O83380   5.532   4.541   1.600
27713WAT     H183381   5.599   4.473   1.571
27713WAT     H283382   5.550   4.628   1.554
27714WAT      O83383   6.502   7.914   2.843
27714WAT     H183384   6.555   7.889   2.763
27714WAT     H283385   6.469   8.008   2.835
27715WAT      O83386   3.751   2.026   8.390
27715WAT     H183387   3.738   1.936   8.348
27715WAT     H283388   3.662   2.071   8.399
27716WAT      O83389   7.005   7.780   8.034
27716WAT     H183390   7.082   7.734   8.079
27716WAT     H283391   6.949   7.712   7.987
27717WAT      O83392   6.171   7.198   2.018
27717WAT     H183393   6.102   7.214   2.088
27717WAT     H283394   6.193   7.284   1.972
27718WAT      O83395   8.820   7.332   0.595
27718WAT     H183396   8.818   7.407   0.661
27718WAT     H283397   8.727   7.299   0.578
27719WAT      O83398   0.604   8.824   2.656
27719WAT     H183399   0.541   8.747   2.657
27719WAT     H283400   0.613   8.858   2.562
27720WAT      O83401   2.377   9.619   9.022
27720WAT     H183402   2.320   9.678   8.965
27720WAT     H283403   2.425   9.552   8.964
27721WAT      O83404   0.718   9.088   6.340
27721WAT     H183405   0.624   9.098   6.373
27721WAT     H283406   0.765   9.176   6.344
27722WAT      O83407   7.561   7.098   8.170
27722WAT     H183408   7.515   7.009   8.172
27722WAT     H283409   7.572   7.127   8.075
27723WAT      O83410   2.707   2.838   5.701
27723WAT     H183411   2.739   2.924   5.741
27723WAT     H283412   2.786   2.779   5.683
27724WAT      O83413   2.313   2.761   2.557
27724WAT     H183414   2.227   2.711   2.545
27724WAT     H283415   2.389   2.696   2.562
27725WAT      O83416   2.022   3.835   6.663
27725WAT     H183417   2.115   3.796   6.662
27725WAT     H283418   1.962   3.775   6.716
27726WAT      O83419   3.327   3.270   5.860
27726WAT     H183420   3.309   3.331   5.937
27726WAT     H283421   3.241   3.236   5.823
27727WAT      O83422   8.823   9.090   2.094
27727WAT     H183423   8.896   9.107   2.028
27727WAT     H283424   8.793   9.177   2.134
27728WAT      O83425   7.187   2.620   6.310
27728WAT     H183426   7.092   2.604   6.338
27728WAT     H283427   7.220   2.705   6.351
27729WAT      O83428   4.779   7.358   5.555
27729WAT     H183429   4.784   7.452   5.520
27729WAT     H283430   4.788   7.360   5.655
27730WAT      O83431   5.675   4.410   3.611
27730WAT     H183432   5.741   4.467   3.660
27730WAT     H283433   5.716   4.320   3.594
27731WAT      O83434   3.092   7.653   7.715
27731WAT     H183435   3.192   7.650   7.718
27731WAT     H283436   3.063   7.717   7.645
27732WAT      O83437   4.617   3.866   9.346
27732WAT     H183438   4.540   3.859   9.410
27732WAT     H283439   4.587   3.911   9.262
27733WAT      O83440   0.492   5.789   0.829
27733WAT     H183441   0.528   5.707   0.785
27733WAT     H283442   0.422   5.830   0.770
27734WAT      O83443   5.091   3.442   9.806
27734WAT     H183444   5.076   3.528   9.757
27734WAT     H283445   5.003   3.396   9.820
27735WAT      O83446   7.182   7.844   2.068
27735WAT     H183447   7.156   7.932   2.026
27735WAT     H283448   7.175   7.852   2.167
27736WAT      O83449   4.985   9.085   3.388
27736WAT     H183450   5.015   9.147   3.315
27736WAT     H283451   4.915   9.129   3.443
27737WAT      O83452   3.941   0.249   8.073
27737WAT     H183453   3.865   0.268   8.136
27737WAT     H283454   3.904   0.216   7.986
27738WAT      O83455   5.927   8.818   1.145
27738WAT     H183456   5.886   8.886   1.205
27738WAT     H283457   6.026   8.822   1.153
27739WAT      O83458   0.203   6.844   1.933
27739WAT     H183459   0.203   6.941   1.956
27739WAT     H283460   0.113   6.805   1.952
27740WAT      O83461   0.543   2.252   6.975
27740WAT     H183462   0.560   2.231   6.879
27740WAT     H283463   0.630   2.259   7.024
27741WAT      O83464   3.988   6.913   1.747
27741WAT     H183465   4.006   6.860   1.830
27741WAT     H283466   3.929   6.860   1.686
27742WAT      O83467   6.038   5.691   0.517
27742WAT     H183468   6.029   5.680   0.616
27742WAT     H283469   5.971   5.759   0.486
27743WAT      O83470   1.356   8.395   5.454
27743WAT     H183471   1.335   8.317   5.513
27743WAT     H283472   1.277   8.457   5.451
27744WAT      O83473   2.544   0.487   9.531
27744WAT     H183474   2.459   0.537   9.513
27744WAT     H283475   2.572   0.438   9.449
27745WAT      O83476   0.541   6.814   2.903
27745WAT     H183477   0.623   6.848   2.857
27745WAT     H283478   0.568   6.761   2.984
27746WAT      O83479   8.988   1.308   9.611
27746WAT     H183480   8.931   1.369   9.556
27746WAT     H283481   8.931   1.235   9.651
27747WAT      O83482   2.328   0.986   6.304
27747WAT     H183483   2.231   0.977   6.325
27747WAT     H283484   2.339   1.046   6.225
27748WAT      O83485   1.811   4.227   9.212
27748WAT     H183486   1.796   4.250   9.115
27748WAT     H283487   1.722   4.218   9.258
27749WAT      O83488   4.625   2.209   7.884
27749WAT     H183489   4.627   2.211   7.984
27749WAT     H283490   4.669   2.125   7.852
27750WAT      O83491   7.803   3.799   9.139
27750WAT     H183492   7.716   3.756   9.162
27750WAT     H283493   7.791   3.898   9.136
27751WAT      O83494   2.693   5.611   8.628
27751WAT     H183495   2.658   5.528   8.670
27751WAT     H283496   2.700   5.597   8.529
27752WAT      O83497   5.594   3.769   7.400
27752WAT     H183498   5.499   3.799   7.404
27752WAT     H283499   5.609   3.717   7.316
27753WAT      O83500   6.125   1.707   2.602
27753WAT     H183501   6.027   1.724   2.606
27753WAT     H283502   6.173   1.792   2.581
27754WAT      O83503   1.772   8.181   9.876
27754WAT     H183504   1.757   8.258   9.939
27754WAT     H283505   1.868   8.156   9.876
27755WAT      O83506   4.330   1.940   1.282
27755WAT     H183507   4.409   1.879   1.280
27755WAT     H283508   4.341   2.010   1.212
27756WAT      O83509   5.998   5.069   7.802
27756WAT     H183510   5.965   5.064   7.896
27756WAT     H283511   6.096   5.085   7.801
27757WAT      O83512   0.819   9.636   7.626
27757WAT     H183513   0.876   9.582   7.564
27757WAT     H283514   0.723   9.609   7.615
27758WAT      O83515   3.518   4.342   9.531
27758WAT     H183516   3.591   4.399   9.494
27758WAT     H283517   3.509   4.259   9.476
27759WAT      O83518   0.467   3.775   6.125
27759WAT     H183519   0.500   3.847   6.063
27759WAT     H283520   0.539   3.754   6.192
27760WAT      O83521   6.758   7.328   2.720
27760WAT     H183522   6.703   7.320   2.803
27760WAT     H283523   6.807   7.243   2.703
27761WAT      O83524   8.511   2.612   8.477
27761WAT     H183525   8.538   2.519   8.501
27761WAT     H283526   8.552   2.676   8.542
27762WAT      O83527   5.548   7.493   5.067
27762WAT     H183528   5.637   7.528   5.099
27762WAT     H283529   5.493   7.465   5.146
27763WAT      O83530   2.162   4.511   0.858
27763WAT     H183531   2.074   4.537   0.897
27763WAT     H283532   2.149   4.431   0.799
27764WAT      O83533   3.547   8.134   9.066
27764WAT     H183534   3.515   8.168   9.154
27764WAT     H283535   3.490   8.057   9.037
27765WAT      O83536   7.518   3.997   0.406
27765WAT     H183537   7.587   4.064   0.379
27765WAT     H283538   7.426   4.033   0.387
27766WAT      O83539   3.242   9.257   2.363
27766WAT     H183540   3.218   9.177   2.419
27766WAT     H283541   3.342   9.263   2.356
27767WAT      O83542   3.365   9.282   9.731
27767WAT     H183543   3.290   9.229   9.769
27767WAT     H283544   3.413   9.227   9.661
27768WAT      O83545   3.580   0.345   6.007
27768WAT     H183546   3.540   0.431   5.978
27768WAT     H283547   3.637   0.308   5.934
27769WAT      O83548   8.911   6.150   6.262
27769WAT     H183549   9.008   6.173   6.249
27769WAT     H283550   8.872   6.117   6.176
27770WAT      O83551   9.315   0.612   9.130
27770WAT     H183552   9.329   0.526   9.179
27770WAT     H283553   9.355   0.607   9.039
27771WAT      O83554   4.602   3.397   1.910
27771WAT     H183555   4.592   3.300   1.888
27771WAT     H283556   4.551   3.418   1.993
27772WAT      O83557   3.815   9.256   4.183
27772WAT     H183558   3.893   9.304   4.223
27772WAT     H283559   3.754   9.226   4.257
27773WAT      O83560   0.542   2.617   5.570
27773WAT     H183561   0.450   2.606   5.532
27773WAT     H283562   0.555   2.712   5.599
27774WAT      O83563   3.940   1.444   8.231
27774WAT     H183564   4.023   1.397   8.262
27774WAT     H283565   3.923   1.524   8.288
27775WAT      O83566   1.892   4.258   0.945
27775WAT     H183567   1.949   4.243   1.026
27775WAT     H283568   1.847   4.347   0.953
27776WAT      O83569   9.773   7.434   7.282
27776WAT     H183570   9.798   7.343   7.317
27776WAT     H283571   9.702   7.473   7.339
27777WAT      O83572   3.212   0.164   2.309
27777WAT     H183573   3.257   0.081   2.340
27777WAT     H283574   3.113   0.149   2.307
27778WAT      O83575   3.906   1.222   1.635
27778WAT     H183576   3.894   1.309   1.588
27778WAT     H283577   3.854   1.223   1.721
27779WAT      O83578   7.631   8.416   3.254
27779WAT     H183579   7.625   8.349   3.328
27779WAT     H283580   7.546   8.469   3.251
27780WAT      O83581   6.594   4.285   9.526
27780WAT     H183582   6.678   4.266   9.577
27780WAT     H283583   6.615   4.342   9.446
27781WAT      O83584   0.398   8.424   8.961
27781WAT     H183585   0.365   8.514   8.933
27781WAT     H283586   0.485   8.405   8.916
27782WAT      O83587   4.427   5.639   0.244
27782WAT     H183588   4.495   5.662   0.174
27782WAT     H283589   4.361   5.714   0.252
27783WAT      O83590   4.820   7.808   8.403
27783WAT     H183591   4.871   7.752   8.338
27783WAT     H283592   4.777   7.749   8.472
27784WAT      O83593   4.775   0.723   4.983
27784WAT     H183594   4.815   0.754   4.896
27784WAT     H283595   4.832   0.650   5.021
27785WAT      O83596   4.725   3.764   7.565
27785WAT     H183597   4.696   3.669   7.551
27785WAT     H283598   4.819   3.775   7.534
27786WAT      O83599   9.529   9.794   2.379
27786WAT     H183600   9.558   9.830   2.290
27786WAT     H283601   9.493   9.869   2.434
27787WAT      O83602   5.131   7.735   7.598
27787WAT     H183603   5.154   7.665   7.531
27787WAT     H283604   5.042   7.715   7.638
27788WAT      O83605   3.717   2.974   1.564
27788WAT     H183606   3.625   2.949   1.594
27788WAT     H283607   3.773   2.892   1.555
27789WAT      O83608   9.251   3.407   6.307
27789WAT     H183609   9.153   3.426   6.315
27789WAT     H283610   9.267   3.339   6.236
27790WAT      O83611   8.021   2.957   3.087
27790WAT     H183612   7.944   2.987   3.143
27790WAT     H283613   8.042   2.861   3.108
27791WAT      O83614   3.605   6.893   9.535
27791WAT     H183615   3.700   6.883   9.507
27791WAT     H283616   3.557   6.954   9.472
27792WAT      O83617   0.034   5.802   2.787
27792WAT     H183618  -0.036   5.874   2.790
27792WAT     H283619   0.098   5.821   2.712
27793WAT      O83620   7.523   8.823   4.734
27793WAT     H183621   7.541   8.726   4.718
27793WAT     H283622   7.518   8.871   4.646
27794WAT      O83623   3.594   5.613   4.332
27794WAT     H183624   3.591   5.513   4.335
27794WAT     H283625   3.623   5.643   4.241
27795WAT      O83626   1.972   8.002   8.305
27795WAT     H183627   2.034   8.020   8.381
27795WAT     H283628   1.878   8.025   8.332
27796WAT      O83629   2.252   8.048   7.874
27796WAT     H183630   2.315   8.121   7.849
27796WAT     H283631   2.180   8.084   7.933
27797WAT      O83632   5.454   9.216   1.245
27797WAT     H183633   5.550   9.229   1.222
27797WAT     H283634   5.437   9.120   1.266
27798WAT      O83635   8.392   6.104   0.567
27798WAT     H183636   8.318   6.170   0.582
27798WAT     H283637   8.390   6.034   0.638
27799WAT      O83638   9.721   1.687   0.289
27799WAT     H183639   9.694   1.769   0.238
27799WAT     H283640   9.659   1.674   0.367
27800WAT      O83641   2.869   3.405   2.087
27800WAT     H183642   2.836   3.490   2.127
27800WAT     H283643   2.858   3.331   2.153
27801WAT      O83644   9.037   0.794   2.210
27801WAT     H183645   9.004   0.715   2.159
27801WAT     H283646   9.127   0.774   2.249
27802WAT      O83647   8.874   1.796   7.280
27802WAT     H183648   8.913   1.727   7.341
27802WAT     H283649   8.947   1.842   7.230
27803WAT      O83650   8.908   2.978   7.652
27803WAT     H183651   8.953   3.043   7.713
27803WAT     H283652   8.944   2.886   7.669
27804WAT      O83653   8.913   9.100   1.637
27804WAT     H183654   8.955   9.118   1.547
27804WAT     H283655   8.872   9.009   1.637
27805WAT      O83656   2.177   7.921   5.466
27805WAT     H183657   2.087   7.880   5.478
27805WAT     H283658   2.219   7.886   5.382
27806WAT      O83659   5.774   5.291   9.224
27806WAT     H183660   5.817   5.313   9.137
27806WAT     H283661   5.834   5.320   9.299
27807WAT      O83662   5.563   1.711   0.223
27807WAT     H183663   5.527   1.802   0.202
27807WAT     H283664   5.541   1.687   0.317
27808WAT      O83665   3.140   2.106   1.131
27808WAT     H183666   3.065   2.163   1.164
27808WAT     H283667   3.119   2.073   1.039
27809WAT      O83668   8.072   8.322   4.335
27809WAT     H183669   8.159   8.276   4.351
27809WAT     H283670   8.035   8.356   4.422
27810WAT      O83671   7.414   6.976   2.328
27810WAT     H183672   7.361   6.893   2.313
27810WAT     H283673   7.359   7.056   2.304
27811WAT      O83674   2.216   1.412   6.597
27811WAT     H183675   2.290   1.478   6.610
27811WAT     H283676   2.210   1.388   6.500
27812WAT      O83677   2.263   1.719   1.045
27812WAT     H183678   2.182   1.767   1.079
27812WAT     H283679   2.271   1.631   1.093
27813WAT      O83680   3.048   2.122   9.333
27813WAT     H183681   3.092   2.187   9.396
27813WAT     H283682   3.027   2.037   9.382
27814WAT      O83683   3.710   8.739   0.815
27814WAT     H183684   3.764   8.701   0.740
27814WAT     H283685   3.748   8.710   0.903
27815WAT      O83686   4.785   4.499   3.612
27815WAT     H183687   4.686   4.500   3.628
27815WAT     H283688   4.831   4.466   3.695
27816WAT      O83689   3.402   5.318   8.974
27816WAT     H183690   3.308   5.316   9.008
27816WAT     H283691   3.424   5.411   8.944
27817WAT      O83692   4.555   7.461   4.545
27817WAT     H183693   4.494   7.390   4.511
27817WAT     H283694   4.611   7.497   4.469
27818WAT      O83695   0.736   9.142   9.492
27818WAT     H183696   0.693   9.126   9.403
27818WAT     H283697   0.735   9.057   9.545
27819WAT      O83698   5.890   4.791   1.284
27819WAT     H183699   5.967   4.844   1.321
27819WAT     H283700   5.811   4.851   1.273
27820WAT      O83701   5.317   4.489   7.201
27820WAT     H183702   5.331   4.514   7.105
27820WAT     H283703   5.279   4.567   7.251
27821WAT      O83704   2.444   0.476   3.493
27821WAT     H183705   2.533   0.434   3.513
27821WAT     H283706   2.432   0.557   3.551
27822WAT      O83707   5.402   3.602   1.235
27822WAT     H183708   5.408   3.532   1.163
27822WAT     H283709   5.372   3.688   1.195
27823WAT      O83710   4.859   6.571   2.053
27823WAT     H183711   4.943   6.568   2.109
27823WAT     H283712   4.785   6.611   2.107
27824WAT      O83713   9.566   2.261   7.982
27824WAT     H183714   9.632   2.252   7.908
27824WAT     H283715   9.477   2.288   7.944
27825WAT      O83716   8.871   3.449   4.061
27825WAT     H183717   8.966   3.451   4.029
27825WAT     H283718   8.847   3.356   4.087
27826WAT      O83719   3.364   8.742   8.778
27826WAT     H183720   3.290   8.809   8.785
27826WAT     H283721   3.386   8.706   8.868
27827WAT      O83722   9.646   4.752   7.145
27827WAT     H183723   9.567   4.813   7.138
27827WAT     H283724   9.639   4.680   7.076
27828WAT      O83725   9.408   0.179   8.522
27828WAT     H183726   9.464   0.153   8.443
27828WAT     H283727   9.385   0.097   8.574
27829WAT      O83728   4.407   2.563   8.891
27829WAT     H183729   4.376   2.476   8.930
27829WAT     H283730   4.344   2.636   8.919
27830WAT      O83731   5.369   7.009   5.841
27830WAT     H183732   5.446   7.028   5.780
27830WAT     H283733   5.373   6.914   5.871
27831WAT      O83734   4.767   6.246   1.211
27831WAT     H183735   4.727   6.337   1.195
27831WAT     H283736   4.751   6.218   1.305
27832WAT      O83737   5.368   2.777   2.953
27832WAT     H183738   5.275   2.740   2.957
27832WAT     H283739   5.427   2.713   2.904
27833WAT      O83740   2.523   3.532   5.509
27833WAT     H183741   2.613   3.488   5.510
27833WAT     H283742   2.453   3.464   5.531
27834WAT      O83743   5.554   4.645   9.120
27834WAT     H183744   5.605   4.663   9.037
27834WAT     H283745   5.545   4.729   9.174
27835WAT      O83746   1.142   6.398   6.885
27835WAT     H183747   1.131   6.424   6.981
27835WAT     H283748   1.234   6.422   6.854
27836WAT      O83749   0.508   7.620   8.665
27836WAT     H183750   0.480   7.589   8.756
27836WAT     H283751   0.525   7.540   8.607
27837WAT      O83752   2.136   9.324   9.308
27837WAT     H183753   2.052   9.379   9.305
27837WAT     H283754   2.112   9.227   9.310
27838WAT      O83755   7.773   5.390   3.938
27838WAT     H183756   7.719   5.342   4.008
27838WAT     H283757   7.820   5.323   3.881
27839WAT      O83758   1.820   9.241   0.532
27839WAT     H183759   1.853   9.309   0.466
27839WAT     H283760   1.779   9.288   0.610
27840WAT      O83761   7.092   0.201   5.933
27840WAT     H183762   7.122   0.296   5.944
27840WAT     H283763   7.113   0.171   5.840
27841WAT      O83764   1.915   4.072   8.970
27841WAT     H183765   2.011   4.076   8.998
27841WAT     H283766   1.900   3.993   8.911
27842WAT      O83767   4.534   2.366   9.826
27842WAT     H183768   4.613   2.352   9.766
27842WAT     H283769   4.462   2.414   9.776
27843WAT      O83770   7.424   9.836   3.069
27843WAT     H183771   7.406   9.739   3.084
27843WAT     H283772   7.340   9.881   3.039
27844WAT      O83773   0.476   1.879   8.716
27844WAT     H183774   0.497   1.785   8.744
27844WAT     H283775   0.491   1.940   8.793
27845WAT      O83776   2.657   3.850   7.395
27845WAT     H183777   2.668   3.943   7.358
27845WAT     H283778   2.645   3.786   7.320
27846WAT      O83779   9.854   6.619   2.938
27846WAT     H183780   9.825   6.698   2.884
27846WAT     H283781   9.896   6.651   3.023
27847WAT      O83782   7.219   3.242   8.207
27847WAT     H183783   7.190   3.163   8.153
27847WAT     H283784   7.292   3.215   8.269
27848WAT      O83785   8.968   2.488   3.888
27848WAT     H183786   8.993   2.455   3.797
27848WAT     H283787   8.877   2.456   3.912
27849WAT      O83788   9.643   6.506   6.393
27849WAT     H183789   9.739   6.481   6.401
27849WAT     H283790   9.636   6.604   6.373
27850WAT      O83791   0.413   4.277   5.948
27850WAT     H183792   0.489   4.253   6.008
27850WAT     H283793   0.356   4.347   5.991
27851WAT      O83794   1.190   1.860   3.708
27851WAT     H183795   1.115   1.839   3.771
27851WAT     H283796   1.161   1.839   3.614
27852WAT      O83797   8.215   3.173   6.744
27852WAT     H183798   8.143   3.242   6.753
27852WAT     H283799   8.206   3.127   6.656
27853WAT      O83800   9.445   5.157   1.749
27853WAT     H183801   9.359   5.117   1.718
27853WAT     H283802   9.495   5.091   1.805
27854WAT      O83803   4.070   3.203   5.359
27854WAT     H183804   4.104   3.176   5.449
27854WAT     H283805   3.992   3.147   5.333
27855WAT      O83806   3.290   4.586   8.218
27855WAT     H183807   3.275   4.669   8.166
27855WAT     H283808   3.248   4.508   8.171
27856WAT      O83809   7.671   8.467   1.446
27856WAT     H183810   7.652   8.543   1.383
27856WAT     H283811   7.621   8.386   1.417
27857WAT      O83812   8.669   4.417   3.382
27857WAT     H183813   8.601   4.477   3.342
27857WAT     H283814   8.635   4.381   3.469
27858WAT      O83815   2.643   7.334   6.508
27858WAT     H183816   2.690   7.247   6.523
27858WAT     H283817   2.679   7.377   6.424
27859WAT      O83818   1.898   9.711   0.922
27859WAT     H183819   1.833   9.694   0.848
27859WAT     H283820   1.937   9.802   0.912
27860WAT      O83821   5.743   7.048   5.925
27860WAT     H183822   5.728   7.114   5.998
27860WAT     H283823   5.818   7.079   5.866
27861WAT      O83824   2.322   5.615   8.102
27861WAT     H183825   2.255   5.658   8.162
27861WAT     H283826   2.410   5.661   8.112
27862WAT      O83827   7.697   9.717   4.952
27862WAT     H183828   7.659   9.785   4.889
27862WAT     H283829   7.785   9.685   4.917
27863WAT      O83830   7.862   9.777   1.109
27863WAT     H183831   7.851   9.703   1.043
27863WAT     H283832   7.845   9.742   1.201
27864WAT      O83833   7.834   5.046   9.436
27864WAT     H183834   7.794   4.976   9.377
27864WAT     H283835   7.927   5.066   9.407
27865WAT      O83836   8.249   1.798   1.575
27865WAT     H183837   8.232   1.725   1.642
27865WAT     H283838   8.263   1.758   1.485
27866WAT      O83839   7.156   7.874   5.619
27866WAT     H183840   7.155   7.971   5.595
27866WAT     H283841   7.144   7.819   5.536
27867WAT      O83842   3.937   2.281   8.994
27867WAT     H183843   3.972   2.286   8.901
27867WAT     H283844   3.846   2.241   8.994
27868WAT      O83845   5.683   1.802   4.599
27868WAT     H183846   5.710   1.891   4.563
27868WAT     H283847   5.735   1.783   4.683
27869WAT      O83848   6.589   2.983   7.453
27869WAT     H183849   6.582   2.967   7.552
27869WAT     H283850   6.498   2.994   7.414
27870WAT      O83851   8.062   6.987   3.595
27870WAT     H183852   8.141   7.037   3.632
27870WAT     H283853   8.091   6.895   3.568
27871WAT      O83854   8.081   0.951   1.711
27871WAT     H183855   8.061   0.855   1.691
27871WAT     H283856   8.059   1.007   1.631
27872WAT      O83857   1.985   0.151   6.225
27872WAT     H183858   2.004   0.059   6.189
27872WAT     H283859   1.969   0.145   6.324
27873WAT      O83860   5.708   2.165   1.662
27873WAT     H183861   5.738   2.101   1.733
27873WAT     H283862   5.769   2.158   1.583
27874WAT      O83863   4.404   8.023   4.214
27874WAT     H183864   4.424   7.930   4.184
27874WAT     H283865   4.306   8.040   4.208
27875WAT      O83866   5.902   3.724   6.312
27875WAT     H183867   5.867   3.720   6.406
27875WAT     H283868   5.931   3.817   6.291
27876WAT      O83869   7.684   5.994   8.686
27876WAT     H183870   7.693   6.054   8.765
27876WAT     H283871   7.638   5.909   8.712
27877WAT      O83872   0.414   4.997   9.769
27877WAT     H183873   0.395   5.009   9.867
27877WAT     H283874   0.469   4.915   9.756
27878WAT      O83875   9.497   9.440   0.215
27878WAT     H183876   9.457   9.425   0.305
27878WAT     H283877   9.577   9.499   0.223
27879WAT      O83878   7.691   6.922   1.235
27879WAT     H183879   7.668   6.827   1.257
27879WAT     H283880   7.671   6.980   1.313
27880WAT      O83881   4.589   3.487   9.082
27880WAT     H183882   4.498   3.494   9.122
27880WAT     H283883   4.593   3.541   8.999
27881WAT      O83884   5.731   8.148   5.215
27881WAT     H183885   5.799   8.086   5.253
27881WAT     H283886   5.641   8.125   5.251
27882WAT      O83887   5.319   6.358   3.596
27882WAT     H183888   5.305   6.448   3.637
27882WAT     H283889   5.253   6.345   3.522
27883WAT      O83890   6.537   4.322   7.895
27883WAT     H183891   6.583   4.239   7.925
27883WAT     H283892   6.442   4.300   7.870
27884WAT      O83893   6.794   4.762   4.936
27884WAT     H183894   6.784   4.754   5.035
27884WAT     H283895   6.725   4.705   4.891
27885WAT      O83896   7.793   6.265   8.079
27885WAT     H183897   7.858   6.305   8.143
27885WAT     H283898   7.744   6.338   8.031
27886WAT      O83899   8.172   6.943   7.958
27886WAT     H183900   8.089   6.941   7.903
27886WAT     H283901   8.197   6.849   7.985
27887WAT      O83902   0.822   9.632   1.672
27887WAT     H183903   0.843   9.651   1.768
27887WAT     H283904   0.899   9.659   1.615
27888WAT      O83905   6.953   3.111   1.183
27888WAT     H183906   6.861   3.107   1.222
27888WAT     H283907   6.993   3.019   1.183
27889WAT      O83908   6.684   1.409   0.217
27889WAT     H183909   6.751   1.342   0.186
27889WAT     H283910   6.666   1.395   0.314
27890WAT      O83911   6.171   4.142   9.088
27890WAT     H183912   6.103   4.099   9.028
27890WAT     H283913   6.124   4.198   9.156
27891WAT      O83914   8.696   8.744   1.257
27891WAT     H183915   8.642   8.663   1.234
27891WAT     H283916   8.706   8.801   1.176
27892WAT      O83917   9.479   4.818   6.167
27892WAT     H183918   9.554   4.814   6.101
27892WAT     H283919   9.501   4.762   6.246
27893WAT      O83920   8.587   8.385   6.587
27893WAT     H183921   8.675   8.418   6.619
27893WAT     H283922   8.591   8.368   6.488
27894WAT      O83923   2.447   1.954   7.059
27894WAT     H183924   2.443   1.998   6.970
27894WAT     H283925   2.542   1.934   7.083
27895WAT      O83926   2.396   3.716   3.619
27895WAT     H183927   2.323   3.659   3.655
27895WAT     H283928   2.482   3.664   3.621
27896WAT      O83929   7.104   1.397   2.108
27896WAT     H183930   7.172   1.465   2.080
27896WAT     H283931   7.136   1.347   2.188
27897WAT      O83932   7.632   7.105   3.612
27897WAT     H183933   7.682   7.180   3.568
27897WAT     H283934   7.642   7.113   3.712
27898WAT      O83935   0.816   2.634   4.961
27898WAT     H183936   0.868   2.692   5.024
27898WAT     H283937   0.766   2.692   4.897
27899WAT      O83938   4.049   9.390   8.123
27899WAT     H183939   4.146   9.400   8.144
27899WAT     H283940   4.039   9.365   8.027
27900WAT      O83941   7.968   2.461   6.036
27900WAT     H183942   7.927   2.397   5.971
27900WAT     H283943   8.056   2.493   6.000
27901WAT      O83944   0.734   5.993   4.459
27901WAT     H183945   0.680   6.010   4.542
27901WAT     H283946   0.742   6.078   4.407
27902WAT      O83947   4.428   4.678   0.402
27902WAT     H183948   4.458   4.660   0.496
27902WAT     H283949   4.498   4.732   0.354
27903WAT      O83950   3.290   2.071   2.002
27903WAT     H183951   3.366   2.102   1.945
27903WAT     H283952   3.204   2.077   1.951
27904WAT      O83953   1.819   1.551   9.106
27904WAT     H183954   1.727   1.585   9.126
27904WAT     H283955   1.813   1.466   9.054
27905WAT      O83956   5.970   0.236   6.172
27905WAT     H183957   5.988   0.330   6.141
27905WAT     H283958   5.906   0.237   6.248
27906WAT      O83959   2.914   4.213   1.728
27906WAT     H183960   2.879   4.270   1.654
27906WAT     H283961   2.908   4.263   1.814
27907WAT      O83962   9.317   8.525   7.527
27907WAT     H183963   9.255   8.592   7.485
27907WAT     H283964   9.374   8.484   7.456
27908WAT      O83965   2.062   1.435   0.497
27908WAT     H183966   1.986   1.476   0.547
27908WAT     H283967   2.027   1.388   0.416
27909WAT      O83968   0.442   8.409   0.787
27909WAT     H183969   0.476   8.340   0.723
27909WAT     H283970   0.385   8.475   0.737
27910WAT      O83971   5.905   0.459   0.744
27910WAT     H183972   5.989   0.461   0.690
27910WAT     H283973   5.900   0.542   0.800
27911WAT      O83974   8.340   7.906   5.047
27911WAT     H183975   8.339   7.821   4.993
27911WAT     H283976   8.419   7.961   5.020
27912WAT      O83977   9.299   7.641   8.031
27912WAT     H183978   9.353   7.611   8.109
27912WAT     H283979   9.303   7.573   7.958
27913WAT      O83980   5.232   7.991   7.878
27913WAT     H183981   5.134   7.972   7.887
27913WAT     H283982   5.278   7.914   7.835
27914WAT      O83983   1.176   8.644   7.808
27914WAT     H183984   1.228   8.620   7.727
27914WAT     H283985   1.096   8.698   7.781
27915WAT      O83986   2.406   1.794   9.280
27915WAT     H183987   2.344   1.801   9.202
27915WAT     H283988   2.465   1.875   9.283
27916WAT      O83989   4.408   9.640   3.898
27916WAT     H183990   4.431   9.732   3.932
27916WAT     H283991   4.469   9.573   3.940
27917WAT      O83992   8.665   2.438   1.415
27917WAT     H183993   8.603   2.474   1.345
27917WAT     H283994   8.621   2.362   1.462
27918WAT      O83995   8.912   1.557   5.356
27918WAT     H183996   8.950   1.497   5.285
27918WAT     H283997   8.970   1.637   5.367
27919WAT      O83998   5.641   7.340   9.048
27919WAT     H183999   5.713   7.364   9.113
27919WAT     H284000   5.570   7.286   9.094
27920WAT      O84001   0.603   5.308   5.498
27920WAT     H184002   0.595   5.346   5.405
27920WAT     H284003   0.695   5.328   5.534
27921WAT      O84004   3.204   5.982   3.543
27921WAT     H184005   3.272   6.054   3.558
27921WAT     H284006   3.251   5.894   3.532
27922WAT      O84007   4.582   5.299   7.610
27922WAT     H184008   4.576   5.202   7.587
27922WAT     H284009   4.675   5.320   7.641
27923WAT      O84010   0.709   1.715   4.624
27923WAT     H184011   0.690   1.783   4.695
27923WAT     H284012   0.736   1.761   4.540
27924WAT      O84013   5.349   2.217   2.720
27924WAT     H184014   5.385   2.284   2.656
27924WAT     H284015   5.422   2.157   2.751
27925WAT      O84016   2.423   1.048   7.000
27925WAT     H184017   2.357   1.029   6.928
27925WAT     H284018   2.482   1.124   6.972
27926WAT      O84019   6.828   0.605   3.578
27926WAT     H184020   6.736   0.640   3.596
27926WAT     H284021   6.863   0.646   3.494
27927WAT      O84022   0.130   5.192   0.762
27927WAT     H184023   0.130   5.092   0.761
27927WAT     H284024   0.224   5.225   0.760
27928WAT      O84025   1.448   0.349   2.704
27928WAT     H184026   1.378   0.378   2.769
27928WAT     H284027   1.455   0.417   2.631
27929WAT      O84028   9.703   9.635   8.319
27929WAT     H184029   9.774   9.606   8.255
27929WAT     H284030   9.741   9.706   8.379
27930WAT      O84031   4.529   8.578   9.794
27930WAT     H184032   4.477   8.538   9.870
27930WAT     H284033   4.588   8.651   9.829
27931WAT      O84034   2.203   8.179   6.122
27931WAT     H184035   2.299   8.190   6.147
27931WAT     H284036   2.148   8.247   6.170
27932WAT      O84037   8.407   4.913   0.061
27932WAT     H184038   8.481   4.846   0.046
27932WAT     H284039   8.447   5.004   0.070
27933WAT      O84040   9.049   2.549   1.637
27933WAT     H184041   8.965   2.537   1.690
27933WAT     H284042   9.072   2.646   1.631
27934WAT      O84043   0.536   9.716   1.574
27934WAT     H184044   0.447   9.693   1.533
27934WAT     H284045   0.598   9.749   1.503
27935WAT      O84046   1.840   8.265   5.967
27935WAT     H184047   1.882   8.298   5.883
27935WAT     H284048   1.893   8.187   6.002
27936WAT      O84049   6.000   0.625   2.000
27936WAT     H184050   5.939   0.686   1.949
27936WAT     H284051   6.061   0.680   2.057
27937WAT      O84052   1.212   0.757   3.254
27937WAT     H184053   1.134   0.759   3.317
27937WAT     H284054   1.192   0.814   3.174
27938WAT      O84055   7.778   2.383   1.213
27938WAT     H184056   7.820   2.321   1.279
27938WAT     H284057   7.819   2.473   1.221
27939WAT      O84058   9.447   2.504   2.219
27939WAT     H184059   9.354   2.541   2.216
27939WAT     H284060   9.457   2.446   2.300
27940WAT      O84061   2.705   5.984   6.199
27940WAT     H184062   2.768   5.924   6.247
27940WAT     H284063   2.619   5.935   6.181
27941WAT      O84064   6.260   3.906   1.183
27941WAT     H184065   6.257   3.904   1.083
27941WAT     H284066   6.168   3.893   1.219
27942WAT      O84067   3.115   4.076   8.610
27942WAT     H184068   3.084   4.090   8.704
27942WAT     H284069   3.084   3.987   8.577
27943WAT      O84070   2.485   3.804   0.716
27943WAT     H184071   2.556   3.873   0.730
27943WAT     H284072   2.426   3.832   0.640
27944WAT      O84073   0.762   1.657   3.720
27944WAT     H184074   0.800   1.575   3.763
27944WAT     H284075   0.672   1.676   3.759
27945WAT      O84076   1.278   9.566   9.559
27945WAT     H184077   1.193   9.576   9.506
27945WAT     H284078   1.271   9.487   9.619
27946WAT      O84079   3.241   3.229   7.094
27946WAT     H184080   3.305   3.236   7.018
27946WAT     H284081   3.154   3.269   7.069
27947WAT      O84082   7.226   4.617   1.378
27947WAT     H184083   7.207   4.715   1.373
27947WAT     H284084   7.169   4.576   1.449
27948WAT      O84085   9.099   5.028   6.060
27948WAT     H184086   9.014   5.015   6.009
27948WAT     H284087   9.098   4.971   6.142
27949WAT      O84088   7.859   6.156   6.295
27949WAT     H184089   7.900   6.159   6.204
27949WAT     H284090   7.932   6.150   6.363
27950WAT      O84091   9.179   9.006   8.777
27950WAT     H184092   9.151   9.043   8.865
27950WAT     H284093   9.113   8.938   8.746
27951WAT      O84094   8.726   7.677   4.271
27951WAT     H184095   8.766   7.659   4.361
27951WAT     H284096   8.628   7.657   4.274
27952WAT      O84097   6.126   2.542   6.487
27952WAT     H184098   6.175   2.458   6.461
27952WAT     H284099   6.166   2.620   6.439
27953WAT      O84100   8.815   0.950   0.425
27953WAT     H184101   8.816   1.041   0.466
27953WAT     H284102   8.778   0.956   0.332
27954WAT      O84103   4.457   6.232   6.203
27954WAT     H184104   4.424   6.300   6.138
27954WAT     H284105   4.514   6.276   6.272
27955WAT      O84106   5.709   0.442   4.143
27955WAT     H184107   5.780   0.418   4.078
27955WAT     H284108   5.686   0.363   4.199
27956WAT      O84109   1.509   4.124   2.995
27956WAT     H184110   1.535   4.219   3.011
27956WAT     H284111   1.409   4.117   2.984
27957WAT      O84112   1.142   3.002   7.847
27957WAT     H184113   1.179   3.021   7.756
27957WAT     H284114   1.044   3.018   7.848
27958WAT      O84115   8.998   1.436   3.742
27958WAT     H184116   8.991   1.376   3.822
27958WAT     H284117   9.050   1.517   3.766
27959WAT      O84118   8.770   5.112   6.506
27959WAT     H184119   8.846   5.112   6.441
27959WAT     H284120   8.776   5.031   6.564
27960WAT      O84121   4.768   3.232   1.457
27960WAT     H184122   4.851   3.187   1.489
27960WAT     H284123   4.792   3.313   1.403
27961WAT      O84124   7.673   8.902   4.108
27961WAT     H184125   7.719   8.899   4.197
27961WAT     H284126   7.741   8.885   4.036
27962WAT      O84127   2.382   5.671   8.752
27962WAT     H184128   2.343   5.670   8.844
27962WAT     H284129   2.482   5.677   8.759
27963WAT      O84130   4.392   1.934   6.404
27963WAT     H184131   4.372   2.026   6.439
27963WAT     H284132   4.376   1.867   6.477
27964WAT      O84133   2.843   2.193   7.449
27964WAT     H184134   2.767   2.236   7.401
27964WAT     H284135   2.808   2.115   7.501
27965WAT      O84136   2.823   9.801   9.247
27965WAT     H184137   2.878   9.876   9.210
27965WAT     H284138   2.831   9.800   9.347
27966WAT      O84139   0.590   1.401   1.713
27966WAT     H184140   0.564   1.323   1.656
27966WAT     H284141   0.568   1.486   1.665
27967WAT      O84142   5.524   3.170   6.575
27967WAT     H184143   5.550   3.085   6.529
27967WAT     H284144   5.425   3.175   6.583
27968WAT      O84145   3.000   3.769   8.156
27968WAT     H184146   2.971   3.698   8.092
27968WAT     H284147   3.057   3.728   8.227
27969WAT      O84148   2.538   0.848   5.413
27969WAT     H184149   2.596   0.775   5.376
27969WAT     H284150   2.557   0.933   5.364
27970WAT      O84151   7.193   1.951   6.030
27970WAT     H184152   7.136   1.882   5.984
27970WAT     H284153   7.193   2.035   5.975
27971WAT      O84154   8.071   5.404   4.243
27971WAT     H184155   8.106   5.444   4.158
27971WAT     H284156   7.990   5.454   4.272
27972WAT      O84157   5.478   2.386   8.271
27972WAT     H184158   5.427   2.471   8.266
27972WAT     H284159   5.440   2.320   8.207
27973WAT      O84160   1.093   0.523   4.931
27973WAT     H184161   1.076   0.445   4.870
27973WAT     H284162   1.191   0.536   4.943
27974WAT      O84163   7.362   6.829   4.001
27974WAT     H184164   7.403   6.775   3.928
27974WAT     H284165   7.282   6.878   3.965
27975WAT      O84166   3.912   2.181   2.644
27975WAT     H184167   3.928   2.154   2.739
27975WAT     H284168   3.978   2.136   2.584
27976WAT      O84169   2.757   5.357   7.446
27976WAT     H184170   2.834   5.408   7.485
27976WAT     H284171   2.789   5.271   7.408
27977WAT      O84172   0.157   1.129   7.375
27977WAT     H184173   0.230   1.086   7.430
27977WAT     H284174   0.198   1.183   7.302
27978WAT      O84175   0.716   3.379   1.640
27978WAT     H184176   0.685   3.379   1.545
27978WAT     H284177   0.654   3.323   1.695
27979WAT      O84178   4.514   5.367   4.813
27979WAT     H184179   4.479   5.461   4.822
27979WAT     H284180   4.559   5.341   4.898
27980WAT      O84181   5.296   2.235   9.773
27980WAT     H184182   5.227   2.174   9.811
27980WAT     H284183   5.292   2.324   9.818
27981WAT      O84184   3.274   1.984   3.358
27981WAT     H184185   3.320   2.072   3.372
27981WAT     H284186   3.239   1.980   3.265
27982WAT      O84187   2.142   7.347   9.160
27982WAT     H184188   2.110   7.410   9.232
27982WAT     H284189   2.235   7.371   9.134
27983WAT      O84190   2.388   9.746   6.627
27983WAT     H184191   2.465   9.697   6.668
27983WAT     H284192   2.405   9.759   6.529
27984WAT      O84193   5.557   3.857   6.514
27984WAT     H184194   5.484   3.809   6.467
27984WAT     H284195   5.643   3.806   6.502
27985WAT      O84196   2.692   8.089   7.200
27985WAT     H184197   2.685   8.141   7.284
27985WAT     H284198   2.682   7.991   7.220
27986WAT      O84199   4.090   9.707   1.667
27986WAT     H184200   4.149   9.642   1.618
27986WAT     H284201   4.145   9.784   1.699
27987WAT      O84202   7.713   3.475   0.281
27987WAT     H184203   7.704   3.387   0.328
27987WAT     H284204   7.656   3.543   0.326
27988WAT      O84205   2.171   8.634   1.613
27988WAT     H184206   2.091   8.683   1.647
27988WAT     H284207   2.199   8.673   1.525
27989WAT      O84208   0.489   9.551   0.476
27989WAT     H184209   0.551   9.524   0.402
27989WAT     H284210   0.410   9.490   0.477
27990WAT      O84211   9.467   0.268   7.095
27990WAT     H184212   9.386   0.256   7.152
27990WAT     H284213   9.545   0.293   7.152
27991WAT      O84214   9.608   7.591   7.441
27991WAT     H184215   9.539   7.519   7.446
27991WAT     H284216   9.597   7.653   7.519
27992WAT      O84217   3.991   7.841   7.219
27992WAT     H184218   3.932   7.891   7.282
27992WAT     H284219   3.947   7.755   7.193
27993WAT      O84220   4.766   1.378   9.345
27993WAT     H184221   4.853   1.346   9.307
27993WAT     H284222   4.727   1.448   9.286
27994WAT      O84223   3.041   9.538   2.692
27994WAT     H184224   3.040   9.462   2.757
27994WAT     H284225   3.018   9.623   2.739
27995WAT      O84226   1.284   5.896   8.338
27995WAT     H184227   1.305   5.801   8.359
27995WAT     H284228   1.331   5.956   8.402
27996WAT      O84229   0.630   4.877   1.558
27996WAT     H184230   0.723   4.883   1.594
27996WAT     H284231   0.581   4.962   1.579
27997WAT      O84232   2.783   5.085   6.861
27997WAT     H184233   2.852   5.142   6.818
27997WAT     H284234   2.772   5.001   6.807
27998WAT      O84235   9.473   0.241   5.911
27998WAT     H184236   9.471   0.205   5.818
27998WAT     H284237   9.434   0.332   5.913
27999WAT      O84238   8.285   7.276   5.073
27999WAT     H184239   8.261   7.235   5.161
27999WAT     H284240   8.384   7.289   5.067
28000WAT      O84241   7.449   9.201   5.258
28000WAT     H184242   7.496   9.114   5.245
28000WAT     H284243   7.514   9.270   5.289
28001WAT      O84244   7.087   0.841   1.587
28001WAT     H184245   7.153   0.877   1.654
28001WAT     H284246   7.000   0.890   1.597
28002WAT      O84247   9.341   5.804   6.936
28002WAT     H184248   9.436   5.816   6.963
28002WAT     H284249   9.280   5.831   7.011
28003WAT      O84250   5.126   5.839   9.339
28003WAT     H184251   5.182   5.756   9.343
28003WAT     H284252   5.174   5.913   9.386
28004WAT      O84253   0.520   3.148   8.220
28004WAT     H184254   0.495   3.244   8.211
28004WAT     H284255   0.542   3.128   8.315
28005WAT      O84256   9.168   1.423   1.354
28005WAT     H184257   9.215   1.348   1.401
28005WAT     H284258   9.213   1.441   1.267
28006WAT      O84259   8.067   1.126   9.234
28006WAT     H184260   7.975   1.136   9.273
28006WAT     H284261   8.060   1.113   9.135
28007WAT      O84262   2.252   5.441   1.745
28007WAT     H184263   2.300   5.354   1.737
28007WAT     H284264   2.270   5.497   1.664
28008WAT      O84265   0.332   4.358   2.163
28008WAT     H184266   0.254   4.322   2.113
28008WAT     H284267   0.367   4.440   2.117
28009WAT      O84268   3.844   4.363   2.408
28009WAT     H184269   3.843   4.306   2.491
28009WAT     H284270   3.751   4.388   2.384
28010WAT      O84271   8.598   6.722   9.569
28010WAT     H184272   8.508   6.680   9.581
28010WAT     H284273   8.664   6.676   9.629
28011WAT      O84274   6.764   2.303   1.137
28011WAT     H184275   6.800   2.217   1.101
28011WAT     H284276   6.828   2.340   1.204
28012WAT      O84277   3.463   4.894   6.921
28012WAT     H184278   3.561   4.913   6.926
28012WAT     H284279   3.443   4.808   6.969
28013WAT      O84280   5.442   0.795   2.520
28013WAT     H184281   5.522   0.831   2.473
28013WAT     H284282   5.380   0.754   2.454
28014WAT      O84283   4.051   5.827   8.282
28014WAT     H184284   4.063   5.868   8.191
28014WAT     H284285   4.029   5.899   8.348
28015WAT      O84286   5.179   2.143   0.346
28015WAT     H184287   5.105   2.099   0.295
28015WAT     H284288   5.248   2.176   0.283
28016WAT      O84289   3.022   0.167   0.304
28016WAT     H184290   3.030   0.266   0.293
28016WAT     H284291   2.928   0.145   0.330
28017WAT      O84292   1.113   2.527   1.399
28017WAT     H184293   1.109   2.521   1.498
28017WAT     H284294   1.020   2.521   1.361
28018WAT      O84295   0.020   3.725   7.478
28018WAT     H184296  -0.005   3.634   7.510
28018WAT     H284297  -0.058   3.766   7.430
28019WAT      O84298   6.192   7.355   5.510
28019WAT     H184299   6.135   7.335   5.590
28019WAT     H284300   6.270   7.410   5.538
28020WAT      O84301   0.305   8.347   1.664
28020WAT     H184302   0.280   8.293   1.584
28020WAT     H284303   0.404   8.361   1.664
28021WAT      O84304   1.563   2.174   6.080
28021WAT     H184305   1.553   2.090   6.027
28021WAT     H284306   1.536   2.252   6.023
28022WAT      O84307   4.980   6.822   2.268
28022WAT     H184308   5.023   6.876   2.195
28022WAT     H284309   4.922   6.882   2.323
28023WAT      O84310   6.876   2.430   7.804
28023WAT     H184311   6.801   2.496   7.797
28023WAT     H284312   6.895   2.412   7.901
28024WAT      O84313   0.578   9.110   9.248
28024WAT     H184314   0.559   9.022   9.204
28024WAT     H284315   0.520   9.181   9.207
28025WAT      O84316   1.953   4.100   1.873
28025WAT     H184317   2.020   4.141   1.935
28025WAT     H284318   1.937   4.004   1.899
28026WAT      O84319   7.167   6.141   7.815
28026WAT     H184320   7.153   6.240   7.811
28026WAT     H284321   7.155   6.110   7.909
28027WAT      O84322   2.053   8.723   6.087
28027WAT     H184323   2.116   8.746   6.161
28027WAT     H284324   2.098   8.658   6.025
28028WAT      O84325   7.088   4.631   7.115
28028WAT     H184326   7.123   4.556   7.060
28028WAT     H284327   7.038   4.695   7.056
28029WAT      O84328   0.054   1.659   1.576
28029WAT     H184329  -0.010   1.670   1.653
28029WAT     H284330   0.146   1.640   1.612
28030WAT      O84331   5.655   2.064   3.665
28030WAT     H184332   5.704   2.126   3.603
28030WAT     H284333   5.582   2.114   3.711
28031WAT      O84334   9.532   4.263   2.376
28031WAT     H184335   9.529   4.270   2.276
28031WAT     H284336   9.530   4.167   2.403
28032WAT      O84337   1.415   4.353   9.377
28032WAT     H184338   1.370   4.419   9.317
28032WAT     H284339   1.349   4.318   9.444
28033WAT      O84340   7.174   6.981   5.663
28033WAT     H184341   7.196   6.927   5.582
28033WAT     H284342   7.111   6.929   5.721
28034WAT      O84343   4.670   2.589   7.669
28034WAT     H184344   4.634   2.680   7.689
28034WAT     H284345   4.594   2.523   7.668
28035WAT      O84346   0.664   7.587   0.912
28035WAT     H184347   0.583   7.620   0.864
28035WAT     H284348   0.745   7.605   0.857
28036WAT      O84349   7.028   7.196   9.654
28036WAT     H184350   7.068   7.130   9.716
28036WAT     H284351   7.100   7.236   9.596
28037WAT      O84352   4.736   3.658   7.262
28037WAT     H184353   4.763   3.751   7.286
28037WAT     H284354   4.711   3.655   7.165
28038WAT      O84355   2.342   1.632   5.030
28038WAT     H184356   2.402   1.636   4.951
28038WAT     H284357   2.251   1.665   5.005
28039WAT      O84358   1.605   3.696   1.723
28039WAT     H184359   1.705   3.699   1.721
28039WAT     H284360   1.569   3.785   1.753
28040WAT      O84361   7.341   1.546   1.953
28040WAT     H184362   7.394   1.557   2.037
28040WAT     H284363   7.349   1.452   1.920
28041WAT      O84364   0.603   3.244   9.463
28041WAT     H184365   0.591   3.266   9.560
28041WAT     H284366   0.695   3.270   9.434
28042WAT      O84367   4.213   4.441   7.190
28042WAT     H184368   4.220   4.514   7.122
28042WAT     H284369   4.139   4.462   7.254
28043WAT      O84370   3.925   7.764   4.738
28043WAT     H184371   3.828   7.740   4.729
28043WAT     H284372   3.964   7.715   4.816
28044WAT      O84373   1.298   1.349   4.982
28044WAT     H184374   1.291   1.418   5.054
28044WAT     H284375   1.208   1.336   4.939
28045WAT      O84376   8.049   0.125   1.242
28045WAT     H184377   7.964   0.174   1.260
28045WAT     H284378   8.066   0.122   1.143
28046WAT      O84379   5.520   9.725   6.878
28046WAT     H184380   5.539   9.627   6.886
28046WAT     H284381   5.541   9.770   6.965
28047WAT      O84382   2.837   6.544   1.719
28047WAT     H184383   2.865   6.629   1.674
28047WAT     H284384   2.791   6.485   1.653
28048WAT      O84385   9.074   4.145   4.374
28048WAT     H184386   9.085   4.227   4.429
28048WAT     H284387   9.071   4.170   4.277
28049WAT      O84388   3.473   2.218   1.866
28049WAT     H184389   3.498   2.285   1.796
28049WAT     H284390   3.549   2.207   1.930
28050WAT      O84391   4.359   2.993   2.114
28050WAT     H184392   4.301   2.931   2.168
28050WAT     H284393   4.329   3.087   2.128
28051WAT      O84394   7.666   2.632   9.096
28051WAT     H184395   7.663   2.614   9.195
28051WAT     H284396   7.616   2.716   9.077
28052WAT      O84397   2.425   7.647   2.089
28052WAT     H184398   2.513   7.689   2.069
28052WAT     H284399   2.437   7.550   2.110
28053WAT      O84400   7.630   5.209   9.824
28053WAT     H184401   7.579   5.123   9.817
28053WAT     H284402   7.582   5.271   9.886
28054WAT      O84403   5.868   5.862   7.841
28054WAT     H184404   5.795   5.930   7.832
28054WAT     H284405   5.834   5.772   7.813
28055WAT      O84406   1.336   7.144   1.909
28055WAT     H184407   1.361   7.069   1.848
28055WAT     H284408   1.412   7.163   1.971
28056WAT      O84409   7.393   1.597   3.256
28056WAT     H184410   7.450   1.656   3.313
28056WAT     H284411   7.382   1.508   3.301
28057WAT      O84412   6.440   0.459   9.350
28057WAT     H184413   6.345   0.429   9.352
28057WAT     H284414   6.493   0.406   9.416
28058WAT      O84415   9.599   6.991   0.857
28058WAT     H184416   9.529   6.976   0.787
28058WAT     H284417   9.628   7.087   0.853
28059WAT      O84418   2.864   0.923   2.142
28059WAT     H184419   2.952   0.929   2.188
28059WAT     H284420   2.837   1.014   2.109
28060WAT      O84421   3.865   0.787   2.665
28060WAT     H184422   3.812   0.726   2.723
28060WAT     H284423   3.869   0.749   2.572
28061WAT      O84424   6.671   5.470   3.953
28061WAT     H184425   6.713   5.482   4.042
28061WAT     H284426   6.665   5.558   3.906
28062WAT      O84427   8.879   9.033   0.013
28062WAT     H184428   8.861   9.004   0.107
28062WAT     H284429   8.817   8.985  -0.050
28063WAT      O84430   4.888   9.237   9.230
28063WAT     H184431   4.908   9.167   9.299
28063WAT     H284432   4.876   9.326   9.275
28064WAT      O84433   9.791   4.601   7.335
28064WAT     H184434   9.744   4.645   7.259
28064WAT     H284435   9.779   4.655   7.418
28065WAT      O84436   8.447   7.372   8.194
28065WAT     H184437   8.358   7.385   8.151
28065WAT     H284438   8.502   7.455   8.182
28066WAT      O84439   1.216   2.584   6.238
28066WAT     H184440   1.224   2.682   6.260
28066WAT     H284441   1.201   2.573   6.140
28067WAT      O84442   8.294   0.346   1.176
28067WAT     H184443   8.256   0.337   1.268
28067WAT     H284444   8.219   0.356   1.110
28068WAT      O84445   9.466   7.449   4.469
28068WAT     H184446   9.440   7.472   4.562
28068WAT     H284447   9.383   7.431   4.415
28069WAT      O84448   9.519   1.663   9.189
28069WAT     H184449   9.615   1.648   9.165
28069WAT     H284450   9.473   1.574   9.197
28070WAT      O84451   9.517   4.964   9.580
28070WAT     H184452   9.490   4.926   9.491
28070WAT     H284453   9.538   4.890   9.643
28071WAT      O84454   5.833   2.269   5.631
28071WAT     H184455   5.837   2.322   5.546
28071WAT     H284456   5.908   2.202   5.632
28072WAT      O84457   5.938   9.133   5.027
28072WAT     H184458   5.847   9.132   5.070
28072WAT     H284459   5.984   9.046   5.045
28073WAT      O84460   8.743   8.962   2.464
28073WAT     H184461   8.774   9.052   2.498
28073WAT     H284462   8.792   8.940   2.380
28074WAT      O84463   8.961   2.466   2.755
28074WAT     H184464   8.879   2.503   2.711
28074WAT     H284465   9.042   2.491   2.702
28075WAT      O84466   7.874   5.424   6.795
28075WAT     H184467   7.935   5.345   6.801
28075WAT     H284468   7.868   5.468   6.884
28076WAT      O84469   3.581   5.482   6.209
28076WAT     H184470   3.545   5.554   6.150
28076WAT     H284471   3.597   5.400   6.154
28077WAT      O84472   6.877   9.736   7.423
28077WAT     H184473   6.784   9.715   7.452
28077WAT     H284474   6.903   9.826   7.459
28078WAT      O84475   7.728   2.349   2.487
28078WAT     H184476   7.752   2.373   2.582
28078WAT     H284477   7.733   2.430   2.430
28079WAT      O84478   3.115   5.457   6.792
28079WAT     H184479   3.191   5.478   6.731
28079WAT     H284480   3.067   5.376   6.758
28080WAT      O84481   7.423   2.071   2.580
28080WAT     H184482   7.440   2.031   2.670
28080WAT     H284483   7.511   2.100   2.540
28081WAT      O84484   5.129   0.033   9.732
28081WAT     H184485   5.064  -0.034   9.696
28081WAT     H284486   5.156   0.095   9.658
28082WAT      O84487   2.071   9.715   8.508
28082WAT     H184488   1.986   9.696   8.557
28082WAT     H284489   2.071   9.810   8.476
28083WAT      O84490   7.074   6.440   3.936
28083WAT     H184491   7.126   6.487   3.865
28083WAT     H284492   6.986   6.485   3.948
28084WAT      O84493   2.400   1.851   6.535
28084WAT     H184494   2.400   1.942   6.493
28084WAT     H284495   2.490   1.831   6.573
28085WAT      O84496   6.194   7.457   1.906
28085WAT     H184497   6.205   7.504   1.819
28085WAT     H284498   6.105   7.481   1.946
28086WAT      O84499   4.064   9.179   2.844
28086WAT     H184500   4.006   9.247   2.890
28086WAT     H284501   4.008   9.124   2.782
28087WAT      O84502   3.824   8.387   0.273
28087WAT     H184503   3.848   8.330   0.194
28087WAT     H284504   3.730   8.419   0.264
28088WAT      O84505   1.314   9.741   5.287
28088WAT     H184506   1.269   9.778   5.368
28088WAT     H284507   1.249   9.683   5.236
28089WAT      O84508   2.375   0.113   8.680
28089WAT     H184509   2.437   0.085   8.753
28089WAT     H284510   2.331   0.032   8.640
28090WAT      O84511   4.317   6.894   5.184
28090WAT     H184512   4.311   6.968   5.116
28090WAT     H284513   4.326   6.806   5.137
28091WAT      O84514   0.240   9.635   0.209
28091WAT     H184515   0.183   9.580   0.271
28091WAT     H284516   0.296   9.574   0.153
28092WAT      O84517   3.480   9.518   2.503
28092WAT     H184518   3.383   9.495   2.492
28092WAT     H284519   3.519   9.539   2.414
28093WAT      O84520   8.711   7.695   6.166
28093WAT     H184521   8.643   7.750   6.215
28093WAT     H284522   8.694   7.701   6.068
28094WAT      O84523   9.074   0.160   5.864
28094WAT     H184524   9.143   0.185   5.932
28094WAT     H284525   9.033   0.243   5.827
28095WAT      O84526   3.862   8.698   4.433
28095WAT     H184527   3.847   8.748   4.518
28095WAT     H284528   3.955   8.662   4.430
28096WAT      O84529   2.961   0.976   4.953
28096WAT     H184530   3.039   1.005   5.008
28096WAT     H284531   2.885   0.953   5.014
28097WAT      O84532   1.448   8.728   5.289
28097WAT     H184533   1.481   8.797   5.353
28097WAT     H284534   1.369   8.765   5.239
28098WAT      O84535   1.109   1.820   3.448
28098WAT     H184536   1.147   1.828   3.356
28098WAT     H284537   1.090   1.724   3.468
28099WAT      O84538   2.153   5.420   0.715
28099WAT     H184539   2.188   5.365   0.638
28099WAT     H284540   2.228   5.477   0.750
28100WAT      O84541   9.883   7.876   9.170
28100WAT     H184542   9.821   7.946   9.135
28100WAT     H284543   9.897   7.805   9.101
28101WAT      O84544   6.815   3.945   6.893
28101WAT     H184545   6.835   3.915   6.799
28101WAT     H284546   6.849   3.877   6.958
28102WAT      O84547   6.693   1.678   0.139
28102WAT     H184548   6.602   1.716   0.122
28102WAT     H284549   6.687   1.578   0.142
28103WAT      O84550   9.426   1.405   9.230
28103WAT     H184551   9.484   1.326   9.252
28103WAT     H284552   9.354   1.377   9.166
28104WAT      O84553   9.755   5.042   8.716
28104WAT     H184554   9.831   5.095   8.679
28104WAT     H284555   9.672   5.098   8.716
28105WAT      O84556   8.908   3.155   1.134
28105WAT     H184557   8.994   3.135   1.086
28105WAT     H284558   8.896   3.253   1.142
28106WAT      O84559   3.072   9.167   8.525
28106WAT     H184560   3.005   9.210   8.464
28106WAT     H284561   3.142   9.122   8.471
28107WAT      O84562   2.485   1.705   0.324
28107WAT     H184563   2.560   1.683   0.387
28107WAT     H284564   2.399   1.705   0.375
28108WAT      O84565   7.261   3.680   1.151
28108WAT     H184566   7.196   3.752   1.127
28108WAT     H284567   7.336   3.680   1.085
28109WAT      O84568   3.778   4.585   9.781
28109WAT     H184569   3.726   4.644   9.718
28109WAT     H284570   3.822   4.512   9.728
28110WAT      O84571   1.854   9.221   0.140
28110WAT     H184572   1.852   9.130   0.181
28110WAT     H284573   1.821   9.289   0.206
28111WAT      O84574   6.301   6.427   5.044
28111WAT     H184575   6.329   6.471   5.130
28111WAT     H284576   6.364   6.452   4.971
28112WAT      O84577   0.214   5.900   2.590
28112WAT     H184578   0.268   5.980   2.616
28112WAT     H284579   0.273   5.832   2.546
28113WAT      O84580   2.846   7.533   6.888
28113WAT     H184581   2.763   7.522   6.833
28113WAT     H284582   2.919   7.475   6.851
28114WAT      O84583   4.848   8.666   1.212
28114WAT     H184584   4.830   8.664   1.113
28114WAT     H284585   4.854   8.761   1.242
28115WAT      O84586   6.364   2.833   1.225
28115WAT     H184587   6.381   2.780   1.308
28115WAT     H284588   6.381   2.930   1.243
28116WAT      O84589   5.774   6.764   1.110
28116WAT     H184590   5.760   6.863   1.116
28116WAT     H284591   5.741   6.720   1.193
28117WAT      O84592   5.885   0.382   4.499
28117WAT     H184593   5.860   0.310   4.434
28117WAT     H284594   5.866   0.351   4.592
28118WAT      O84595   1.711   4.445   4.397
28118WAT     H184596   1.794   4.501   4.388
28118WAT     H284597   1.720   4.362   4.342
28119WAT      O84598   5.139   6.943   2.072
28119WAT     H184599   5.197   6.914   1.996
28119WAT     H284600   5.159   7.038   2.095
28120WAT      O84601   4.104   8.096   5.036
28120WAT     H184602   4.204   8.103   5.041
28120WAT     H284603   4.079   8.046   4.953
28121WAT      O84604   4.709   5.378   8.594
28121WAT     H184605   4.733   5.432   8.514
28121WAT     H284606   4.619   5.337   8.581
28122WAT      O84607   8.326   0.991   3.777
28122WAT     H184608   8.239   0.943   3.783
28122WAT     H284609   8.323   1.074   3.834
28123WAT      O84610   7.546   7.399   4.270
28123WAT     H184611   7.636   7.358   4.285
28123WAT     H284612   7.478   7.351   4.327
28124WAT      O84613   4.942   8.696   6.649
28124WAT     H184614   5.006   8.695   6.726
28124WAT     H284615   4.948   8.784   6.602
28125WAT      O84616   8.050   3.685   8.327
28125WAT     H184617   8.133   3.718   8.282
28125WAT     H284618   7.979   3.755   8.322
28126WAT      O84619   8.181   2.999   5.129
28126WAT     H184620   8.094   3.017   5.082
28126WAT     H284621   8.163   2.948   5.213
28127WAT      O84622   1.763   9.233   1.021
28127WAT     H184623   1.857   9.222   0.988
28127WAT     H284624   1.764   9.271   1.113
28128WAT      O84625   6.178   9.178   7.982
28128WAT     H184626   6.201   9.175   8.079
28128WAT     H284627   6.079   9.170   7.970
28129WAT      O84628   2.723   8.438   2.842
28129WAT     H184629   2.775   8.412   2.923
28129WAT     H284630   2.783   8.434   2.762
28130WAT      O84631   5.768   1.843   5.122
28130WAT     H184632   5.710   1.763   5.106
28130WAT     H284633   5.757   1.873   5.217
28131WAT      O84634   8.427   7.659   2.106
28131WAT     H184635   8.402   7.575   2.058
28131WAT     H284636   8.500   7.705   2.056
28132WAT      O84637   1.196   6.974   6.099
28132WAT     H184638   1.208   6.913   6.177
28132WAT     H284639   1.260   7.050   6.106
28133WAT      O84640   7.721   7.537   0.662
28133WAT     H184641   7.697   7.615   0.604
28133WAT     H284642   7.795   7.563   0.725
28134WAT      O84643   3.039   1.606   7.456
28134WAT     H184644   3.102   1.683   7.447
28134WAT     H284645   3.046   1.548   7.375
28135WAT      O84646   4.585   7.525   9.400
28135WAT     H184647   4.544   7.462   9.464
28135WAT     H284648   4.604   7.478   9.313
28136WAT      O84649   3.163   3.190   2.330
28136WAT     H184650   3.076   3.145   2.349
28136WAT     H284651   3.150   3.263   2.264
28137WAT      O84652   1.433   3.069   6.432
28137WAT     H184653   1.412   2.981   6.391
28137WAT     H284654   1.438   3.059   6.532
28138WAT      O84655   5.361   7.796   5.158
28138WAT     H184656   5.415   7.799   5.242
28138WAT     H284657   5.420   7.772   5.081
28139WAT      O84658   5.890   3.117   6.399
28139WAT     H184659   5.963   3.149   6.339
28139WAT     H284660   5.891   3.017   6.402
28140WAT      O84661   3.735   6.173   1.870
28140WAT     H184662   3.831   6.168   1.840
28140WAT     H284663   3.676   6.176   1.790
28141WAT      O84664   6.556   5.551   9.791
28141WAT     H184665   6.621   5.508   9.729
28141WAT     H284666   6.555   5.649   9.776
28142WAT      O84667   5.323   1.873   1.327
28142WAT     H184668   5.394   1.807   1.301
28142WAT     H284669   5.291   1.852   1.419
28143WAT      O84670   5.042   5.089   0.005
28143WAT     H184671   5.094   5.058   0.084
28143WAT     H284672   5.081   5.049  -0.078
28144WAT      O84673   6.038   4.779   8.503
28144WAT     H184674   6.022   4.761   8.406
28144WAT     H284675   6.132   4.809   8.516
28145WAT      O84676   7.467   7.199   5.873
28145WAT     H184677   7.480   7.296   5.854
28145WAT     H284678   7.381   7.168   5.833
28146WAT      O84679   4.904   8.311   7.275
28146WAT     H184680   4.921   8.379   7.204
28146WAT     H284681   4.983   8.250   7.283
28147WAT      O84682   6.625   2.247   7.365
28147WAT     H184683   6.638   2.161   7.413
28147WAT     H284684   6.660   2.239   7.272
28148WAT      O84685   5.819   3.679   2.138
28148WAT     H184686   5.803   3.766   2.184
28148WAT     H284687   5.846   3.610   2.205
28149WAT      O84688   8.398   0.029   9.773
28149WAT     H184689   8.478  -0.005   9.823
28149WAT     H284690   8.318  -0.027   9.797
28150WAT      O84691   0.601   9.644   0.700
28150WAT     H184692   0.613   9.552   0.737
28150WAT     H284693   0.550   9.639   0.614
28151WAT      O84694   9.264   9.434   9.087
28151WAT     H184695   9.334   9.379   9.042
28151WAT     H284696   9.288   9.445   9.184
28152WAT      O84697   5.799   0.112   3.033
28152WAT     H184698   5.786   0.016   3.056
28152WAT     H284699   5.875   0.149   3.087
28153WAT      O84700   8.986   7.998   2.171
28153WAT     H184701   8.992   8.054   2.088
28153WAT     H284702   9.026   8.048   2.248
28154WAT      O84703   3.058   3.260   2.950
28154WAT     H184704   2.994   3.273   3.026
28154WAT     H284705   3.108   3.174   2.963
28155WAT      O84706   1.107   0.430   4.249
28155WAT     H184707   1.169   0.440   4.327
28155WAT     H284708   1.153   0.460   4.166
28156WAT      O84709   7.757   3.493   4.270
28156WAT     H184710   7.710   3.580   4.258
28156WAT     H284711   7.856   3.506   4.258
28157WAT      O84712   5.938   1.051   6.142
28157WAT     H184713   5.925   1.130   6.083
28157WAT     H284714   5.849   1.018   6.174
28158WAT      O84715   4.248   7.166   7.412
28158WAT     H184716   4.168   7.191   7.466
28158WAT     H284717   4.245   7.213   7.324
28159WAT      O84718   5.512   8.846   3.782
28159WAT     H184719   5.510   8.943   3.759
28159WAT     H284720   5.550   8.833   3.874
28160WAT      O84721   3.518   3.638   2.687
28160WAT     H184722   3.487   3.708   2.752
28160WAT     H284723   3.441   3.607   2.632
28161WAT      O84724   2.008   5.890   1.288
28161WAT     H184725   2.010   5.989   1.294
28161WAT     H284726   2.084   5.851   1.340
28162WAT      O84727   3.717   5.961   7.125
28162WAT     H184728   3.749   5.901   7.198
28162WAT     H284729   3.624   5.933   7.098
28163WAT      O84730   1.119   7.153   9.210
28163WAT     H184731   1.139   7.200   9.296
28163WAT     H284732   1.204   7.133   9.162
28164WAT      O84733   3.210   9.711   2.320
28164WAT     H184734   3.189   9.637   2.384
28164WAT     H284735   3.309   9.719   2.309
28165WAT      O84736   0.796   0.958   9.259
28165WAT     H184737   0.701   0.987   9.268
28165WAT     H284738   0.800   0.858   9.263
28166WAT      O84739   6.690   9.123   4.642
28166WAT     H184740   6.754   9.169   4.580
28166WAT     H284741   6.603   9.172   4.642
28167WAT      O84742   7.710   0.275   8.303
28167WAT     H184743   7.710   0.368   8.339
28167WAT     H284744   7.628   0.227   8.334
28168WAT      O84745   2.128   8.823   3.952
28168WAT     H184746   2.215   8.813   4.001
28168WAT     H284747   2.063   8.871   4.011
28169WAT      O84748   6.819   4.010   3.657
28169WAT     H184749   6.914   4.028   3.633
28169WAT     H284750   6.804   4.029   3.754
28170WAT      O84751   4.216   3.591   4.025
28170WAT     H184752   4.127   3.545   4.032
28170WAT     H284753   4.205   3.678   3.978
28171WAT      O84754   4.098   3.371   2.247
28171WAT     H184755   4.077   3.383   2.150
28171WAT     H284756   4.105   3.273   2.267
28172WAT      O84757   6.072   6.197   1.753
28172WAT     H184758   6.003   6.188   1.681
28172WAT     H284759   6.137   6.269   1.728
28173WAT      O84760   9.439   3.198   3.528
28173WAT     H184761   9.384   3.253   3.591
28173WAT     H284762   9.471   3.115   3.575
28174WAT      O84763   2.031   7.849   4.868
28174WAT     H184764   2.048   7.812   4.777
28174WAT     H284765   1.948   7.905   4.866
28175WAT      O84766   3.099   2.164   8.659
28175WAT     H184767   3.063   2.221   8.586
28175WAT     H284768   3.089   2.067   8.635
28176WAT      O84769   1.734   2.126   3.005
28176WAT     H184770   1.744   2.221   3.034
28176WAT     H284771   1.756   2.066   3.082
28177WAT      O84772   6.311   6.331   8.964
28177WAT     H184773   6.342   6.318   9.058
28177WAT     H284774   6.270   6.246   8.931
28178WAT      O84775   0.193   6.814   2.788
28178WAT     H184776   0.218   6.837   2.882
28178WAT     H284777   0.273   6.782   2.738
28179WAT      O84778   3.840   0.632   1.757
28179WAT     H184779   3.808   0.541   1.784
28179WAT     H284780   3.850   0.635   1.657
28180WAT      O84781   7.273   7.873   0.961
28180WAT     H184782   7.306   7.854   1.054
28180WAT     H284783   7.191   7.819   0.942
28181WAT      O84784   4.409   8.122   9.724
28181WAT     H184785   4.484   8.187   9.725
28181WAT     H284786   4.340   8.150   9.657
28182WAT      O84787   4.910   8.680   0.228
28182WAT     H184788   5.005   8.704   0.249
28182WAT     H284789   4.849   8.749   0.266
28183WAT      O84790   7.906   4.544   6.563
28183WAT     H184791   7.913   4.445   6.547
28183WAT     H284792   7.912   4.592   6.476
28184WAT      O84793   5.327   9.042   5.627
28184WAT     H184794   5.422   9.049   5.597
28184WAT     H284795   5.298   9.128   5.669
28185WAT      O84796   0.558   4.351   6.586
28185WAT     H184797   0.463   4.335   6.613
28185WAT     H284798   0.561   4.375   6.489
28186WAT      O84799   1.673   0.191   0.968
28186WAT     H184800   1.629   0.214   0.882
28186WAT     H284801   1.773   0.189   0.955
28187WAT      O84802   8.256   2.625   5.443
28187WAT     H184803   8.292   2.717   5.454
28187WAT     H284804   8.156   2.627   5.445
28188WAT      O84805   2.550   5.678   2.928
28188WAT     H184806   2.503   5.721   3.006
28188WAT     H284807   2.620   5.616   2.962
28189WAT      O84808   4.774   0.519   7.886
28189WAT     H184809   4.765   0.614   7.855
28189WAT     H284810   4.738   0.511   7.979
28190WAT      O84811   0.378   5.918   3.377
28190WAT     H184812   0.456   5.962   3.333
28190WAT     H284813   0.388   5.819   3.370
28191WAT      O84814   6.803   2.366   6.904
28191WAT     H184815   6.713   2.392   6.870
28191WAT     H284816   6.861   2.340   6.827
28192WAT      O84817   6.957   2.007   2.319
28192WAT     H184818   6.969   2.017   2.220
28192WAT     H284819   6.993   1.918   2.348
28193WAT      O84820   0.302   3.891   5.820
28193WAT     H184821   0.260   3.976   5.853
28193WAT     H284822   0.233   3.819   5.816
28194WAT      O84823   5.864   8.940   9.446
28194WAT     H184824   5.905   9.016   9.496
28194WAT     H284825   5.766   8.936   9.466
28195WAT      O84826   7.984   1.708   9.497
28195WAT     H184827   8.048   1.776   9.461
28195WAT     H284828   7.893   1.723   9.459
28196WAT      O84829   7.529   2.274   1.227
28196WAT     H184830   7.623   2.301   1.206
28196WAT     H284831   7.466   2.349   1.204
28197WAT      O84832   9.783   8.211   5.686
28197WAT     H184833   9.837   8.296   5.687
28197WAT     H284834   9.721   8.212   5.608
28198WAT      O84835   4.770   2.698   6.317
28198WAT     H184836   4.797   2.719   6.223
28198WAT     H284837   4.721   2.776   6.356
28199WAT      O84838   8.443   1.011   7.264
28199WAT     H184839   8.473   0.996   7.170
28199WAT     H284840   8.344   0.994   7.269
28200WAT      O84841   8.005   9.039   0.573
28200WAT     H184842   7.990   9.034   0.672
28200WAT     H284843   8.007   9.135   0.545
28201WAT      O84844   3.595   1.907   5.369
28201WAT     H184845   3.606   1.825   5.424
28201WAT     H284846   3.514   1.957   5.400
28202WAT      O84847   4.032   4.537   6.601
28202WAT     H184848   3.952   4.536   6.661
28202WAT     H284849   4.018   4.473   6.526
28203WAT      O84850   4.936   3.127   3.291
28203WAT     H184851   4.982   3.085   3.213
28203WAT     H284852   4.927   3.059   3.364
28204WAT      O84853   2.840   4.186   5.617
28204WAT     H184854   2.762   4.155   5.671
28204WAT     H284855   2.919   4.202   5.676
28205WAT      O84856   9.576   4.677   2.742
28205WAT     H184857   9.480   4.661   2.766
28205WAT     H284858   9.634   4.654   2.820
28206WAT      O84859   1.794   2.208   1.092
28206WAT     H184860   1.763   2.150   1.167
28206WAT     H284861   1.894   2.201   1.083
28207WAT      O84862   5.043   1.750   7.978
28207WAT     H184863   5.021   1.688   7.902
28207WAT     H284864   5.125   1.803   7.954
28208WAT      O84865   7.073   7.676   1.862
28208WAT     H184866   7.149   7.618   1.831
28208WAT     H284867   7.109   7.755   1.912
28209WAT      O84868   1.760   2.154   5.615
28209WAT     H184869   1.809   2.086   5.669
28209WAT     H284870   1.733   2.114   5.527
28210WAT      O84871   8.534   4.017   3.184
28210WAT     H184872   8.480   3.935   3.166
28210WAT     H284873   8.623   3.990   3.223
28211WAT      O84874   5.059   6.447   5.072
28211WAT     H184875   5.120   6.396   5.132
28211WAT     H284876   5.112   6.486   4.996
28212WAT      O84877   2.766   2.543   6.287
28212WAT     H184878   2.821   2.572   6.208
28212WAT     H284879   2.786   2.602   6.365
28213WAT      O84880   0.841   5.150   0.092
28213WAT     H184881   0.822   5.116  -0.000
28213WAT     H284882   0.899   5.231   0.086
28214WAT      O84883   7.716   8.394   5.917
28214WAT     H184884   7.782   8.469   5.932
28214WAT     H284885   7.710   8.339   6.000
28215WAT      O84886   7.466   2.845   6.170
28215WAT     H184887   7.402   2.823   6.244
28215WAT     H284888   7.444   2.935   6.133
28216WAT      O84889   5.881   5.308   0.608
28216WAT     H184890   5.881   5.225   0.664
28216WAT     H284891   5.971   5.320   0.567
28217WAT      O84892   6.236   5.801   9.382
28217WAT     H184893   6.282   5.716   9.356
28217WAT     H284894   6.137   5.787   9.378
28218WAT      O84895   7.775   4.850   0.268
28218WAT     H184896   7.778   4.754   0.295
28218WAT     H284897   7.839   4.865   0.192
28219WAT      O84898   7.160   0.677   9.452
28219WAT     H184899   7.201   0.739   9.519
28219WAT     H284900   7.148   0.725   9.365
28220WAT      O84901   5.220   6.082   3.336
28220WAT     H184902   5.198   6.089   3.238
28220WAT     H284903   5.311   6.119   3.352
28221WAT      O84904   3.837   7.326   8.607
28221WAT     H184905   3.837   7.233   8.644
28221WAT     H284906   3.931   7.358   8.600
28222WAT      O84907   1.622   8.240   8.057
28222WAT     H184908   1.685   8.280   8.124
28222WAT     H284909   1.542   8.299   8.047
28223WAT      O84910   6.351   3.118   6.670
28223WAT     H184911   6.251   3.113   6.662
28223WAT     H284912   6.391   3.117   6.578
28224WAT      O84913   0.479   0.847   3.770
28224WAT     H184914   0.537   0.859   3.689
28224WAT     H284915   0.536   0.818   3.847
28225WAT      O84916   5.650   0.640   2.347
28225WAT     H184917   5.737   0.602   2.316
28225WAT     H284918   5.658   0.740   2.355
28226WAT      O84919   6.740   1.075   7.136
28226WAT     H184920   6.715   1.000   7.198
28226WAT     H284921   6.698   1.160   7.168
28227WAT      O84922   3.777   1.406   3.544
28227WAT     H184923   3.792   1.364   3.454
28227WAT     H284924   3.785   1.505   3.536
28228WAT      O84925   6.865   4.180   5.554
28228WAT     H184926   6.786   4.206   5.499
28228WAT     H284927   6.949   4.211   5.509
28229WAT      O84928   8.164   1.537   0.454
28229WAT     H184929   8.248   1.485   0.433
28229WAT     H284930   8.103   1.534   0.375
28230WAT      O84931   5.812   7.457   6.531
28230WAT     H184932   5.882   7.402   6.486
28230WAT     H284933   5.729   7.457   6.476
28231WAT      O84934   0.366   7.656   4.655
28231WAT     H184935   0.280   7.605   4.664
28231WAT     H284936   0.435   7.615   4.715
28232WAT      O84937   3.952   1.909   7.315
28232WAT     H184938   3.868   1.956   7.341
28232WAT     H284939   4.024   1.976   7.297
28233WAT      O84940   5.181   4.960   3.902
28233WAT     H184941   5.141   4.881   3.948
28233WAT     H284942   5.277   4.968   3.926
28234WAT      O84943   7.965   1.603   1.632
28234WAT     H184944   7.974   1.664   1.554
28234WAT     H284945   8.055   1.588   1.673
28235WAT      O84946   4.055   5.895   2.959
28235WAT     H184947   4.016   5.852   3.040
28235WAT     H284948   4.122   5.833   2.917
28236WAT      O84949   6.450   4.264   7.575
28236WAT     H184950   6.549   4.271   7.582
28236WAT     H284951   6.422   4.279   7.480
28237WAT      O84952   8.922   1.450   0.778
28237WAT     H184953   8.975   1.507   0.716
28237WAT     H284954   8.831   1.434   0.738
28238WAT      O84955   2.327   6.078   6.453
28238WAT     H184956   2.326   5.985   6.417
28238WAT     H284957   2.415   6.120   6.433
28239WAT      O84958   8.781   4.084   1.871
28239WAT     H184959   8.863   4.054   1.920
28239WAT     H284960   8.808   4.133   1.788
28240WAT      O84961   5.655   6.601   4.525
28240WAT     H184962   5.688   6.680   4.577
28240WAT     H284963   5.655   6.521   4.585
28241WAT      O84964   6.537   6.210   9.890
28241WAT     H184965   6.536   6.287   9.954
28241WAT     H284966   6.608   6.223   9.822
28242WAT      O84967   5.473   5.846   9.372
28242WAT     H184968   5.448   5.780   9.443
28242WAT     H284969   5.446   5.938   9.401
28243WAT      O84970   6.890   7.005   3.755
28243WAT     H184971   6.917   7.094   3.719
28243WAT     H284972   6.956   6.936   3.725
28244WAT      O84973   1.155   2.935   9.718
28244WAT     H184974   1.072   2.986   9.695
28244WAT     H284975   1.133   2.839   9.735
28245WAT      O84976   5.424   7.826   9.043
28245WAT     H184977   5.329   7.859   9.043
28245WAT     H284978   5.424   7.726   9.039
28246WAT      O84979   7.638   1.041   7.569
28246WAT     H184980   7.703   1.044   7.645
28246WAT     H284981   7.686   1.059   7.483
28247WAT      O84982   6.207   9.190   2.443
28247WAT     H184983   6.250   9.130   2.376
28247WAT     H284984   6.131   9.239   2.400
28248WAT      O84985   4.028   9.288   0.476
28248WAT     H184986   4.034   9.388   0.481
28248WAT     H284987   3.961   9.255   0.542
28249WAT      O84988   6.263   8.115   7.870
28249WAT     H184989   6.298   8.091   7.961
28249WAT     H284990   6.339   8.146   7.813
28250WAT      O84991   8.551   0.826   2.164
28250WAT     H184992   8.487   0.822   2.087
28250WAT     H284993   8.576   0.922   2.181
28251WAT      O84994   2.353   5.379   1.345
28251WAT     H184995   2.313   5.291   1.318
28251WAT     H284996   2.451   5.378   1.325
28252WAT      O84997   0.474   1.003   0.456
28252WAT     H184998   0.424   0.930   0.502
28252WAT     H284999   0.501   0.973   0.365
28253WAT      O85000   0.903   1.630   2.553
28253WAT     H185001   0.941   1.722   2.553
28253WAT     H285002   0.834   1.622   2.625
28254WAT      O85003   3.888   4.316   0.384
28254WAT     H185004   3.976   4.277   0.357
28254WAT     H285005   3.815   4.252   0.358
28255WAT      O85006   4.382   3.871   8.088
28255WAT     H185007   4.291   3.865   8.046
28255WAT     H285008   4.438   3.936   8.036
28256WAT      O85009   6.174   6.383   2.531
28256WAT     H185010   6.269   6.406   2.508
28256WAT     H285011   6.113   6.448   2.485
28257WAT      O85012   4.219   0.553   2.251
28257WAT     H185013   4.171   0.476   2.208
28257WAT     H285014   4.156   0.629   2.266
28258WAT      O85015   0.385   0.979   7.536
28258WAT     H185016   0.367   0.970   7.438
28258WAT     H285017   0.477   1.016   7.550
28259WAT      O85018   2.990   8.106   1.743
28259WAT     H185019   2.920   8.068   1.803
28259WAT     H285020   2.984   8.206   1.744
28260WAT      O85021   6.815   3.130   6.905
28260WAT     H185022   6.888   3.168   6.961
28260WAT     H285023   6.840   3.038   6.875
28261WAT      O85024   5.626   8.320   5.729
28261WAT     H185025   5.649   8.346   5.635
28261WAT     H285026   5.527   8.302   5.735
28262WAT      O85027   9.167   7.726   7.560
28262WAT     H185028   9.154   7.750   7.464
28262WAT     H285029   9.091   7.760   7.614
28263WAT      O85030   6.309   5.717   3.756
28263WAT     H185031   6.388   5.656   3.757
28263WAT     H285032   6.225   5.665   3.772
28264WAT      O85033   6.768   8.291   2.855
28264WAT     H185034   6.853   8.299   2.907
28264WAT     H285035   6.787   8.252   2.765
28265WAT      O85036   8.344   1.937   6.744
28265WAT     H185037   8.278   1.910   6.813
28265WAT     H285038   8.437   1.922   6.779
28266WAT      O85039   0.680   4.828   5.780
28266WAT     H185040   0.587   4.842   5.814
28266WAT     H285041   0.679   4.755   5.711
28267WAT      O85042   1.451   3.520   4.042
28267WAT     H185043   1.392   3.566   4.108
28267WAT     H285044   1.437   3.560   3.951
28268WAT      O85045   7.039   8.369   9.161
28268WAT     H185046   7.024   8.391   9.258
28268WAT     H285047   6.973   8.418   9.105
28269WAT      O85048   1.825   1.346   1.562
28269WAT     H185049   1.814   1.392   1.650
28269WAT     H285050   1.792   1.252   1.568
28270WAT      O85051   7.099   8.289   3.819
28270WAT     H185052   7.087   8.305   3.722
28270WAT     H285053   7.073   8.195   3.841
28271WAT      O85054   1.253   1.203   3.290
28271WAT     H185055   1.286   1.112   3.312
28271WAT     H285056   1.251   1.259   3.374
28272WAT      O85057   8.316   6.136   1.133
28272WAT     H185058   8.236   6.135   1.074
28272WAT     H285059   8.382   6.203   1.100
28273WAT      O85060   8.868   9.263   6.738
28273WAT     H185061   8.905   9.249   6.647
28273WAT     H285062   8.923   9.212   6.805
28274WAT      O85063   2.370   6.421   1.105
28274WAT     H185064   2.447   6.360   1.123
28274WAT     H285065   2.376   6.457   1.011
28275WAT      O85066   0.220   9.769   3.130
28275WAT     H185067   0.228   9.687   3.187
28275WAT     H285068   0.169   9.746   3.047
28276WAT      O85069   4.034   8.545   5.700
28276WAT     H185070   4.042   8.536   5.799
28276WAT     H285071   4.109   8.601   5.665
28277WAT      O85072   1.173   5.173   7.678
28277WAT     H185073   1.171   5.152   7.776
28277WAT     H285074   1.084   5.153   7.637
28278WAT      O85075   2.756   4.081   2.102
28278WAT     H185076   2.692   4.078   2.179
28278WAT     H285077   2.840   4.033   2.127
28279WAT      O85078   6.734   2.910   5.181
28279WAT     H185079   6.662   2.965   5.139
28279WAT     H285080   6.772   2.847   5.113
28280WAT      O85081   9.554   5.454   3.292
28280WAT     H185082   9.476   5.474   3.352
28280WAT     H285083   9.608   5.537   3.278
28281WAT      O85084   0.007   1.659   9.621
28281WAT     H185085  -0.075   1.647   9.564
28281WAT     H285086   0.013   1.753   9.653
28282WAT      O85087   3.937   9.736   9.802
28282WAT     H185088   3.899   9.720   9.711
28282WAT     H285089   3.961   9.833   9.811
28283WAT      O85090   7.034   4.909   5.344
28283WAT     H185091   7.044   4.950   5.253
28283WAT     H285092   7.050   4.811   5.339
28284WAT      O85093   2.239   2.300   6.431
28284WAT     H185094   2.249   2.397   6.456
28284WAT     H285095   2.144   2.281   6.410
28285WAT      O85096   6.243   2.485   7.208
28285WAT     H185097   6.236   2.571   7.258
28285WAT     H285098   6.305   2.423   7.256
28286WAT      O85099   2.860   9.008   5.521
28286WAT     H185100   2.875   9.062   5.438
28286WAT     H285101   2.859   8.911   5.499
28287WAT      O85102   4.722   1.931   2.988
28287WAT     H185103   4.623   1.917   2.990
28287WAT     H285104   4.745   2.020   3.027
28288WAT      O85105   6.435   8.831   7.887
28288WAT     H185106   6.356   8.769   7.885
28288WAT     H285107   6.519   8.779   7.874
28289WAT      O85108   6.825   6.617   8.734
28289WAT     H185109   6.864   6.637   8.644
28289WAT     H285110   6.866   6.677   8.802
28290WAT      O85111   1.775   5.308   1.811
28290WAT     H185112   1.846   5.354   1.864
28290WAT     H285113   1.722   5.376   1.760
28291WAT      O85114   9.404   9.693   3.928
28291WAT     H185115   9.324   9.740   3.966
28291WAT     H285116   9.486   9.748   3.945
28292WAT      O85117   9.816   7.762   6.254
28292WAT     H185118   9.913   7.779   6.269
28292WAT     H285119   9.765   7.781   6.338
28293WAT      O85120   5.880   5.868   8.120
28293WAT     H185121   5.878   5.856   8.021
28293WAT     H285122   5.800   5.825   8.161
28294WAT      O85123   4.496   4.207   1.503
28294WAT     H185124   4.511   4.228   1.407
28294WAT     H285125   4.531   4.281   1.560
28295WAT      O85126   4.163   9.789   8.832
28295WAT     H185127   4.179   9.841   8.916
28295WAT     H285128   4.078   9.819   8.790
28296WAT      O85129   1.030   0.638   5.734
28296WAT     H185130   0.990   0.576   5.666
28296WAT     H285131   1.054   0.587   5.816
28297WAT      O85132   1.742   1.150   1.870
28297WAT     H185133   1.807   1.218   1.906
28297WAT     H285134   1.652   1.166   1.911
28298WAT      O85135   6.304   4.150   4.540
28298WAT     H185136   6.318   4.240   4.580
28298WAT     H285137   6.208   4.123   4.548
28299WAT      O85138   5.837   0.904   7.985
28299WAT     H185139   5.750   0.937   7.949
28299WAT     H285140   5.862   0.819   7.938
28300WAT      O85141   1.158   5.815   7.250
28300WAT     H185142   1.234   5.761   7.288
28300WAT     H285143   1.183   5.847   7.159
28301WAT      O85144   6.774   9.760   1.763
28301WAT     H185145   6.760   9.666   1.732
28301WAT     H285146   6.685   9.800   1.787
28302WAT      O85147   9.366   6.365   6.088
28302WAT     H185148   9.337   6.412   6.172
28302WAT     H285149   9.346   6.423   6.009
28303WAT      O85150   1.900   5.586   8.928
28303WAT     H185151   1.909   5.647   9.007
28303WAT     H285152   1.858   5.636   8.852
28304WAT      O85153   4.396   6.603   2.235
28304WAT     H185154   4.365   6.680   2.291
28304WAT     H285155   4.492   6.616   2.211
28305WAT      O85156   6.262   9.248   6.659
28305WAT     H185157   6.229   9.282   6.747
28305WAT     H285158   6.306   9.160   6.671
28306WAT      O85159   9.634   6.784   7.908
28306WAT     H185160   9.667   6.729   7.984
28306WAT     H285161   9.673   6.877   7.914
28307WAT      O85162   7.702   9.251   5.633
28307WAT     H185163   7.767   9.300   5.691
28307WAT     H285164   7.624   9.310   5.613
28308WAT      O85165   4.508   7.272   1.909
28308WAT     H185166   4.595   7.313   1.881
28308WAT     H285167   4.522   7.216   1.990
28309WAT      O85168   8.686   9.232   3.889
28309WAT     H185169   8.721   9.326   3.885
28309WAT     H285170   8.661   9.210   3.983
28310WAT      O85171   3.523   9.659   8.322
28310WAT     H185172   3.444   9.600   8.332
28310WAT     H285173   3.536   9.680   8.225
28311WAT      O85174   6.469   6.173   8.759
28311WAT     H185175   6.486   6.242   8.830
28311WAT     H285176   6.384   6.125   8.779
28312WAT      O85177   3.528   1.393   7.293
28312WAT     H185178   3.437   1.421   7.263
28312WAT     H285179   3.523   1.302   7.335
28313WAT      O85180   2.611   4.472   0.306
28313WAT     H185181   2.700   4.465   0.262
28313WAT     H285182   2.599   4.563   0.344
28314WAT      O85183   7.601   8.578   9.457
28314WAT     H185184   7.541   8.651   9.424
28314WAT     H285185   7.629   8.598   9.551
28315WAT      O85186   0.060   8.969   4.393
28315WAT     H185187   0.050   9.068   4.402
28315WAT     H285188   0.059   8.944   4.297
28316WAT      O85189   2.898   4.624   4.894
28316WAT     H185190   2.930   4.585   4.808
28316WAT     H285191   2.830   4.564   4.935
28317WAT      O85192   2.930   0.171   2.211
28317WAT     H185193   2.866   0.153   2.285
28317WAT     H285194   2.882   0.166   2.124
28318WAT      O85195   3.245   4.230   8.431
28318WAT     H185196   3.181   4.185   8.494
28318WAT     H285197   3.235   4.329   8.438
28319WAT      O85198   4.017   5.710   5.446
28319WAT     H185199   4.022   5.674   5.539
28319WAT     H285200   4.021   5.635   5.381
28320WAT      O85201   2.890   2.568   1.766
28320WAT     H185202   2.879   2.656   1.719
28320WAT     H285203   2.904   2.496   1.698
28321WAT      O85204   5.540   0.263   4.537
28321WAT     H185205   5.460   0.306   4.580
28321WAT     H285206   5.620   0.277   4.595
28322WAT      O85207   1.036   7.484   5.804
28322WAT     H185208   1.080   7.491   5.893
28322WAT     H285209   0.950   7.535   5.805
28323WAT      O85210   2.055   8.578   8.597
28323WAT     H185211   2.060   8.557   8.694
28323WAT     H285212   2.044   8.493   8.545
28324WAT      O85213   3.902   0.422   2.669
28324WAT     H185214   3.873   0.422   2.573
28324WAT     H285215   3.844   0.485   2.721
28325WAT      O85216   1.715   1.319   6.587
28325WAT     H185217   1.680   1.257   6.516
28325WAT     H285218   1.803   1.357   6.558
28326WAT      O85219   4.172   7.586   6.807
28326WAT     H185220   4.176   7.632   6.895
28326WAT     H285221   4.202   7.491   6.817
28327WAT      O85222   5.542   1.943   8.187
28327WAT     H185223   5.576   2.014   8.125
28327WAT     H285224   5.619   1.894   8.227
28328WAT      O85225   8.552   9.604   9.109
28328WAT     H185226   8.509   9.542   9.175
28328WAT     H285227   8.642   9.631   9.143
28329WAT      O85228   4.785   2.741   1.068
28329WAT     H185229   4.733   2.704   1.144
28329WAT     H285230   4.746   2.709   0.982
28330WAT      O85231   3.281   4.897   1.307
28330WAT     H185232   3.377   4.903   1.279
28330WAT     H285233   3.243   4.989   1.316
28331WAT      O85234   2.293   8.377   1.496
28331WAT     H185235   2.390   8.394   1.516
28331WAT     H285236   2.239   8.458   1.519
28332WAT      O85237   0.028   6.080   3.838
28332WAT     H185238  -0.035   6.112   3.768
28332WAT     H285239   0.096   6.019   3.797
28333WAT      O85240   6.597   1.070   1.551
28333WAT     H185241   6.579   1.130   1.629
28333WAT     H285242   6.642   1.122   1.478
28334WAT      O85243   9.037   9.552   2.562
28334WAT     H185244   8.957   9.613   2.569
28334WAT     H285245   9.055   9.510   2.651
28335WAT      O85246   5.548   2.088   7.079
28335WAT     H185247   5.457   2.047   7.087
28335WAT     H285248   5.594   2.085   7.168
28336WAT      O85249   1.999   9.824   4.009
28336WAT     H185250   2.036   9.796   4.098
28336WAT     H285251   1.977   9.921   4.012
28337WAT      O85252   3.384   8.661   3.742
28337WAT     H185253   3.455   8.726   3.771
28337WAT     H285254   3.353   8.685   3.650
28338WAT      O85255   9.054   3.217   2.653
28338WAT     H185256   9.117   3.155   2.700
28338WAT     H285257   9.089   3.310   2.660
28339WAT      O85258   4.890   1.711   6.428
28339WAT     H185259   4.882   1.809   6.406
28339WAT     H285260   4.916   1.700   6.523
28340WAT      O85261   4.977   0.243   4.903
28340WAT     H185262   4.974   0.167   4.839
28340WAT     H285263   4.965   0.329   4.853
28341WAT      O85264   2.395   6.542   5.477
28341WAT     H185265   2.460   6.505   5.411
28341WAT     H285266   2.423   6.517   5.570
28342WAT      O85267   8.966   1.301   1.993
28342WAT     H185268   9.052   1.352   1.990
28342WAT     H285269   8.965   1.242   2.074
28343WAT      O85270   7.351   7.033   9.191
28343WAT     H185271   7.446   7.047   9.163
28343WAT     H285272   7.294   7.104   9.150
28344WAT      O85273   1.513   0.097   1.564
28344WAT     H185274   1.456   0.018   1.587
28344WAT     H285275   1.461   0.181   1.579
28345WAT      O85276   5.948   6.499   9.069
28345WAT     H185277   5.947   6.595   9.095
28345WAT     H285278   5.994   6.488   8.980
28346WAT      O85279   2.928   9.012   2.980
28346WAT     H185280   2.872   8.934   2.952
28346WAT     H285281   3.011   9.015   2.925
28347WAT      O85282   4.326   2.004   7.055
28347WAT     H185283   4.400   1.937   7.057
28347WAT     H285284   4.364   2.095   7.035
28348WAT      O85285   5.145   7.657   5.769
28348WAT     H185286   5.051   7.692   5.771
28348WAT     H285287   5.206   7.721   5.815
28349WAT      O85288   3.571   8.747   5.605
28349WAT     H185289   3.654   8.699   5.633
28349WAT     H285290   3.554   8.824   5.668
28350WAT      O85291   9.089   2.747   3.564
28350WAT     H185292   9.103   2.728   3.661
28350WAT     H285293   9.097   2.846   3.548
28351WAT      O85294   0.840   0.163   5.813
28351WAT     H185295   0.806   0.257   5.812
28351WAT     H285296   0.891   0.147   5.898
28352WAT      O85297   3.870   8.492   9.459
28352WAT     H185298   3.845   8.527   9.550
28352WAT     H285299   3.787   8.474   9.406
28353WAT      O85300   7.114   8.755   9.385
28353WAT     H185301   7.116   8.756   9.485
28353WAT     H285302   7.021   8.739   9.354
28354WAT      O85303   7.355   1.268   8.694
28354WAT     H185304   7.276   1.206   8.693
28354WAT     H285305   7.323   1.361   8.710
28355WAT      O85306   0.848   7.807   6.500
28355WAT     H185307   0.896   7.755   6.429
28355WAT     H285308   0.749   7.789   6.493
28356WAT      O85309   6.382   5.511   0.357
28356WAT     H185310   6.282   5.506   0.356
28356WAT     H285311   6.416   5.491   0.449
28357WAT      O85312   0.684   3.224   5.660
28357WAT     H185313   0.683   3.294   5.589
28357WAT     H285314   0.779   3.203   5.685
28358WAT      O85315   5.950   3.236   9.158
28358WAT     H185316   5.999   3.311   9.202
28358WAT     H285317   6.014   3.164   9.133
28359WAT      O85318   9.640   2.912   7.134
28359WAT     H185319   9.592   2.999   7.133
28359WAT     H285320   9.626   2.865   7.047
28360WAT      O85321   2.152   1.430   2.790
28360WAT     H185322   2.136   1.383   2.877
28360WAT     H285323   2.116   1.523   2.795
28361WAT      O85324   0.316   4.430   4.022
28361WAT     H185325   0.399   4.440   4.076
28361WAT     H285326   0.338   4.386   3.935
28362WAT      O85327   3.891   1.563   9.104
28362WAT     H185328   3.859   1.618   9.027
28362WAT     H285329   3.926   1.476   9.070
28363WAT      O85330   9.257   4.601   7.102
28363WAT     H185331   9.326   4.629   7.035
28363WAT     H285332   9.287   4.518   7.148
28364WAT      O85333   6.223   9.168   8.524
28364WAT     H185334   6.245   9.261   8.554
28364WAT     H285335   6.127   9.149   8.540
28365WAT      O85336   6.621   0.982   8.496
28365WAT     H185337   6.651   1.077   8.487
28365WAT     H285338   6.664   0.941   8.577
28366WAT      O85339   2.708   7.401   9.390
28366WAT     H185340   2.652   7.344   9.330
28366WAT     H285341   2.663   7.409   9.479
28367WAT      O85342   8.582   6.671   8.600
28367WAT     H185343   8.622   6.623   8.678
28367WAT     H285344   8.506   6.617   8.563
28368WAT      O85345   8.240   4.166   1.968
28368WAT     H185346   8.318   4.204   1.917
28368WAT     H285347   8.155   4.194   1.925
28369WAT      O85348   0.049   3.985   3.707
28369WAT     H185349   0.006   3.996   3.617
28369WAT     H285350   0.082   4.074   3.739
28370WAT      O85351   0.798   5.103   9.716
28370WAT     H185352   0.887   5.095   9.672
28370WAT     H285353   0.731   5.045   9.669
28371WAT      O85354   3.153   0.116   2.662
28371WAT     H185355   3.112   0.028   2.687
28371WAT     H285356   3.083   0.176   2.623
28372WAT      O85357   3.844   5.590   8.225
28372WAT     H185358   3.894   5.563   8.143
28372WAT     H285359   3.901   5.653   8.279
28373WAT      O85360   6.924   8.430   3.473
28373WAT     H185361   6.880   8.346   3.504
28373WAT     H285362   6.892   8.507   3.529
28374WAT      O85363   9.727   7.052   9.067
28374WAT     H185364   9.690   6.989   9.136
28374WAT     H285365   9.654   7.113   9.037
28375WAT      O85366   9.051   4.222   5.236
28375WAT     H185367   8.966   4.179   5.207
28375WAT     H285368   9.127   4.159   5.222
28376WAT      O85369   9.391   1.056   7.279
28376WAT     H185370   9.421   0.962   7.286
28376WAT     H285371   9.465   1.118   7.307
28377WAT      O85372   0.852   0.161   1.992
28377WAT     H185373   0.766   0.208   2.010
28377WAT     H285374   0.903   0.152   2.077
28378WAT      O85375   5.011   7.748   3.569
28378WAT     H185376   5.063   7.665   3.550
28378WAT     H285377   4.931   7.725   3.624
28379WAT      O85378   4.000   7.909   1.645
28379WAT     H185379   3.979   7.824   1.692
28379WAT     H285380   4.053   7.890   1.563
28380WAT      O85381   3.836   9.771   7.556
28380WAT     H185382   3.742   9.798   7.532
28380WAT     H285383   3.892   9.771   7.473
28381WAT      O85384   4.481   6.401   8.155
28381WAT     H185385   4.430   6.448   8.227
28381WAT     H285386   4.564   6.453   8.134
28382WAT      O85387   9.726   8.576   4.347
28382WAT     H185388   9.784   8.535   4.418
28382WAT     H285389   9.744   8.531   4.260
28383WAT      O85390   0.466   2.273   8.404
28383WAT     H185391   0.412   2.265   8.487
28383WAT     H285392   0.550   2.325   8.423
28384WAT      O85393   9.805   3.590   2.833
28384WAT     H185394   9.899   3.608   2.805
28384WAT     H285395   9.794   3.493   2.853
28385WAT      O85396   8.591   5.268   0.278
28385WAT     H185397   8.516   5.238   0.337
28385WAT     H285398   8.661   5.312   0.333
28386WAT      O85399   7.852   7.924   4.523
28386WAT     H185400   7.871   7.849   4.586
28386WAT     H285401   7.753   7.932   4.510
28387WAT      O85402   7.569   1.067   9.055
28387WAT     H185403   7.555   1.154   9.009
28387WAT     H285404   7.531   1.071   9.147
28388WAT      O85405   4.814   1.170   1.365
28388WAT     H185406   4.914   1.179   1.371
28388WAT     H285407   4.774   1.258   1.342
28389WAT      O85408   0.999   0.623   1.822
28389WAT     H185409   0.968   0.592   1.732
28389WAT     H285410   0.981   0.721   1.831
28390WAT      O85411   7.125   4.048   8.616
28390WAT     H185412   7.092   4.032   8.709
28390WAT     H285413   7.197   4.117   8.618
28391WAT      O85414   3.164   7.410   7.437
28391WAT     H185415   3.234   7.340   7.427
28391WAT     H285416   3.081   7.369   7.476
28392WAT      O85417   5.937   8.845   3.975
28392WAT     H185418   5.979   8.799   3.897
28392WAT     H285419   6.001   8.845   4.052
28393WAT      O85420   5.744   9.299   9.819
28393WAT     H185421   5.819   9.303   9.753
28393WAT     H285422   5.690   9.217   9.801
28394WAT      O85423   2.600   0.814   4.876
28394WAT     H185424   2.585   0.845   4.782
28394WAT     H285425   2.599   0.892   4.937
28395WAT      O85426   8.347   6.562   2.901
28395WAT     H185427   8.394   6.588   2.985
28395WAT     H285428   8.348   6.639   2.837
28396WAT      O85429   5.029   1.277   9.261
28396WAT     H185430   5.087   1.337   9.206
28396WAT     H285431   5.009   1.194   9.209
28397WAT      O85432   5.716   5.918   9.474
28397WAT     H185433   5.737   6.015   9.461
28397WAT     H285434   5.622   5.900   9.446
28398WAT      O85435   7.885   3.864   5.999
28398WAT     H185436   7.865   3.775   5.956
28398WAT     H285437   7.855   3.863   6.094
28399WAT      O85438   7.249   9.512   2.880
28399WAT     H185439   7.213   9.605   2.873
28399WAT     H285440   7.289   9.485   2.793
28400WAT      O85441   1.226   6.307   8.054
28400WAT     H185442   1.181   6.395   8.070
28400WAT     H285443   1.207   6.246   8.130
28401WAT      O85444   4.925   3.245   4.059
28401WAT     H185445   4.892   3.329   4.015
28401WAT     H285446   5.009   3.264   4.110
28402WAT      O85447   8.481   5.627   8.666
28402WAT     H185448   8.535   5.615   8.582
28402WAT     H285449   8.517   5.704   8.718
28403WAT      O85450   7.166   7.206   0.484
28403WAT     H185451   7.080   7.257   0.476
28403WAT     H285452   7.164   7.126   0.425
28404WAT      O85453   8.767   4.025   7.195
28404WAT     H185454   8.810   3.940   7.163
28404WAT     H285455   8.832   4.100   7.188
28405WAT      O85456   7.142   5.823   0.585
28405WAT     H185457   7.141   5.915   0.624
28405WAT     H285458   7.057   5.806   0.536
28406WAT      O85459   0.577   6.291   4.766
28406WAT     H185460   0.658   6.349   4.774
28406WAT     H285461   0.501   6.345   4.728
28407WAT      O85462   1.431   0.728   9.371
28407WAT     H185463   1.390   0.779   9.448
28407WAT     H285464   1.511   0.677   9.404
28408WAT      O85465   5.407   9.335   4.928
28408WAT     H185466   5.505   9.350   4.939
28408WAT     H285467   5.366   9.415   4.884
28409WAT      O85468   6.839   7.047   6.934
28409WAT     H185469   6.758   7.010   6.977
28409WAT     H285470   6.866   7.132   6.981
28410WAT      O85471   8.844   9.193   2.555
28410WAT     H185472   8.829   9.238   2.643
28410WAT     H285473   8.888   9.258   2.492
28411WAT      O85474   3.833   9.069   8.071
28411WAT     H185475   3.901   9.072   8.144
28411WAT     H285476   3.843   8.985   8.019
28412WAT      O85477   4.258   5.682   3.138
28412WAT     H185478   4.343   5.630   3.132
28412WAT     H285479   4.272   5.774   3.102
28413WAT      O85480   1.562   9.402   0.379
28413WAT     H185481   1.642   9.458   0.359
28413WAT     H285482   1.482   9.462   0.387
28414WAT      O85483   1.883   6.932   1.371
28414WAT     H185484   1.842   7.002   1.429
28414WAT     H285485   1.982   6.945   1.368
28415WAT      O85486   7.476   6.703   3.538
28415WAT     H185487   7.481   6.648   3.455
28415WAT     H285488   7.478   6.800   3.515
28416WAT      O85489   0.937   8.291   5.519
28416WAT     H185490   0.985   8.301   5.606
28416WAT     H285491   0.924   8.380   5.476
28417WAT      O85492   4.195   7.348   0.257
28417WAT     H185493   4.203   7.281   0.183
28417WAT     H285494   4.255   7.322   0.332
28418WAT      O85495   8.588   0.552   3.063
28418WAT     H185496   8.669   0.560   3.006
28418WAT     H285497   8.596   0.614   3.142
28419WAT      O85498   7.492   0.127   8.325
28419WAT     H185499   7.544   0.051   8.363
28419WAT     H285500   7.462   0.103   8.232
28420WAT      O85501   5.641   5.366   1.807
28420WAT     H185502   5.733   5.391   1.777
28420WAT     H285503   5.629   5.389   1.903
28421WAT      O85504   9.242   5.394   3.227
28421WAT     H185505   9.250   5.295   3.238
28421WAT     H285506   9.147   5.418   3.207
28422WAT      O85507   0.284   5.558   1.684
28422WAT     H185508   0.332   5.644   1.702
28422WAT     H285509   0.207   5.576   1.622
28423WAT      O85510   3.547   8.797   3.341
28423WAT     H185511   3.569   8.883   3.387
28423WAT     H285512   3.569   8.720   3.401
28424WAT      O85513   1.171   1.620   8.336
28424WAT     H185514   1.263   1.651   8.311
28424WAT     H285515   1.103   1.681   8.296
28425WAT      O85516   0.116   1.054   0.300
28425WAT     H185517   0.202   1.041   0.250
28425WAT     H285518   0.131   1.037   0.397
28426WAT      O85519   9.527   6.726   2.840
28426WAT     H185520   9.493   6.635   2.862
28426WAT     H285521   9.480   6.794   2.896
28427WAT      O85522   7.511   5.360   0.439
28427WAT     H185523   7.492   5.378   0.536
28427WAT     H285524   7.498   5.262   0.421
28428WAT      O85525   8.952   5.824   0.532
28428WAT     H185526   8.872   5.832   0.591
28428WAT     H285527   9.029   5.789   0.586
28429WAT      O85528   8.690   2.170   6.962
28429WAT     H185529   8.608   2.199   7.011
28429WAT     H285530   8.665   2.139   6.870
28430WAT      O85531   4.359   2.778   9.372
28430WAT     H185532   4.331   2.853   9.432
28430WAT     H285533   4.382   2.814   9.282
28431WAT      O85534   8.904   4.656   6.613
28431WAT     H185535   8.846   4.579   6.642
28431WAT     H285536   9.000   4.630   6.619
28432WAT      O85537   2.214   5.032   3.264
28432WAT     H185538   2.263   4.957   3.309
28432WAT     H285539   2.151   4.996   3.196
28433WAT      O85540   0.150   4.066   4.181
28433WAT     H185541   0.154   4.052   4.082
28433WAT     H285542   0.210   4.000   4.226
28434WAT      O85543   9.466   2.105   4.252
28434WAT     H185544   9.463   2.021   4.198
28434WAT     H285545   9.549   2.156   4.229
28435WAT      O85546   5.785   0.088   1.905
28435WAT     H185547   5.873   0.042   1.898
28435WAT     H285548   5.721   0.049   1.840
28436WAT      O85549   0.978   5.227   1.110
28436WAT     H185550   1.060   5.181   1.144
28436WAT     H285551   1.004   5.291   1.037
28437WAT      O85552   2.071   4.332   9.533
28437WAT     H185553   2.156   4.310   9.581
28437WAT     H285554   2.075   4.426   9.501
28438WAT      O85555   1.372   4.502   6.135
28438WAT     H185556   1.323   4.440   6.197
28438WAT     H285557   1.336   4.491   6.043
28439WAT      O85558   8.719   0.606   7.123
28439WAT     H185559   8.740   0.522   7.074
28439WAT     H285560   8.776   0.681   7.088
28440WAT      O85561   2.511   5.190   4.171
28440WAT     H185562   2.516   5.091   4.185
28440WAT     H285563   2.572   5.216   4.096
28441WAT      O85564   6.084   3.724   4.727
28441WAT     H185565   6.118   3.735   4.633
28441WAT     H285566   5.985   3.717   4.726
28442WAT      O85567   3.118   5.176   4.390
28442WAT     H185568   3.200   5.174   4.334
28442WAT     H285569   3.130   5.117   4.469
28443WAT      O85570   9.585   7.951   0.663
28443WAT     H185571   9.677   7.943   0.625
28443WAT     H285572   9.557   8.047   0.663
28444WAT      O85573   4.815   6.054   1.005
28444WAT     H185574   4.737   5.992   1.012
28444WAT     H285575   4.811   6.120   1.080
28445WAT      O85576   9.762   5.953   1.541
28445WAT     H185577   9.751   5.913   1.450
28445WAT     H285578   9.702   5.905   1.605
28446WAT      O85579   2.438   0.125   5.672
28446WAT     H185580   2.511   0.157   5.732
28446WAT     H285581   2.465   0.137   5.577
28447WAT      O85582   8.722   2.578   2.065
28447WAT     H185583   8.671   2.663   2.051
28447WAT     H285584   8.740   2.534   1.977
28448WAT      O85585   3.407   0.781   1.942
28448WAT     H185586   3.351   0.785   1.859
28448WAT     H285587   3.466   0.700   1.938
28449WAT      O85588   3.747   3.861   1.589
28449WAT     H185589   3.735   3.914   1.673
28449WAT     H285590   3.703   3.772   1.599
28450WAT      O85591   5.823   3.937   0.351
28450WAT     H185592   5.736   3.953   0.305
28450WAT     H285593   5.877   4.021   0.352
28451WAT      O85594   9.588   6.404   3.361
28451WAT     H185595   9.507   6.360   3.401
28451WAT     H285596   9.559   6.483   3.307
28452WAT      O85597   8.877   1.807   5.627
28452WAT     H185598   8.932   1.742   5.574
28452WAT     H285599   8.780   1.789   5.610
28453WAT      O85600   7.357   3.066   4.804
28453WAT     H185601   7.393   3.028   4.890
28453WAT     H285602   7.325   2.991   4.747
28454WAT      O85603   7.122   8.984   6.076
28454WAT     H185604   7.113   8.884   6.072
28454WAT     H285605   7.055   9.026   6.015
28455WAT      O85606   7.990   0.893   6.244
28455WAT     H185607   8.057   0.955   6.204
28455WAT     H285608   8.015   0.799   6.223
28456WAT      O85609   9.065   8.721   4.923
28456WAT     H185610   9.121   8.780   4.982
28456WAT     H285611   8.972   8.716   4.959
28457WAT      O85612   6.507   2.216   5.773
28457WAT     H185613   6.509   2.246   5.868
28457WAT     H285614   6.457   2.130   5.765
28458WAT      O85615   6.187   7.903   2.464
28458WAT     H185616   6.187   7.938   2.557
28458WAT     H285617   6.101   7.856   2.445
28459WAT      O85618   5.329   4.181   0.821
28459WAT     H185619   5.420   4.164   0.781
28459WAT     H285620   5.269   4.104   0.799
28460WAT      O85621   1.800   7.557   3.787
28460WAT     H185622   1.726   7.622   3.768
28460WAT     H285623   1.888   7.605   3.784
28461WAT      O85624   7.768   5.792   1.027
28461WAT     H185625   7.716   5.875   1.043
28461WAT     H285626   7.852   5.793   1.082
28462WAT      O85627   1.024   1.375   2.574
28462WAT     H185628   1.105   1.358   2.518
28462WAT     H285629   0.997   1.471   2.565
28463WAT      O85630   8.115   9.281   9.462
28463WAT     H185631   8.188   9.350   9.457
28463WAT     H285632   8.154   9.192   9.484
28464WAT      O85633   9.860   8.543   2.221
28464WAT     H185634   9.840   8.464   2.278
28464WAT     H285635   9.897   8.616   2.278
28465WAT      O85636   9.501   2.831   0.704
28465WAT     H185637   9.547   2.817   0.791
28465WAT     H285638   9.402   2.828   0.718
28466WAT      O85639   2.616   3.253   1.975
28466WAT     H185640   2.591   3.350   1.979
28466WAT     H285641   2.661   3.227   2.060
28467WAT      O85642   2.684   0.714   6.873
28467WAT     H185643   2.661   0.740   6.967
28467WAT     H285644   2.765   0.764   6.844
28468WAT      O85645   1.379   4.354   3.636
28468WAT     H185646   1.338   4.313   3.553
28468WAT     H285647   1.415   4.281   3.694
28469WAT      O85648   2.761   8.508   3.652
28469WAT     H185649   2.837   8.451   3.620
28469WAT     H285650   2.787   8.604   3.648
28470WAT      O85651   0.226   2.384   3.327
28470WAT     H185652   0.175   2.382   3.413
28470WAT     H285653   0.169   2.344   3.254
28471WAT      O85654   3.857   9.784   4.399
28471WAT     H185655   3.924   9.777   4.473
28471WAT     H285656   3.772   9.741   4.428
28472WAT      O85657   1.125   9.135   9.712
28472WAT     H185658   1.136   9.055   9.652
28472WAT     H285659   1.067   9.110   9.790
28473WAT      O85660   0.363   4.105   3.568
28473WAT     H185661   0.389   4.090   3.472
28473WAT     H285662   0.295   4.178   3.572
28474WAT      O85663   3.785   9.557   0.281
28474WAT     H185664   3.829   9.644   0.261
28474WAT     H285665   3.834   9.483   0.236
28475WAT      O85666   0.553   2.874   4.219
28475WAT     H185667   0.605   2.801   4.175
28475WAT     H285668   0.608   2.958   4.222
28476WAT      O85669   7.912   4.775   9.277
28476WAT     H185670   7.983   4.730   9.223
28476WAT     H285671   7.894   4.722   9.359
28477WAT      O85672   1.041   0.844   4.810
28477WAT     H185673   1.130   0.800   4.820
28477WAT     H285674   1.051   0.927   4.755
28478WAT      O85675   8.577   4.966   8.051
28478WAT     H185676   8.516   4.897   8.090
28478WAT     H285677   8.548   5.057   8.082
28479WAT      O85678   1.781   3.392   6.895
28479WAT     H185679   1.869   3.354   6.924
28479WAT     H285680   1.748   3.456   6.964
28480WAT      O85681   0.072   2.911   0.859
28480WAT     H185682   0.153   2.854   0.850
28480WAT     H285683   0.092   3.004   0.828
28481WAT      O85684   0.107   3.096   7.705
28481WAT     H185685   0.187   3.109   7.764
28481WAT     H285686   0.122   3.017   7.646
28482WAT      O85687   9.339   4.593   2.922
28482WAT     H185688   9.335   4.625   3.017
28482WAT     H285689   9.248   4.563   2.893
28483WAT      O85690   4.232   3.585   0.086
28483WAT     H185691   4.328   3.610   0.093
28483WAT     H285692   4.197   3.609  -0.005
28484WAT      O85693   1.781   1.351   0.101
28484WAT     H185694   1.684   1.324   0.105
28484WAT     H285695   1.827   1.299   0.029
28485WAT      O85696   8.638   8.864   4.697
28485WAT     H185697   8.610   8.788   4.757
28485WAT     H285698   8.579   8.866   4.617
28486WAT      O85699   5.134   1.922   5.347
28486WAT     H185700   5.223   1.967   5.354
28486WAT     H285701   5.119   1.865   5.427
28487WAT      O85702   3.076   7.073   2.877
28487WAT     H185703   3.066   7.108   2.970
28487WAT     H285704   3.005   7.113   2.819
28488WAT      O85705   4.918   4.944   7.234
28488WAT     H185706   4.886   4.873   7.297
28488WAT     H285707   4.893   5.034   7.269
28489WAT      O85708   5.902   1.553   9.129
28489WAT     H185709   5.841   1.474   9.133
28489WAT     H285710   5.904   1.589   9.035
28490WAT      O85711   5.528   2.312   6.298
28490WAT     H185712   5.452   2.354   6.347
28490WAT     H285713   5.494   2.233   6.246
28491WAT      O85714   2.040   7.010   7.811
28491WAT     H185715   1.973   6.988   7.740
28491WAT     H285716   1.995   7.054   7.888
28492WAT      O85717   5.462   7.654   4.440
28492WAT     H185718   5.556   7.627   4.457
28492WAT     H285719   5.422   7.593   4.371
28493WAT      O85720   2.290   3.399   1.250
28493WAT     H185721   2.332   3.427   1.164
28493WAT     H285722   2.344   3.434   1.326
28494WAT      O85723   6.754   0.521   6.165
28494WAT     H185724   6.662   0.513   6.125
28494WAT     H285725   6.748   0.569   6.253
28495WAT      O85726   3.532   2.348   5.046
28495WAT     H185727   3.530   2.288   5.126
28495WAT     H285728   3.492   2.301   4.967
28496WAT      O85729   4.014   8.888   5.017
28496WAT     H185730   3.937   8.949   5.038
28496WAT     H285731   4.081   8.892   5.090
28497WAT      O85732   6.572   7.830   4.063
28497WAT     H185733   6.609   7.870   4.146
28497WAT     H285734   6.641   7.774   4.018
28498WAT      O85735   3.282   4.453   0.640
28498WAT     H185736   3.213   4.380   0.644
28498WAT     H285737   3.253   4.523   0.575
28499WAT      O85738   5.825   1.850   7.022
28499WAT     H185739   5.884   1.801   6.959
28499WAT     H285740   5.738   1.870   6.978
28500WAT      O85741   2.411   7.209   8.833
28500WAT     H185742   2.330   7.215   8.775
28500WAT     H285743   2.486   7.169   8.781
28501WAT      O85744   2.447   6.855   4.960
28501WAT     H185745   2.417   6.941   5.000
28501WAT     H285746   2.439   6.782   5.028
28502WAT      O85747   5.090   6.111   3.926
28502WAT     H185748   5.119   6.022   3.889
28502WAT     H285749   4.995   6.129   3.899
28503WAT      O85750   2.396   6.749   1.785
28503WAT     H185751   2.474   6.750   1.722
28503WAT     H285752   2.311   6.756   1.733
28504WAT      O85753   1.773   7.017   2.559
28504WAT     H185754   1.867   6.990   2.579
28504WAT     H285755   1.716   6.936   2.549
28505WAT      O85756   7.515   3.738   4.581
28505WAT     H185757   7.449   3.726   4.655
28505WAT     H285758   7.471   3.717   4.494
28506WAT      O85759   4.106   3.787   0.252
28506WAT     H185760   4.062   3.853   0.191
28506WAT     H285761   4.138   3.708   0.199
28507WAT      O85762   5.637   1.098   4.905
28507WAT     H185763   5.584   1.044   4.840
28507WAT     H285764   5.636   1.052   4.994
28508WAT      O85765   7.272   6.063   2.113
28508WAT     H185766   7.195   6.055   2.050
28508WAT     H285767   7.237   6.088   2.204
28509WAT      O85768   7.491   1.801   3.508
28509WAT     H185769   7.524   1.865   3.577
28509WAT     H285770   7.484   1.848   3.420
28510WAT      O85771   0.958   6.630   1.853
28510WAT     H185772   0.938   6.631   1.951
28510WAT     H285773   0.878   6.597   1.803
28511WAT      O85774   9.546   3.959   6.033
28511WAT     H185775   9.533   4.058   6.036
28511WAT     H285776   9.550   3.929   5.938
28512WAT      O85777   8.646   9.255   6.391
28512WAT     H185778   8.570   9.253   6.455
28512WAT     H285779   8.647   9.342   6.341
28513WAT      O85780   9.096   8.520   6.381
28513WAT     H185781   9.096   8.616   6.352
28513WAT     H285782   9.166   8.470   6.331
28514WAT      O85783   2.442   8.043   5.908
28514WAT     H185784   2.465   8.139   5.924
28514WAT     H285785   2.371   8.014   5.972
28515WAT      O85786   6.786   1.433   2.312
28515WAT     H185787   6.835   1.379   2.380
28515WAT     H285788   6.840   1.514   2.288
28516WAT      O85789   1.110   5.413   0.915
28516WAT     H185790   1.121   5.512   0.922
28516WAT     H285791   1.020   5.392   0.880
28517WAT      O85792   1.140   6.205   0.646
28517WAT     H185793   1.046   6.214   0.613
28517WAT     H285794   1.170   6.292   0.684
28518WAT      O85795   8.036   3.286   8.509
28518WAT     H185796   7.955   3.258   8.560
28518WAT     H285797   8.109   3.310   8.574
28519WAT      O85798   6.131   6.257   6.434
28519WAT     H185799   6.209   6.282   6.491
28519WAT     H285800   6.086   6.341   6.402
28520WAT      O85801   0.816   1.783   7.312
28520WAT     H185802   0.776   1.705   7.263
28520WAT     H285803   0.889   1.750   7.372
28521WAT      O85804   7.763   1.145   3.706
28521WAT     H185805   7.843   1.191   3.742
28521WAT     H285806   7.786   1.100   3.619
28522WAT      O85807   1.619   4.209   0.634
28522WAT     H185808   1.555   4.139   0.602
28522WAT     H285809   1.713   4.174   0.628
28523WAT      O85810   1.868   2.393   3.627
28523WAT     H185811   1.784   2.374   3.578
28523WAT     H285812   1.946   2.360   3.574
28524WAT      O85813   9.453   6.341   0.220
28524WAT     H185814   9.424   6.247   0.237
28524WAT     H285815   9.553   6.343   0.207
28525WAT      O85816   6.300   6.089   9.846
28525WAT     H185817   6.387   6.139   9.853
28525WAT     H285818   6.313   6.005   9.794
28526WAT      O85819   7.448   0.859   1.793
28526WAT     H185820   7.544   0.843   1.770
28526WAT     H285821   7.404   0.772   1.815
28527WAT      O85822   7.654   0.832   1.127
28527WAT     H185823   7.598   0.787   1.196
28527WAT     H285824   7.602   0.905   1.083
28528WAT      O85825   1.613   4.164   0.193
28528WAT     H185826   1.635   4.069   0.170
28528WAT     H285827   1.690   4.204   0.242
28529WAT      O85828   8.207   1.449   9.740
28529WAT     H185829   8.212   1.537   9.694
28529WAT     H285830   8.147   1.387   9.689
28530WAT      O85831   1.235   2.012   6.164
28530WAT     H185832   1.234   2.028   6.065
28530WAT     H285833   1.304   2.072   6.206
28531WAT      O85834   8.849   6.664   6.603
28531WAT     H185835   8.814   6.754   6.631
28531WAT     H285836   8.782   6.620   6.543
28532WAT      O85837   0.798   0.478   1.164
28532WAT     H185838   0.864   0.536   1.116
28532WAT     H285839   0.730   0.445   1.099
28533WAT      O85840   6.860   9.709   9.875
28533WAT     H185841   6.940   9.755   9.912
28533WAT     H285842   6.777   9.760   9.897
28534WAT      O85843   7.706   6.521   5.823
28534WAT     H185844   7.782   6.586   5.819
28534WAT     H285845   7.669   6.518   5.916
28535WAT      O85846   1.286   9.817   7.522
28535WAT     H185847   1.274   9.766   7.437
28535WAT     H285848   1.224   9.780   7.592
28536WAT      O85849   5.581   4.678   3.586
28536WAT     H185850   5.616   4.584   3.577
28536WAT     H285851   5.657   4.740   3.601
28537WAT      O85852   8.941   1.065   7.672
28537WAT     H185853   8.889   1.015   7.603
28537WAT     H285854   8.885   1.140   7.708
28538WAT      O85855   5.581   8.972   3.195
28538WAT     H185856   5.483   8.952   3.196
28538WAT     H285857   5.626   8.915   3.126
28539WAT      O85858   7.683   0.382   5.290
28539WAT     H185859   7.734   0.376   5.376
28539WAT     H285860   7.693   0.296   5.239
28540WAT      O85861   1.620   3.534   3.644
28540WAT     H185862   1.569   3.620   3.636
28540WAT     H285863   1.706   3.541   3.593
28541WAT      O85864   1.589   8.899   1.394
28541WAT     H185865   1.671   8.914   1.448
28541WAT     H285866   1.614   8.865   1.303
28542WAT      O85867   9.882   0.866   1.468
28542WAT     H185868   9.798   0.825   1.504
28542WAT     H285869   9.960   0.827   1.516
28543WAT      O85870   0.139   3.506   3.870
28543WAT     H185871   0.209   3.552   3.925
28543WAT     H285872   0.138   3.546   3.778
28544WAT      O85873   5.411   5.396   1.212
28544WAT     H185874   5.497   5.390   1.262
28544WAT     H285875   5.397   5.311   1.161
28545WAT      O85876   7.374   1.393   3.424
28545WAT     H185877   7.282   1.421   3.452
28545WAT     H285878   7.385   1.295   3.439
28546WAT      O85879   4.588   6.995   3.618
28546WAT     H185880   4.685   6.980   3.600
28546WAT     H285881   4.578   7.038   3.708
28547WAT      O85882   0.707   6.234   9.541
28547WAT     H185883   0.660   6.257   9.456
28547WAT     H285884   0.709   6.134   9.551
28548WAT      O85885   6.672   0.769   0.089
28548WAT     H185886   6.675   0.679   0.046
28548WAT     H285887   6.585   0.813   0.067
28549WAT      O85888   3.114   7.693   5.016
28549WAT     H185889   3.171   7.617   5.047
28549WAT     H285890   3.020   7.679   5.046
28550WAT      O85891   8.344   8.496   1.404
28550WAT     H185892   8.352   8.398   1.421
28550WAT     H285893   8.278   8.512   1.331
28551WAT      O85894   8.614   5.762   2.064
28551WAT     H185895   8.527   5.723   2.094
28551WAT     H285896   8.609   5.862   2.069
28552WAT      O85897   6.835   6.989   8.351
28552WAT     H185898   6.877   6.952   8.268
28552WAT     H285899   6.890   6.963   8.431
28553WAT      O85900   1.969   1.852   2.524
28553WAT     H185901   1.872   1.855   2.500
28553WAT     H285902   2.025   1.874   2.444
28554WAT      O85903   5.670   4.326   1.439
28554WAT     H185904   5.679   4.392   1.363
28554WAT     H285905   5.640   4.238   1.403
28555WAT      O85906   3.621   0.014   8.117
28555WAT     H185907   3.720   0.014   8.100
28555WAT     H285908   3.575  -0.035   8.043
28556WAT      O85909   8.289   1.125   1.430
28556WAT     H185910   8.192   1.126   1.455
28556WAT     H285911   8.320   1.031   1.420
28557WAT      O85912   9.660   7.944   7.124
28557WAT     H185913   9.560   7.949   7.115
28557WAT     H285914   9.690   8.008   7.194
28558WAT      O85915   2.956   2.226   4.720
28558WAT     H185916   2.874   2.187   4.763
28558WAT     H285917   3.037   2.174   4.749
28559WAT      O85918   3.048   2.668   4.032
28559WAT     H185919   2.979   2.716   3.978
28559WAT     H285920   3.133   2.721   4.031
28560WAT      O85921   7.640   6.747   7.819
28560WAT     H185922   7.666   6.823   7.878
28560WAT     H285923   7.721   6.714   7.770
28561WAT      O85924   3.012   6.990   9.317
28561WAT     H185925   2.975   7.070   9.366
28561WAT     H285926   3.107   6.975   9.346
28562WAT      O85927   9.426   1.078   2.213
28562WAT     H185928   9.371   1.141   2.268
28562WAT     H285929   9.432   1.111   2.119
28563WAT      O85930   6.129   0.345   1.400
28563WAT     H185931   6.178   0.386   1.476
28563WAT     H285932   6.034   0.377   1.400
28564WAT      O85933   3.926   2.085   9.430
28564WAT     H185934   3.934   2.145   9.509
28564WAT     H285935   3.979   2.124   9.354
28565WAT      O85936   6.146   1.668   7.122
28565WAT     H185937   6.066   1.644   7.178
28565WAT     H285938   6.116   1.721   7.042
28566WAT      O85939   2.346   9.600   9.621
28566WAT     H185940   2.373   9.541   9.697
28566WAT     H285941   2.257   9.642   9.642
28567WAT      O85942   1.126   4.845   4.239
28567WAT     H185943   1.119   4.769   4.174
28567WAT     H285944   1.201   4.827   4.302
28568WAT      O85945   6.042   2.852   6.860
28568WAT     H185946   6.039   2.872   6.958
28568WAT     H285947   5.952   2.822   6.829
28569WAT      O85948   1.140   7.624   7.750
28569WAT     H185949   1.170   7.719   7.756
28569WAT     H285950   1.218   7.564   7.762
28570WAT      O85951   2.741   9.379   4.719
28570WAT     H185952   2.649   9.389   4.756
28570WAT     H285953   2.740   9.312   4.645
28571WAT      O85954   6.135   6.208   9.396
28571WAT     H185955   6.215   6.156   9.364
28571WAT     H285956   6.100   6.166   9.479
28572WAT      O85957   9.628   4.627   3.946
28572WAT     H185958   9.614   4.539   3.991
28572WAT     H285959   9.560   4.639   3.874
28573WAT      O85960   4.728   2.046   0.063
28573WAT     H185961   4.654   2.005   0.010
28573WAT     H285962   4.698   2.063   0.157
28574WAT      O85963   4.072   7.482   1.640
28574WAT     H185964   4.158   7.456   1.683
28574WAT     H285965   4.039   7.408   1.583
28575WAT      O85966   2.404   2.563   1.163
28575WAT     H185967   2.474   2.492   1.153
28575WAT     H285968   2.323   2.538   1.111
28576WAT      O85969   4.354   4.765   6.662
28576WAT     H185970   4.358   4.669   6.690
28576WAT     H285971   4.360   4.772   6.562
28577WAT      O85972   8.253   5.866   8.918
28577WAT     H185973   8.201   5.892   8.837
28577WAT     H285974   8.277   5.949   8.970
28578WAT      O85975   9.877   6.772   5.293
28578WAT     H185976   9.821   6.839   5.342
28578WAT     H285977   9.972   6.777   5.324
28579WAT      O85978   3.652   8.609   4.068
28579WAT     H185979   3.561   8.580   4.039
28579WAT     H285980   3.649   8.642   4.162
28580WAT      O85981   4.873   0.037   4.313
28580WAT     H185982   4.864  -0.023   4.392
28580WAT     H285983   4.938   0.109   4.333
28581WAT      O85984   3.572   5.728   3.345
28581WAT     H185985   3.652   5.684   3.385
28581WAT     H285986   3.601   5.799   3.281
28582WAT      O85987   2.716   4.857   6.755
28582WAT     H185988   2.808   4.842   6.718
28582WAT     H285989   2.667   4.771   6.759
28583WAT      O85990   2.541   4.938   6.002
28583WAT     H185991   2.576   5.030   6.012
28583WAT     H285992   2.576   4.880   6.076
28584WAT      O85993   6.883   7.252   4.409
28584WAT     H185994   6.967   7.248   4.462
28584WAT     H285995   6.875   7.341   4.365
28585WAT      O85996   3.662   9.215   2.730
28585WAT     H185997   3.607   9.176   2.803
28585WAT     H285998   3.737   9.153   2.707
28586WAT      O85999   7.567   3.788   6.576
28586WAT     H186000   7.581   3.731   6.495
28586WAT     H286001   7.472   3.822   6.577
28587WAT      O86002   1.151   0.822   2.372
28587WAT     H186003   1.160   0.735   2.419
28587WAT     H286004   1.109   0.807   2.282
28588WAT      O86005   2.907   2.494   6.865
28588WAT     H186006   2.972   2.432   6.909
28588WAT     H286007   2.848   2.443   6.803
28589WAT      O86008   9.777   3.913   4.215
28589WAT     H186009   9.806   3.857   4.137
28589WAT     H286010   9.810   4.007   4.202
28590WAT      O86011   6.457   5.125   0.412
28590WAT     H186012   6.364   5.115   0.375
28590WAT     H286013   6.458   5.096   0.507
28591WAT      O86014   7.745   0.856   8.240
28591WAT     H186015   7.691   0.915   8.300
28591WAT     H286016   7.755   0.766   8.282
28592WAT      O86017   1.147   6.569   7.513
28592WAT     H186018   1.191   6.491   7.559
28592WAT     H286019   1.203   6.651   7.527
28593WAT      O86020   7.595   9.841   4.704
28593WAT     H186021   7.503   9.810   4.680
28593WAT     H286022   7.658   9.817   4.630
28594WAT      O86023   4.712   5.140   9.652
28594WAT     H186024   4.776   5.198   9.703
28594WAT     H286025   4.634   5.116   9.710
28595WAT      O86026   4.631   2.053   6.884
28595WAT     H186027   4.646   2.134   6.826
28595WAT     H286028   4.578   1.985   6.833
28596WAT      O86029   9.799   2.699   6.834
28596WAT     H186030   9.872   2.765   6.852
28596WAT     H286031   9.715   2.729   6.878
28597WAT      O86032   6.123   2.362   9.695
28597WAT     H186033   6.103   2.269   9.726
28597WAT     H286034   6.195   2.401   9.753
28598WAT      O86035   4.863   2.283   7.267
28598WAT     H186036   4.957   2.250   7.267
28598WAT     H286037   4.827   2.283   7.360
28599WAT      O86038   1.042   7.822   3.513
28599WAT     H186039   1.078   7.775   3.433
28599WAT     H286040   1.079   7.779   3.596
28600WAT      O86041   4.026   7.390   7.211
28600WAT     H186042   4.037   7.467   7.148
28600WAT     H286043   3.963   7.324   7.171
28601WAT      O86044   8.201   7.456   2.823
28601WAT     H186045   8.174   7.408   2.739
28601WAT     H286046   8.193   7.393   2.901
28602WAT      O86047   2.332   4.831   0.537
28602WAT     H186048   2.280   4.805   0.456
28602WAT     H286049   2.373   4.748   0.577
28603WAT      O86050   5.350   4.478   6.449
28603WAT     H186051   5.294   4.492   6.367
28603WAT     H286052   5.306   4.521   6.528
28604WAT      O86053   3.072   1.444   1.464
28604WAT     H186054   3.062   1.438   1.364
28604WAT     H286055   3.107   1.534   1.489
28605WAT      O86056   0.426   8.632   7.430
28605WAT     H186057   0.472   8.627   7.519
28605WAT     H286058   0.493   8.624   7.357
28606WAT      O86059   4.981   6.682   2.519
28606WAT     H186060   5.033   6.725   2.592
28606WAT     H286061   4.970   6.747   2.444
28607WAT      O86062   6.094   7.292   4.634
28607WAT     H186063   6.045   7.300   4.548
28607WAT     H286064   6.170   7.229   4.623
28608WAT      O86065   9.646   8.206   7.648
28608WAT     H186066   9.553   8.191   7.616
28608WAT     H286067   9.708   8.210   7.570
28609WAT      O86068   6.590   3.152   7.034
28609WAT     H186069   6.553   3.219   6.971
28609WAT     H286070   6.684   3.129   7.008
28610WAT      O86071   8.083   5.948   5.722
28610WAT     H186072   8.086   5.853   5.751
28610WAT     H286073   8.074   5.952   5.622
28611WAT      O86074   5.085   1.101   5.250
28611WAT     H186075   5.154   1.110   5.323
28611WAT     H286076   5.015   1.171   5.262
28612WAT      O86077   1.646   4.252   5.783
28612WAT     H186078   1.594   4.242   5.698
28612WAT     H286079   1.742   4.269   5.762
28613WAT      O86080   5.818   2.413   7.448
28613WAT     H186081   5.911   2.441   7.473
28613WAT     H286082   5.772   2.376   7.528
28614WAT      O86083   0.371   2.074   0.117
28614WAT     H186084   0.457   2.034   0.149
28614WAT     H286085   0.350   2.040   0.026
28615WAT      O86086   1.871   8.029   6.114
28615WAT     H186087   1.873   8.006   6.017
28615WAT     H286088   1.929   7.965   6.165
28616WAT      O86089   1.970   4.839   6.536
28616WAT     H186090   1.992   4.915   6.476
28616WAT     H286091   1.917   4.872   6.614
28617WAT      O86092   6.051   1.438   2.625
28617WAT     H186093   6.103   1.379   2.564
28617WAT     H286094   6.067   1.534   2.600
28618WAT      O86095   5.160   1.781   6.200
28618WAT     H186096   5.200   1.803   6.288
28618WAT     H286097   5.210   1.704   6.158
28619WAT      O86098   4.575   5.765   0.035
28619WAT     H186099   4.577   5.689  -0.031
28619WAT     H286100   4.536   5.845  -0.009
28620WAT      O86101   1.269   4.378   7.698
28620WAT     H186102   1.273   4.345   7.603
28620WAT     H286103   1.337   4.449   7.712
28621WAT      O86104   7.579   4.029   8.623
28621WAT     H186105   7.658   4.057   8.569
28621WAT     H286106   7.598   4.044   8.720
28622WAT      O86107   9.624   9.549   6.744
28622WAT     H186108   9.535   9.552   6.700
28622WAT     H286109   9.643   9.636   6.788
28623WAT      O86110   9.201   1.897   8.326
28623WAT     H186111   9.229   1.801   8.331
28623WAT     H286112   9.176   1.930   8.417
28624WAT      O86113   8.607   3.868   5.501
28624WAT     H186114   8.688   3.903   5.454
28624WAT     H286115   8.624   3.773   5.529
28625WAT      O86116   6.323   2.228   8.934
28625WAT     H186117   6.357   2.219   9.027
28625WAT     H286118   6.360   2.154   8.877
28626WAT      O86119   6.321   5.891   9.667
28626WAT     H186120   6.238   5.836   9.682
28626WAT     H286121   6.332   5.909   9.570
28627WAT      O86122   4.323   6.620   7.735
28627WAT     H186123   4.408   6.595   7.782
28627WAT     H286124   4.336   6.708   7.688
28628WAT      O86125   3.181   8.943   7.934
28628WAT     H186126   3.092   8.982   7.958
28628WAT     H286127   3.200   8.864   7.993
28629WAT      O86128   3.374   8.779   5.940
28629WAT     H186129   3.365   8.683   5.914
28629WAT     H286130   3.421   8.786   6.028
28630WAT      O86131   8.941   7.927   6.013
28630WAT     H186132   8.953   7.862   6.088
28630WAT     H286133   8.985   8.013   6.036
28631WAT      O86134   8.834   5.775   3.201
28631WAT     H186135   8.914   5.808   3.251
28631WAT     H286136   8.791   5.701   3.252
28632WAT      O86137   2.477   9.700   6.354
28632WAT     H186138   2.438   9.706   6.262
28632WAT     H286139   2.508   9.607   6.370
28633WAT      O86140   3.948   8.636   4.973
28633WAT     H186141   3.874   8.609   5.035
28633WAT     H286142   3.981   8.727   4.998
28634WAT      O86143   5.994   6.911   6.294
28634WAT     H186144   5.930   6.842   6.259
28634WAT     H286145   5.980   6.922   6.392
28635WAT      O86146   5.642   2.906   1.498
28635WAT     H186147   5.730   2.928   1.456
28635WAT     H286148   5.636   2.807   1.513
28636WAT      O86149   6.707   4.297   7.658
28636WAT     H186150   6.807   4.304   7.663
28636WAT     H286151   6.668   4.319   7.747
28637WAT      O86152   2.155   7.585   6.831
28637WAT     H186153   2.231   7.631   6.877
28637WAT     H286154   2.190   7.506   6.779
28638WAT      O86155   0.169   8.736   3.937
28638WAT     H186156   0.268   8.736   3.956
28638WAT     H286157   0.153   8.769   3.844
28639WAT      O86158   9.586   1.595   8.025
28639WAT     H186159   9.565   1.644   7.941
28639WAT     H286160   9.502   1.557   8.064
28640WAT      O86161   1.216   6.048   5.309
28640WAT     H186162   1.170   5.969   5.268
28640WAT     H286163   1.295   6.016   5.361
28641WAT      O86164   6.664   7.360   3.270
28641WAT     H186165   6.655   7.456   3.295
28641WAT     H286166   6.583   7.310   3.300
28642WAT      O86167   5.988   7.968   5.722
28642WAT     H186168   5.904   8.012   5.755
28642WAT     H286169   6.010   7.891   5.782
28643WAT      O86170   5.572   1.944   6.274
28643WAT     H186171   5.527   2.020   6.226
28643WAT     H286172   5.666   1.970   6.297
28644WAT      O86173   0.250   0.434   7.998
28644WAT     H186174   0.223   0.404   8.089
28644WAT     H286175   0.271   0.532   8.000
28645WAT      O86176   1.543   0.153   0.375
28645WAT     H186177   1.597   0.191   0.449
28645WAT     H286178   1.539   0.218   0.299
28646WAT      O86179   5.864   5.446   8.480
28646WAT     H186180   5.785   5.504   8.462
28646WAT     H286181   5.944   5.502   8.495
28647WAT      O86182   3.732   3.499   6.263
28647WAT     H186183   3.688   3.583   6.232
28647WAT     H286184   3.799   3.522   6.334
28648WAT      O86185   0.389   8.750   7.006
28648WAT     H186186   0.375   8.684   6.932
28648WAT     H286187   0.306   8.757   7.061
28649WAT      O86188   1.236   5.606   2.025
28649WAT     H186189   1.176   5.582   1.949
28649WAT     H286190   1.294   5.683   1.998
28650WAT      O86191   1.270   7.408   6.284
28650WAT     H186192   1.189   7.385   6.230
28650WAT     H286193   1.275   7.507   6.295
28651WAT      O86194   1.251   2.564   3.726
28651WAT     H186195   1.203   2.516   3.799
28651WAT     H286196   1.219   2.659   3.721
28652WAT      O86197   6.385   9.492   3.455
28652WAT     H186198   6.414   9.557   3.385
28652WAT     H286199   6.464   9.463   3.508
28653WAT      O86200   7.323   7.330   7.498
28653WAT     H186201   7.415   7.332   7.537
28653WAT     H286202   7.258   7.293   7.565
28654WAT      O86203   1.582   8.955   5.490
28654WAT     H186204   1.657   8.994   5.436
28654WAT     H286205   1.566   9.011   5.571
28655WAT      O86206   5.954   5.508   1.969
28655WAT     H186207   5.991   5.417   1.992
28655WAT     H286208   6.025   5.561   1.923
28656WAT      O86209   8.957   0.168   8.614
28656WAT     H186210   8.908   0.081   8.615
28656WAT     H286211   8.975   0.196   8.708
28657WAT      O86212   1.376   5.903   1.662
28657WAT     H186213   1.309   5.842   1.705
28657WAT     H286214   1.398   5.869   1.571
28658WAT      O86215   3.879   0.174   5.215
28658WAT     H186216   3.958   0.126   5.254
28658WAT     H286217   3.804   0.110   5.202
28659WAT      O86218   0.260   6.062   6.202
28659WAT     H186219   0.346   6.088   6.158
28659WAT     H286220   0.261   6.090   6.297
28660WAT      O86221   5.309   2.466   6.420
28660WAT     H186222   5.248   2.388   6.413
28660WAT     H286223   5.293   2.514   6.507
28661WAT      O86224   8.042   2.371   2.777
28661WAT     H186225   8.096   2.329   2.703
28661WAT     H286226   8.071   2.466   2.789
28662WAT      O86227   2.616   5.586   1.754
28662WAT     H186228   2.624   5.677   1.714
28662WAT     H286229   2.569   5.525   1.691
28663WAT      O86230   9.826   0.779   5.180
28663WAT     H186231   9.882   0.855   5.210
28663WAT     H286232   9.735   0.812   5.153
28664WAT      O86233   2.396   7.389   4.843
28664WAT     H186234   2.391   7.454   4.767
28664WAT     H286235   2.466   7.419   4.908
28665WAT      O86236   1.651   4.646   7.154
28665WAT     H186237   1.669   4.554   7.119
28665WAT     H286238   1.739   4.691   7.173
28666WAT      O86239   1.857   2.008   0.706
28666WAT     H186240   1.897   2.054   0.627
28666WAT     H286241   1.759   1.996   0.691
28667WAT      O86242   1.844   6.147   8.959
28667WAT     H186243   1.904   6.084   8.909
28667WAT     H286244   1.832   6.113   9.053
28668WAT      O86245   2.522   6.445   2.894
28668WAT     H186246   2.542   6.352   2.863
28668WAT     H286247   2.438   6.477   2.849
28669WAT      O86248   4.367   2.033   4.895
28669WAT     H186249   4.461   2.001   4.878
28669WAT     H286250   4.306   1.954   4.900
28670WAT      O86251   0.241   9.552   2.545
28670WAT     H186252   0.301   9.497   2.487
28670WAT     H286253   0.169   9.494   2.583
28671WAT      O86254   3.642   9.096   6.179
28671WAT     H186255   3.682   9.140   6.259
28671WAT     H286256   3.586   9.162   6.129
28672WAT      O86257   7.118   1.094   5.130
28672WAT     H186258   7.063   1.024   5.175
28672WAT     H286259   7.101   1.092   5.031
28673WAT      O86260   8.686   7.154   9.277
28673WAT     H186261   8.674   7.055   9.281
28673WAT     H286262   8.610   7.199   9.324
28674WAT      O86263   7.714   2.794   0.488
28674WAT     H186264   7.758   2.724   0.543
28674WAT     H286265   7.775   2.873   0.480
28675WAT      O86266   1.169   1.168   6.897
28675WAT     H186267   1.169   1.265   6.874
28675WAT     H286268   1.262   1.133   6.894
28676WAT      O86269   5.074   5.547   8.115
28676WAT     H186270   5.120   5.634   8.132
28676WAT     H286271   5.035   5.548   8.023
28677WAT      O86272   7.438   3.763   3.398
28677WAT     H186273   7.392   3.691   3.347
28677WAT     H286274   7.522   3.726   3.438
28678WAT      O86275   7.492   9.773   6.827
28678WAT     H186276   7.591   9.786   6.820
28678WAT     H286277   7.473   9.675   6.833
28679WAT      O86278   0.590   4.642   5.133
28679WAT     H186279   0.509   4.602   5.090
28679WAT     H286280   0.620   4.584   5.209
28680WAT      O86281   3.882   4.685   5.309
28680WAT     H186282   3.855   4.766   5.361
28680WAT     H286283   3.944   4.629   5.363
28681WAT      O86284   7.779   3.417   6.441
28681WAT     H186285   7.853   3.468   6.397
28681WAT     H286286   7.808   3.322   6.455
28682WAT      O86287   2.372   4.044   9.220
28682WAT     H186288   2.350   4.002   9.307
28682WAT     H286289   2.456   4.098   9.228
28683WAT      O86290   0.865   8.186   6.762
28683WAT     H186291   0.932   8.153   6.695
28683WAT     H286292   0.912   8.237   6.834
28684WAT      O86293   0.711   7.507   0.187
28684WAT     H186294   0.701   7.486   0.090
28684WAT     H286295   0.765   7.590   0.198
28685WAT      O86296   4.448   5.901   3.608
28685WAT     H186297   4.371   5.945   3.654
28685WAT     H286298   4.430   5.803   3.602
28686WAT      O86299   9.559   0.404   0.820
28686WAT     H186300   9.554   0.343   0.741
28686WAT     H286301   9.582   0.352   0.902
28687WAT      O86302   4.529   9.694   2.604
28687WAT     H186303   4.465   9.690   2.681
28687WAT     H286304   4.600   9.625   2.617
28688WAT      O86305   8.820   4.472   2.031
28688WAT     H186306   8.792   4.505   1.940
28688WAT     H286307   8.741   4.431   2.076
28689WAT      O86308   2.204   1.618   2.463
28689WAT     H186309   2.188   1.687   2.534
28689WAT     H286310   2.162   1.531   2.492
28690WAT      O86311   1.274   1.113   9.541
28690WAT     H186312   1.215   1.035   9.519
28690WAT     H286313   1.218   1.189   9.573
28691WAT      O86314   9.236   0.770   9.353
28691WAT     H186315   9.255   0.689   9.408
28691WAT     H286316   9.276   0.759   9.262
28692WAT      O86317   1.738   8.085   0.833
28692WAT     H186318   1.641   8.109   0.821
28692WAT     H286319   1.777   8.059   0.745
28693WAT      O86320   1.372   5.118   3.446
28693WAT     H186321   1.369   5.053   3.370
28693WAT     H286322   1.452   5.101   3.502
28694WAT      O86323   3.435   1.282   8.953
28694WAT     H186324   3.466   1.286   9.048
28694WAT     H286325   3.440   1.373   8.912
28695WAT      O86326   8.139   3.219   2.650
28695WAT     H186327   8.128   3.216   2.750
28695WAT     H286328   8.084   3.294   2.613
28696WAT      O86329   7.489   2.129   8.148
28696WAT     H186330   7.449   2.153   8.236
28696WAT     H286331   7.588   2.118   8.157
28697WAT      O86332   9.129   8.761   7.561
28697WAT     H186333   9.124   8.684   7.624
28697WAT     H286334   9.105   8.845   7.610
28698WAT      O86335   9.061   7.403   0.502
28698WAT     H186336   9.102   7.476   0.557
28698WAT     H286337   8.969   7.383   0.536
28699WAT      O86338   6.047   5.617   3.875
28699WAT     H186339   5.948   5.621   3.870
28699WAT     H286340   6.078   5.653   3.963
28700WAT      O86341   6.094   7.015   5.149
28700WAT     H186342   6.118   7.100   5.196
28700WAT     H286343   6.059   7.036   5.058
28701WAT      O86344   9.226   9.404   0.770
28701WAT     H186345   9.165   9.440   0.699
28701WAT     H286346   9.267   9.480   0.820
28702WAT      O86347   4.127   8.403   4.193
28702WAT     H186348   4.035   8.381   4.161
28702WAT     H286349   4.170   8.321   4.230
28703WAT      O86350   5.544   4.664   6.585
28703WAT     H186351   5.475   4.733   6.559
28703WAT     H286352   5.524   4.579   6.538
28704WAT      O86353   1.403   1.763   8.349
28704WAT     H186354   1.393   1.852   8.392
28704WAT     H286355   1.458   1.771   8.266
28705WAT      O86356   8.692   0.352   1.288
28705WAT     H186357   8.787   0.366   1.259
28705WAT     H286358   8.632   0.412   1.235
28706WAT      O86359   4.830   7.231   6.891
28706WAT     H186360   4.814   7.216   6.793
28706WAT     H286361   4.880   7.316   6.904
28707WAT      O86362   9.650   3.637   9.809
28707WAT     H186363   9.706   3.635   9.726
28707WAT     H286364   9.700   3.592   9.884
28708WAT      O86365   1.786   6.553   6.701
28708WAT     H186366   1.793   6.472   6.643
28708WAT     H286367   1.742   6.528   6.788
28709WAT      O86368   7.218   3.429   4.642
28709WAT     H186369   7.255   3.499   4.703
28709WAT     H286370   7.126   3.454   4.613
28710WAT      O86371   5.151   0.759   7.141
28710WAT     H186372   5.076   0.704   7.104
28710WAT     H286373   5.116   0.848   7.169
28711WAT      O86374   6.063   4.140   7.881
28711WAT     H186375   5.978   4.088   7.881
28711WAT     H286376   6.068   4.196   7.797
28712WAT      O86377   4.379   8.625   0.338
28712WAT     H186378   4.465   8.575   0.340
28712WAT     H286379   4.383   8.703   0.399
28713WAT      O86380   9.417   8.121   2.289
28713WAT     H186381   9.495   8.175   2.322
28713WAT     H286382   9.446   8.027   2.273
28714WAT      O86383   5.820   8.792   5.162
28714WAT     H186384   5.911   8.814   5.196
28714WAT     H286385   5.785   8.711   5.209
28715WAT      O86386   6.436   1.220   2.771
28715WAT     H186387   6.463   1.316   2.763
28715WAT     H286388   6.512   1.166   2.807
28716WAT      O86389   0.330   3.860   8.898
28716WAT     H186390   0.355   3.941   8.845
28716WAT     H286391   0.344   3.878   8.995
28717WAT      O86392   2.036   1.797   0.667
28717WAT     H186393   1.975   1.873   0.690
28717WAT     H286394   1.981   1.715   0.649
28718WAT      O86395   7.948   6.651   0.449
28718WAT     H186396   7.985   6.592   0.521
28718WAT     H286397   8.017   6.667   0.379
28719WAT      O86398   3.645   3.783   3.321
28719WAT     H186399   3.698   3.865   3.298
28719WAT     H286400   3.579   3.764   3.249
28720WAT      O86401   7.767   0.626   4.528
28720WAT     H186402   7.684   0.576   4.507
28720WAT     H286403   7.777   0.703   4.465
28721WAT      O86404   4.461   1.526   4.594
28721WAT     H186405   4.452   1.580   4.510
28721WAT     H286406   4.467   1.429   4.571
28722WAT      O86407   8.877   1.450   1.299
28722WAT     H186408   8.968   1.426   1.331
28722WAT     H286409   8.876   1.455   1.199
28723WAT      O86410   1.302   0.884   9.875
28723WAT     H186411   1.343   0.801   9.913
28723WAT     H286412   1.304   0.956   9.944
28724WAT      O86413   9.076   3.006   6.030
28724WAT     H186414   9.127   2.954   6.099
28724WAT     H286415   9.106   2.979   5.939
28725WAT      O86416   4.592   6.281   5.816
28725WAT     H186417   4.534   6.229   5.879
28725WAT     H286418   4.596   6.376   5.847
28726WAT      O86419   4.479   7.998   1.704
28726WAT     H186420   4.564   8.020   1.655
28726WAT     H286421   4.487   8.028   1.799
28727WAT      O86422   2.124   6.965   2.932
28727WAT     H186423   2.070   6.899   2.881
28727WAT     H286424   2.079   6.987   3.019
28728WAT      O86425   3.580   8.975   7.605
28728WAT     H186426   3.593   9.007   7.699
28728WAT     H286427   3.493   9.010   7.570
28729WAT      O86428   6.289   3.983   3.207
28729WAT     H186429   6.311   3.904   3.150
28729WAT     H286430   6.220   4.039   3.161
28730WAT      O86431   5.338   4.070   2.251
28730WAT     H186432   5.252   4.047   2.207
28730WAT     H286433   5.378   3.987   2.292
28731WAT      O86434   1.637   8.432   7.819
28731WAT     H186435   1.686   8.347   7.835
28731WAT     H286436   1.551   8.431   7.869
28732WAT      O86437   9.148   5.847   6.116
28732WAT     H186438   9.080   5.838   6.188
28732WAT     H286439   9.240   5.848   6.156
28733WAT      O86440   4.814   0.059   7.727
28733WAT     H186441   4.780   0.029   7.638
28733WAT     H286442   4.773   0.003   7.799
28734WAT      O86443   6.134   6.831   3.571
28734WAT     H186444   6.232   6.824   3.588
28734WAT     H286445   6.118   6.851   3.475
28735WAT      O86446   3.836   4.149   2.197
28735WAT     H186447   3.821   4.123   2.292
28735WAT     H286448   3.934   4.153   2.178
28736WAT      O86449   5.667   9.080   1.774
28736WAT     H186450   5.662   9.093   1.873
28736WAT     H286451   5.606   9.006   1.747
28737WAT      O86452   4.231   9.009   7.988
28737WAT     H186453   4.177   9.024   7.905
28737WAT     H286454   4.188   8.938   8.044
28738WAT      O86455   6.767   3.554   5.061
28738WAT     H186456   6.725   3.611   4.990
28738WAT     H286457   6.733   3.583   5.151
28739WAT      O86458   8.816   7.339   8.159
28739WAT     H186459   8.851   7.405   8.093
28739WAT     H286460   8.732   7.298   8.125
28740WAT      O86461   4.383   7.935   8.734
28740WAT     H186462   4.333   8.017   8.705
28740WAT     H286463   4.456   7.962   8.796
28741WAT      O86464   9.027   3.609   3.454
28741WAT     H186465   9.122   3.632   3.474
28741WAT     H286466   9.004   3.521   3.497
28742WAT      O86467   8.427   0.920   5.081
28742WAT     H186468   8.354   0.946   5.144
28742WAT     H286469   8.418   0.823   5.057
28743WAT      O86470   7.768   3.394   3.984
28743WAT     H186471   7.706   3.347   4.047
28743WAT     H286472   7.739   3.489   3.974
28744WAT      O86473   7.411   6.475   9.192
28744WAT     H186474   7.412   6.472   9.292
28744WAT     H286475   7.423   6.383   9.156
28745WAT      O86476   6.280   1.852   0.300
28745WAT     H186477   6.190   1.810   0.314
28745WAT     H286478   6.273   1.951   0.309
28746WAT      O86479   4.839   5.540   6.917
28746WAT     H186480   4.870   5.555   6.824
28746WAT     H286481   4.817   5.628   6.960
28747WAT      O86482   7.330   5.625   5.033
28747WAT     H186483   7.412   5.634   4.976
28747WAT     H286484   7.323   5.704   5.094
28748WAT      O86485   4.744   3.140   8.033
28748WAT     H186486   4.701   3.050   8.025
28748WAT     H286487   4.750   3.183   7.943
28749WAT      O86488   3.183   8.375   0.611
28749WAT     H186489   3.103   8.350   0.557
28749WAT     H286490   3.156   8.388   0.706
28750WAT      O86491   2.547   4.419   8.856
28750WAT     H186492   2.522   4.332   8.899
28750WAT     H286493   2.583   4.402   8.765
28751WAT      O86494   9.349   9.637   0.873
28751WAT     H186495   9.408   9.674   0.945
28751WAT     H286496   9.335   9.707   0.802
28752WAT      O86497   6.522   8.090   3.543
28752WAT     H186498   6.555   7.998   3.560
28752WAT     H286499   6.599   8.154   3.538
28753WAT      O86500   2.433   3.948   8.207
28753WAT     H186501   2.335   3.964   8.206
28753WAT     H286502   2.453   3.861   8.254
28754WAT      O86503   9.109   3.510   5.768
28754WAT     H186504   9.016   3.545   5.752
28754WAT     H286505   9.113   3.465   5.857
28755WAT      O86506   8.711   1.847   9.228
28755WAT     H186507   8.711   1.795   9.143
28755WAT     H286508   8.776   1.805   9.292
28756WAT      O86509   9.572   6.869   1.969
28756WAT     H186510   9.660   6.827   1.947
28756WAT     H286511   9.587   6.965   1.995
28757WAT      O86512   7.205   9.004   7.977
28757WAT     H186513   7.274   9.073   7.956
28757WAT     H286514   7.229   8.918   7.933
28758WAT      O86515   8.991   5.952   7.552
28758WAT     H186516   8.912   5.953   7.489
28758WAT     H286517   9.074   5.931   7.500
28759WAT      O86518   0.065   2.363   4.942
28759WAT     H186519   0.118   2.429   4.995
28759WAT     H286520  -0.014   2.333   4.995
28760WAT      O86521   3.673   4.783   2.706
28760WAT     H186522   3.602   4.796   2.775
28760WAT     H286523   3.740   4.856   2.712
28761WAT      O86524   8.288   8.417   0.191
28761WAT     H186525   8.293   8.449   0.286
28761WAT     H286526   8.314   8.491   0.129
28762WAT      O86527   0.664   5.698   3.604
28762WAT     H186528   0.624   5.751   3.678
28762WAT     H286529   0.600   5.627   3.574
28763WAT      O86530   2.104   3.690   0.058
28763WAT     H186531   2.005   3.697   0.047
28763WAT     H286532   2.149   3.737  -0.018
28764WAT      O86533   7.130   4.821   7.795
28764WAT     H186534   7.195   4.883   7.839
28764WAT     H286535   7.136   4.832   7.695
28765WAT      O86536   9.469   8.852   2.047
28765WAT     H186537   9.436   8.943   2.023
28765WAT     H286538   9.392   8.788   2.049
28766WAT      O86539   3.511   5.222   2.379
28766WAT     H186540   3.516   5.245   2.476
28766WAT     H286541   3.569   5.143   2.360
28767WAT      O86542   2.184   1.575   8.188
28767WAT     H186543   2.139   1.567   8.099
28767WAT     H286544   2.116   1.591   8.259
28768WAT      O86545   4.592   8.239   4.965
28768WAT     H186546   4.597   8.302   5.043
28768WAT     H286547   4.582   8.291   4.881
28769WAT      O86548   7.525   7.723   9.672
28769WAT     H186549   7.428   7.699   9.672
28769WAT     H286550   7.544   7.786   9.597
28770WAT      O86551   7.281   9.608   0.155
28770WAT     H186552   7.290   9.510   0.140
28770WAT     H286553   7.287   9.656   0.067
28771WAT      O86554   7.976   1.505   9.229
28771WAT     H186555   8.014   1.557   9.306
28771WAT     H286556   7.972   1.408   9.252
28772WAT      O86557   7.705   5.866   4.810
28772WAT     H186558   7.694   5.920   4.894
28772WAT     H286559   7.754   5.920   4.742
28773WAT      O86560   6.495   3.637   6.135
28773WAT     H186561   6.591   3.633   6.163
28773WAT     H286562   6.445   3.697   6.197
28774WAT      O86563   0.424   7.826   6.125
28774WAT     H186564   0.431   7.921   6.097
28774WAT     H286565   0.516   7.788   6.140
28775WAT      O86566   0.573   4.596   1.781
28775WAT     H186567   0.495   4.646   1.744
28775WAT     H286568   0.599   4.523   1.718
28776WAT      O86569   8.062   4.607   7.129
28776WAT     H186570   7.980   4.664   7.136
28776WAT     H286571   8.137   4.662   7.091
28777WAT      O86572   4.544   9.840   8.053
28777WAT     H186573   4.618   9.838   8.120
28777WAT     H286574   4.466   9.787   8.087
28778WAT      O86575   7.444   8.315   0.353
28778WAT     H186576   7.502   8.379   0.303
28778WAT     H286577   7.472   8.313   0.449
28779WAT      O86578   9.142   3.207   6.754
28779WAT     H186579   9.178   3.158   6.834
28779WAT     H286580   9.202   3.285   6.733
28780WAT      O86581   9.630   1.830   3.842
28780WAT     H186582   9.647   1.881   3.758
28780WAT     H286583   9.587   1.743   3.821
28781WAT      O86584   9.750   9.747   0.870
28781WAT     H186585   9.845   9.715   0.861
28781WAT     H286586   9.690   9.668   0.881
28782WAT      O86587   2.759   9.009   6.844
28782WAT     H186588   2.745   8.911   6.835
28782WAT     H286589   2.781   9.031   6.939
28783WAT      O86590   3.704   1.985   9.288
28783WAT     H186591   3.722   1.909   9.350
28783WAT     H286592   3.779   2.051   9.294
28784WAT      O86593   3.389   2.907   2.331
28784WAT     H186594   3.327   2.832   2.352
28784WAT     H286595   3.364   2.988   2.385
28785WAT      O86596   2.724   1.682   8.406
28785WAT     H186597   2.701   1.586   8.389
28785WAT     H286598   2.700   1.706   8.500
28786WAT      O86599   2.939   0.668   6.428
28786WAT     H186600   2.996   0.675   6.510
28786WAT     H286601   2.987   0.707   6.350
28787WAT      O86602   6.727   0.301   8.688
28787WAT     H186603   6.819   0.298   8.649
28787WAT     H286604   6.672   0.367   8.637
28788WAT      O86605   2.324   0.472   1.427
28788WAT     H186606   2.353   0.378   1.446
28788WAT     H286607   2.397   0.535   1.454
28789WAT      O86608   5.194   2.692   4.858
28789WAT     H186609   5.137   2.699   4.776
28789WAT     H286610   5.137   2.666   4.936
28790WAT      O86611   7.761   9.103  -0.006
28790WAT     H186612   7.790   9.152   0.076
28790WAT     H286613   7.699   9.029   0.020
28791WAT      O86614   2.170   9.844   7.839
28791WAT     H186615   2.138   9.823   7.931
28791WAT     H286616   2.096   9.826   7.773
28792WAT      O86617   0.305   2.741   2.364
28792WAT     H186618   0.266   2.820   2.411
28792WAT     H286619   0.263   2.733   2.273
28793WAT      O86620   4.042   2.574   8.613
28793WAT     H186621   3.965   2.604   8.556
28793WAT     H286622   4.069   2.648   8.675
28794WAT      O86623   0.322   4.301   9.128
28794WAT     H186624   0.309   4.384   9.074
28794WAT     H286625   0.393   4.244   9.087
28795WAT      O86626   5.481   5.313   3.461
28795WAT     H186627   5.448   5.374   3.532
28795WAT     H286628   5.493   5.364   3.376
28796WAT      O86629   1.897   8.518   1.833
28796WAT     H186630   1.845   8.573   1.898
28796WAT     H286631   1.961   8.460   1.884
28797WAT      O86632   6.613   5.376   1.970
28797WAT     H186633   6.646   5.429   2.048
28797WAT     H286634   6.692   5.343   1.917
28798WAT      O86635   4.083   5.727   3.877
28798WAT     H186636   4.009   5.722   3.811
28798WAT     H286637   4.048   5.761   3.965
28799WAT      O86638   6.827   3.298   3.743
28799WAT     H186639   6.875   3.359   3.806
28799WAT     H286640   6.735   3.334   3.726
28800WAT      O86641   7.381   8.071   5.497
28800WAT     H186642   7.424   8.154   5.463
28800WAT     H286643   7.446   7.995   5.494
28801WAT      O86644   6.675   3.212   4.673
28801WAT     H186645   6.761   3.261   4.686
28801WAT     H286646   6.681   3.155   4.591
28802WAT      O86647   1.228   2.487   7.688
28802WAT     H186648   1.190   2.440   7.767
28802WAT     H286649   1.169   2.564   7.663
28803WAT      O86650   6.451   1.187   2.311
28803WAT     H186651   6.512   1.264   2.292
28803WAT     H286652   6.373   1.218   2.364
28804WAT      O86653   6.576   1.244   3.419
28804WAT     H186654   6.602   1.312   3.488
28804WAT     H286655   6.509   1.181   3.458
28805WAT      O86656   3.984   7.800   3.320
28805WAT     H186657   4.065   7.761   3.275
28805WAT     H286658   3.907   7.798   3.256
28806WAT      O86659   2.326   9.132   7.395
28806WAT     H186660   2.323   9.221   7.351
28806WAT     H286661   2.236   9.110   7.434
28807WAT      O86662   1.395   1.446   6.394
28807WAT     H186663   1.461   1.372   6.403
28807WAT     H286664   1.343   1.435   6.309
28808WAT      O86665   2.627   4.758   7.305
28808WAT     H186666   2.719   4.731   7.276
28808WAT     H286667   2.610   4.853   7.278
28809WAT      O86668   2.223   6.786   2.391
28809WAT     H186669   2.316   6.749   2.381
28809WAT     H286670   2.163   6.744   2.323
28810WAT      O86671   2.079   9.410   4.013
28810WAT     H186672   2.106   9.335   3.952
28810WAT     H286673   2.069   9.375   4.106
28811WAT      O86674   1.201   1.454   1.979
28811WAT     H186675   1.282   1.438   1.921
28811WAT     H286676   1.187   1.374   2.037
28812WAT      O86677   5.273   8.654   7.308
28812WAT     H186678   5.325   8.694   7.384
28812WAT     H286679   5.186   8.620   7.342
28813WAT      O86680   7.054   8.782   0.908
28813WAT     H186681   7.085   8.876   0.924
28813WAT     H286682   7.017   8.744   0.993
28814WAT      O86683   0.302   8.381   8.114
28814WAT     H186684   0.244   8.314   8.161
28814WAT     H286685   0.394   8.377   8.152
28815WAT      O86686   1.288   2.172   1.657
28815WAT     H186687   1.299   2.176   1.558
28815WAT     H286688   1.192   2.189   1.680
28816WAT      O86689   5.477   6.405   0.370
28816WAT     H186690   5.477   6.392   0.271
28816WAT     H286691   5.395   6.456   0.397
28817WAT      O86692   6.787   4.061   8.403
28817WAT     H186693   6.855   4.019   8.344
28817WAT     H286694   6.757   3.994   8.472
28818WAT      O86695   0.359   4.845   8.783
28818WAT     H186696   0.312   4.865   8.697
28818WAT     H286697   0.292   4.813   8.851
28819WAT      O86698   4.295   6.684   1.721
28819WAT     H186699   4.363   6.696   1.649
28819WAT     H286700   4.321   6.739   1.800
28820WAT      O86701   9.670   5.347   9.035
28820WAT     H186702   9.650   5.301   9.121
28820WAT     H286703   9.735   5.292   8.982
28821WAT      O86704   4.358   9.444   3.174
28821WAT     H186705   4.376   9.383   3.098
28821WAT     H286706   4.270   9.490   3.161
28822WAT      O86707   7.254   8.253   2.884
28822WAT     H186708   7.244   8.153   2.889
28822WAT     H286709   7.282   8.288   2.973
28823WAT      O86710   0.421   6.611   0.080
28823WAT     H186711   0.377   6.584   0.165
28823WAT     H286712   0.428   6.533   0.019
28824WAT      O86713   2.153   8.720   2.635
28824WAT     H186714   2.158   8.670   2.722
28824WAT     H286715   2.058   8.736   2.611
28825WAT      O86716   7.329   7.290   5.156
28825WAT     H186717   7.266   7.367   5.159
28825WAT     H286718   7.299   7.224   5.087
28826WAT      O86719   8.282   9.409   5.942
28826WAT     H186720   8.183   9.409   5.959
28826WAT     H286721   8.330   9.383   6.025
28827WAT      O86722   4.490   4.653   0.670
28827WAT     H186723   4.550   4.595   0.725
28827WAT     H286724   4.401   4.660   0.716
28828WAT      O86725   5.526   4.586   8.675
28828WAT     H186726   5.431   4.618   8.668
28828WAT     H286727   5.526   4.487   8.687
28829WAT      O86728   2.748   9.693   2.287
28829WAT     H186729   2.791   9.724   2.202
28829WAT     H286730   2.800   9.617   2.326
28830WAT      O86731   1.993   6.929   4.979
28830WAT     H186732   2.017   6.866   5.052
28830WAT     H286733   1.946   6.880   4.905
28831WAT      O86734   0.882   2.829   5.132
28831WAT     H186735   0.792   2.835   5.174
28831WAT     H286736   0.948   2.796   5.199
28832WAT      O86737   4.306   3.274   3.053
28832WAT     H186738   4.305   3.323   2.966
28832WAT     H286739   4.335   3.337   3.125
28833WAT      O86740   2.624   3.677   0.512
28833WAT     H186741   2.556   3.708   0.578
28833WAT     H286742   2.579   3.616   0.446
28834WAT      O86743   2.649   4.922   5.753
28834WAT     H186744   2.708   4.844   5.734
28834WAT     H286745   2.603   4.908   5.841
28835WAT      O86746   7.341   1.038   1.333
28835WAT     H186747   7.381   1.023   1.243
28835WAT     H286748   7.245   1.065   1.324
28836WAT      O86749   3.919   1.059   5.826
28836WAT     H186750   3.932   1.150   5.864
28836WAT     H286751   3.864   1.004   5.889
28837WAT      O86752   1.208   3.725   4.609
28837WAT     H186753   1.304   3.696   4.611
28837WAT     H286754   1.154   3.664   4.668
28838WAT      O86755   1.673   2.260   0.320
28838WAT     H186756   1.763   2.291   0.290
28838WAT     H286757   1.614   2.339   0.335
28839WAT      O86758   7.842   2.375   0.479
28839WAT     H186759   7.865   2.380   0.382
28839WAT     H286760   7.849   2.466   0.520
28840WAT      O86761   1.682   5.922   0.636
28840WAT     H186762   1.615   5.881   0.699
28840WAT     H286763   1.748   5.976   0.687
28841WAT      O86764   5.999   0.267   9.454
28841WAT     H186765   5.917   0.319   9.477
28841WAT     H286766   6.052   0.250   9.538
28842WAT      O86767   1.398   6.591   4.763
28842WAT     H186768   1.383   6.690   4.759
28842WAT     H286769   1.352   6.554   4.843
28843WAT      O86770   0.033   2.930   4.364
28843WAT     H186771   0.052   2.866   4.437
28843WAT     H286772   0.107   2.997   4.357
28844WAT      O86773   9.598   3.630   8.542
28844WAT     H186774   9.622   3.571   8.465
28844WAT     H286775   9.510   3.603   8.580
28845WAT      O86776   5.766   6.735   5.162
28845WAT     H186777   5.667   6.747   5.155
28845WAT     H286778   5.787   6.639   5.180
28846WAT      O86779   4.241   9.067   3.448
28846WAT     H186780   4.159   9.016   3.476
28846WAT     H286781   4.312   9.003   3.419
28847WAT      O86782   3.162   8.338   7.521
28847WAT     H186783   3.127   8.294   7.438
28847WAT     H286784   3.260   8.320   7.529
28848WAT      O86785   2.098   6.253   6.392
28848WAT     H186786   2.172   6.186   6.402
28848WAT     H286787   2.040   6.227   6.315
28849WAT      O86788   2.504   0.446   8.834
28849WAT     H186789   2.442   0.441   8.756
28849WAT     H286790   2.568   0.521   8.820
28850WAT      O86791   0.388   1.661   2.340
28850WAT     H186792   0.426   1.570   2.355
28850WAT     H286793   0.368   1.673   2.242
28851WAT      O86794   0.054   7.523   8.541
28851WAT     H186795   0.052   7.495   8.445
28851WAT     H286796  -0.039   7.541   8.573
28852WAT      O86797   3.857   8.062   5.923
28852WAT     H186798   3.879   8.100   5.833
28852WAT     H286799   3.783   7.995   5.913
28853WAT      O86800   9.366   0.258   7.546
28853WAT     H186801   9.310   0.194   7.600
28853WAT     H286802   9.462   0.232   7.554
28854WAT      O86803   6.343   0.535   4.490
28854WAT     H186804   6.386   0.481   4.418
28854WAT     H286805   6.269   0.482   4.531
28855WAT      O86806   5.950   0.310   7.410
28855WAT     H186807   5.972   0.322   7.313
28855WAT     H286808   6.034   0.304   7.464
28856WAT      O86809   4.350   9.798   6.591
28856WAT     H186810   4.437   9.760   6.621
28856WAT     H286811   4.276   9.764   6.650
28857WAT      O86812   5.393   7.759   3.719
28857WAT     H186813   5.481   7.731   3.758
28857WAT     H286814   5.409   7.830   3.650
28858WAT      O86815   1.084   0.265   0.287
28858WAT     H186816   1.133   0.301   0.208
28858WAT     H286817   1.008   0.207   0.257
28859WAT      O86818   2.846   3.041   1.169
28859WAT     H186819   2.871   3.102   1.244
28859WAT     H286820   2.928   3.019   1.116
28860WAT      O86821   1.760   8.549   5.330
28860WAT     H186822   1.814   8.632   5.318
28860WAT     H286823   1.821   8.473   5.355
28861WAT      O86824   8.839   9.762   8.610
28861WAT     H186825   8.759   9.707   8.634
28861WAT     H286826   8.921   9.723   8.651
28862WAT      O86827   2.502   0.742   9.284
28862WAT     H186828   2.586   0.693   9.260
28862WAT     H286829   2.446   0.684   9.343
28863WAT      O86830   4.359   9.035   2.078
28863WAT     H186831   4.439   9.084   2.113
28863WAT     H286832   4.347   9.056   1.981
28864WAT      O86833   2.493   8.437   3.646
28864WAT     H186834   2.447   8.450   3.734
28864WAT     H286835   2.591   8.450   3.658
28865WAT      O86836   0.790   7.069   5.416
28865WAT     H186837   0.796   6.974   5.446
28865WAT     H286838   0.723   7.076   5.342
28866WAT      O86839   3.750   1.797   9.506
28866WAT     H186840   3.753   1.697   9.501
28866WAT     H286841   3.696   1.824   9.585
28867WAT      O86842   2.632   6.682   9.499
28867WAT     H186843   2.623   6.588   9.531
28867WAT     H286844   2.669   6.738   9.572
28868WAT      O86845   6.869   2.812   1.498
28868WAT     H186846   6.844   2.749   1.425
28868WAT     H286847   6.928   2.765   1.564
28869WAT      O86848   7.192   2.252   5.689
28869WAT     H186849   7.099   2.214   5.683
28869WAT     H286850   7.253   2.198   5.632
28870WAT      O86851   3.897   3.870   8.055
28870WAT     H186852   3.868   3.942   7.992
28870WAT     H286853   3.983   3.831   8.024
28871WAT      O86854   0.390   8.369   2.975
28871WAT     H186855   0.440   8.369   3.062
28871WAT     H286856   0.398   8.279   2.933
28872WAT      O86857   2.461   7.788   5.321
28872WAT     H186858   2.453   7.876   5.274
28872WAT     H286859   2.551   7.749   5.302
28873WAT      O86860   8.611   1.702   2.326
28873WAT     H186861   8.601   1.713   2.425
28873WAT     H286862   8.627   1.606   2.305
28874WAT      O86863   6.319   0.134   1.951
28874WAT     H186864   6.256   0.195   1.903
28874WAT     H286865   6.371   0.185   2.019
28875WAT      O86866   3.214   1.218   1.448
28875WAT     H186867   3.155   1.298   1.460
28875WAT     H286868   3.201   1.180   1.357
28876WAT      O86869   6.120   6.402   4.802
28876WAT     H186870   6.181   6.391   4.724
28876WAT     H286871   6.172   6.392   4.887
28877WAT      O86872   4.165   6.110   9.740
28877WAT     H186873   4.134   6.135   9.832
28877WAT     H286874   4.235   6.039   9.747
28878WAT      O86875   2.084   7.835   3.443
28878WAT     H186876   1.991   7.802   3.459
28878WAT     H286877   2.134   7.769   3.387
28879WAT      O86878   5.856   4.182   3.582
28879WAT     H186879   5.953   4.195   3.561
28879WAT     H286880   5.845   4.162   3.679
28880WAT      O86881   2.422   3.220   8.410
28880WAT     H186882   2.449   3.193   8.318
28880WAT     H286883   2.504   3.245   8.462
28881WAT      O86884   3.443   4.167   5.695
28881WAT     H186885   3.433   4.182   5.596
28881WAT     H286886   3.480   4.076   5.711
28882WAT      O86887   1.362   7.269   5.508
28882WAT     H186888   1.324   7.181   5.535
28882WAT     H286889   1.288   7.335   5.496
28883WAT      O86890   9.696   3.252   9.822
28883WAT     H186891   9.601   3.243   9.851
28883WAT     H286892   9.748   3.301   9.892
28884WAT      O86893   7.442   8.165   8.008
28884WAT     H186894   7.533   8.196   8.037
28884WAT     H286895   7.441   8.152   7.909
28885WAT      O86896   6.833   8.983   7.416
28885WAT     H186897   6.749   8.937   7.446
28885WAT     H286898   6.912   8.940   7.459
28886WAT      O86899   8.196   9.299   3.829
28886WAT     H186900   8.292   9.294   3.801
28886WAT     H286901   8.186   9.258   3.920
28887WAT      O86902   9.415   2.609   9.720
28887WAT     H186903   9.502   2.651   9.749
28887WAT     H286904   9.434   2.534   9.657
28888WAT      O86905   8.198   5.976   5.965
28888WAT     H186906   8.154   5.999   5.878
28888WAT     H286907   8.297   5.984   5.955
28889WAT      O86908   5.927   0.537   6.010
28889WAT     H186909   5.997   0.597   6.049
28889WAT     H286910   5.944   0.526   5.912
28890WAT      O86911   4.212   7.060   7.730
28890WAT     H186912   4.185   7.100   7.817
28890WAT     H286913   4.262   7.128   7.676
28891WAT      O86914   3.918   6.340   1.035
28891WAT     H186915   3.894   6.426   1.081
28891WAT     H286916   4.004   6.352   0.985
28892WAT      O86917   4.297   1.637   5.386
28892WAT     H186918   4.329   1.582   5.463
28892WAT     H286919   4.255   1.722   5.420
28893WAT      O86920   4.143   8.819   2.990
28893WAT     H186921   4.110   8.739   2.940
28893WAT     H286922   4.176   8.790   3.080
28894WAT      O86923   7.418   3.181   5.317
28894WAT     H186924   7.338   3.201   5.261
28894WAT     H286925   7.499   3.172   5.259
28895WAT      O86926   9.016   4.329   0.986
28895WAT     H186927   8.936   4.368   1.030
28895WAT     H286928   9.000   4.322   0.887
28896WAT      O86929   2.120   1.497   7.032
28896WAT     H186930   2.163   1.414   7.067
28896WAT     H286931   2.102   1.487   6.934
28897WAT      O86932   4.339   2.619   3.080
28897WAT     H186933   4.301   2.642   3.170
28897WAT     H286934   4.276   2.556   3.033
28898WAT      O86935   3.819   2.439   2.555
28898WAT     H186936   3.809   2.342   2.532
28898WAT     H286937   3.830   2.449   2.653
28899WAT      O86938   8.718   1.625   1.615
28899WAT     H186939   8.636   1.628   1.671
28899WAT     H286940   8.705   1.681   1.533
28900WAT      O86941   6.066   4.824   7.729
28900WAT     H186942   6.159   4.844   7.699
28900WAT     H286943   6.018   4.909   7.749
28901WAT      O86944   0.603   7.796   7.830
28901WAT     H186945   0.700   7.798   7.804
28901WAT     H286946   0.588   7.722   7.897
28902WAT      O86947   5.011   8.997   2.684
28902WAT     H186948   4.971   8.914   2.724
28902WAT     H286949   5.101   9.012   2.725
28903WAT      O86950   5.245   9.782   5.283
28903WAT     H186951   5.341   9.763   5.299
28903WAT     H286952   5.222   9.873   5.318
28904WAT      O86953   9.680   7.356   5.672
28904WAT     H186954   9.746   7.285   5.648
28904WAT     H286955   9.626   7.380   5.591
28905WAT      O86956   7.629   9.692   5.237
28905WAT     H186957   7.653   9.722   5.145
28905WAT     H286958   7.577   9.764   5.283
28906WAT      O86959   4.466   5.704   1.410
28906WAT     H186960   4.375   5.743   1.424
28906WAT     H286961   4.530   5.776   1.383
28907WAT      O86962   2.762   3.038   9.818
28907WAT     H186963   2.792   3.133   9.828
28907WAT     H286964   2.824   2.978   9.868
28908WAT      O86965   9.509   8.378   7.391
28908WAT     H186966   9.604   8.360   7.418
28908WAT     H286967   9.495   8.345   7.298
28909WAT      O86968   7.391   1.065   9.555
28909WAT     H186969   7.482   1.072   9.597
28909WAT     H286970   7.339   1.148   9.575
28910WAT      O86971   4.793   3.033   9.202
28910WAT     H186972   4.873   3.028   9.262
28910WAT     H286973   4.823   3.043   9.107
28911WAT      O86974   0.914   6.022   6.183
28911WAT     H186975   0.833   5.973   6.216
28911WAT     H286976   0.900   6.049   6.088
28912WAT      O86977   4.034   5.713   9.347
28912WAT     H186978   4.044   5.760   9.259
28912WAT     H286979   4.046   5.615   9.334
28913WAT      O86980   0.257   8.535   0.650
28913WAT     H186981   0.171   8.485   0.645
28913WAT     H286982   0.256   8.611   0.586
28914WAT      O86983   0.519   6.686   0.426
28914WAT     H186984   0.604   6.648   0.388
28914WAT     H286985   0.441   6.635   0.389
28915WAT      O86986   0.342   0.672   5.108
28915WAT     H186987   0.251   0.679   5.067
28915WAT     H286988   0.368   0.575   5.114
28916WAT      O86989   8.670   9.774   5.826
28916WAT     H186990   8.675   9.686   5.778
28916WAT     H286991   8.709   9.846   5.769
28917WAT      O86992   7.981   8.512   3.438
28917WAT     H186993   8.078   8.529   3.422
28917WAT     H286994   7.967   8.416   3.459
28918WAT      O86995   1.483   2.988   7.481
28918WAT     H186996   1.516   2.894   7.477
28918WAT     H286997   1.385   2.988   7.504
28919WAT      O86998   7.375   2.467   6.244
28919WAT     H186999   7.301   2.531   6.264
28919WAT     H287000   7.344   2.374   6.263
28920WAT      O87001   3.202   4.132   9.368
28920WAT     H187002   3.202   4.036   9.396
28920WAT     H287003   3.210   4.190   9.449
28921WAT      O87004   0.608   3.149   2.068
28921WAT     H187005   0.625   3.086   2.143
28921WAT     H287006   0.687   3.149   2.006
28922WAT      O87007   6.358   6.624   5.246
28922WAT     H187008   6.275   6.680   5.246
28922WAT     H287009   6.437   6.681   5.224
28923WAT      O87010   4.069   2.455   2.698
28923WAT     H187011   3.989   2.499   2.739
28923WAT     H287012   4.041   2.372   2.650
28924WAT      O87013   6.091   1.797   5.419
28924WAT     H187014   6.076   1.700   5.400
28924WAT     H287015   6.018   1.851   5.375
28925WAT      O87016   1.951   0.567   5.091
28925WAT     H187017   2.007   0.623   5.030
28925WAT     H287018   1.922   0.623   5.169
28926WAT      O87019   2.491   1.969   5.605
28926WAT     H187020   2.421   1.964   5.534
28926WAT     H287021   2.548   2.050   5.590
28927WAT      O87022   2.824   0.076   0.594
28927WAT     H187023   2.902   0.014   0.600
28927WAT     H287024   2.801   0.091   0.498
28928WAT      O87025   8.225   0.311   3.306
28928WAT     H187026   8.134   0.269   3.305
28928WAT     H287027   8.216   0.410   3.296
28929WAT      O87028   0.757   2.453   2.429
28929WAT     H187029   0.681   2.481   2.370
28929WAT     H287030   0.720   2.413   2.513
28930WAT      O87031   1.835   4.977   8.455
28930WAT     H187032   1.764   5.021   8.509
28930WAT     H287033   1.816   4.988   8.358
28931WAT      O87034   2.189   4.972   6.812
28931WAT     H187035   2.112   4.961   6.750
28931WAT     H287036   2.222   4.883   6.841
28932WAT      O87037   4.981   2.421   2.476
28932WAT     H187038   4.906   2.442   2.414
28932WAT     H287039   4.953   2.349   2.539
28933WAT      O87040   4.250   9.318   6.069
28933WAT     H187041   4.211   9.226   6.077
28933WAT     H287042   4.278   9.335   5.975
28934WAT      O87043   1.959   3.835   2.000
28934WAT     H187044   2.054   3.809   1.981
28934WAT     H287045   1.956   3.890   2.084
28935WAT      O87046   8.222   4.698   3.774
28935WAT     H187047   8.158   4.732   3.843
28935WAT     H287048   8.187   4.721   3.683
28936WAT      O87049   0.542   8.258   7.380
28936WAT     H187050   0.545   8.197   7.301
28936WAT     H287051   0.607   8.332   7.368
28937WAT      O87052   4.504   0.578   9.520
28937WAT     H187053   4.532   0.482   9.515
28937WAT     H287054   4.544   0.619   9.602
28938WAT      O87055   7.576   8.475   4.685
28938WAT     H187056   7.648   8.409   4.706
28938WAT     H287057   7.596   8.519   4.597
28939WAT      O87058   7.161   1.902   8.672
28939WAT     H187059   7.152   1.844   8.754
28939WAT     H287060   7.118   1.990   8.689
28940WAT      O87061   6.125   1.223   2.446
28940WAT     H187062   6.062   1.164   2.395
28940WAT     H287063   6.182   1.167   2.506
28941WAT      O87064   5.933   6.575   4.566
28941WAT     H187065   5.959   6.594   4.660
28941WAT     H287066   5.840   6.606   4.550
28942WAT      O87067   9.444   6.378   8.863
28942WAT     H187068   9.511   6.304   8.864
28942WAT     H287069   9.356   6.343   8.894
28943WAT      O87070   6.141   3.598   8.649
28943WAT     H187071   6.071   3.527   8.644
28943WAT     H287072   6.191   3.601   8.562
28944WAT      O87073   2.120   4.867   2.617
28944WAT     H187074   2.141   4.855   2.520
28944WAT     H287075   2.045   4.932   2.627
28945WAT      O87076   2.927   6.605   5.417
28945WAT     H187077   2.930   6.560   5.506
28945WAT     H287078   2.964   6.544   5.347
28946WAT      O87079   2.374   3.021   1.145
28946WAT     H187080   2.343   3.064   1.230
28946WAT     H287081   2.328   2.934   1.132
28947WAT      O87082   8.691   8.879   8.882
28947WAT     H187083   8.660   8.974   8.885
28947WAT     H287084   8.697   8.850   8.786
28948WAT      O87085   8.376   9.833   5.334
28948WAT     H187086   8.409   9.826   5.239
28948WAT     H287087   8.411   9.755   5.387
28949WAT      O87088   0.074   0.994   5.265
28949WAT     H187089   0.065   1.059   5.341
28949WAT     H287090   0.076   1.044   5.179
28950WAT      O87091   5.565   2.862   5.500
28950WAT     H187092   5.519   2.891   5.584
28950WAT     H287093   5.656   2.828   5.523
28951WAT      O87094   8.656   6.069   6.333
28951WAT     H187095   8.755   6.055   6.337
28951WAT     H287096   8.629   6.137   6.402
28952WAT      O87097   6.288   5.798   8.157
28952WAT     H187098   6.201   5.806   8.205
28952WAT     H287099   6.283   5.850   8.072
28953WAT      O87100   6.602   8.752   0.851
28953WAT     H187101   6.622   8.832   0.793
28953WAT     H287102   6.666   8.678   0.829
28954WAT      O87103   5.048   2.603   4.602
28954WAT     H187104   4.962   2.565   4.637
28954WAT     H287105   5.029   2.686   4.550
28955WAT      O87106   3.676   5.521   6.444
28955WAT     H187107   3.604   5.522   6.514
28955WAT     H287108   3.635   5.504   6.354
28956WAT      O87109   6.948   5.086   3.284
28956WAT     H187110   7.033   5.123   3.321
28956WAT     H287111   6.969   5.029   3.204
28957WAT      O87112   7.286   5.059   5.564
28957WAT     H187113   7.285   5.010   5.477
28957WAT     H287114   7.194   5.059   5.603
28958WAT      O87115   3.828   5.110   0.644
28958WAT     H187116   3.770   5.075   0.571
28958WAT     H287117   3.918   5.132   0.608
28959WAT      O87118   7.382   0.270   6.349
28959WAT     H187119   7.412   0.291   6.442
28959WAT     H287120   7.283   0.251   6.350
28960WAT      O87121   5.701   1.073   2.810
28960WAT     H187122   5.705   0.981   2.848
28960WAT     H287123   5.617   1.083   2.755
28961WAT      O87124   7.952   1.636   8.325
28961WAT     H187125   7.925   1.597   8.413
28961WAT     H287126   7.878   1.624   8.259
28962WAT      O87127   2.649   1.101   8.534
28962WAT     H187128   2.743   1.080   8.507
28962WAT     H287129   2.650   1.149   8.621
28963WAT      O87130   1.094   2.003   7.535
28963WAT     H187131   1.177   2.053   7.561
28963WAT     H287132   1.105   1.906   7.558
28964WAT      O87133   3.094   4.734   1.165
28964WAT     H187134   3.141   4.645   1.165
28964WAT     H287135   3.149   4.801   1.214
28965WAT      O87136   5.696   7.956   4.156
28965WAT     H187137   5.693   8.056   4.154
28965WAT     H287138   5.613   7.920   4.197
28966WAT      O87139   3.361   6.851   0.748
28966WAT     H187140   3.451   6.875   0.785
28966WAT     H287141   3.291   6.872   0.815
28967WAT      O87142   3.538   9.754   0.213
28967WAT     H187143   3.551   9.815   0.291
28967WAT     H287144   3.620   9.698   0.200
28968WAT      O87145   6.321   8.484   6.318
28968WAT     H187146   6.237   8.433   6.337
28968WAT     H287147   6.375   8.493   6.401
28969WAT      O87148   3.791   7.041   2.649
28969WAT     H187149   3.809   7.009   2.556
28969WAT     H287150   3.866   7.013   2.709
28970WAT      O87151   8.504   7.327   8.907
28970WAT     H187152   8.581   7.389   8.893
28970WAT     H287153   8.419   7.371   8.879
28971WAT      O87154   4.215   2.899   8.512
28971WAT     H187155   4.290   2.837   8.490
28971WAT     H287156   4.172   2.932   8.428
28972WAT      O87157   1.478   3.653   4.622
28972WAT     H187158   1.506   3.580   4.685
28972WAT     H287159   1.543   3.658   4.547
28973WAT      O87160   2.038   1.559   3.729
28973WAT     H187161   2.088   1.606   3.656
28973WAT     H287162   1.977   1.491   3.690
28974WAT      O87163   3.547   4.122   4.562
28974WAT     H187164   3.472   4.094   4.502
28974WAT     H287165   3.588   4.207   4.528
28975WAT      O87166   0.491   8.359   7.051
28975WAT     H187167   0.486   8.264   7.080
28975WAT     H287168   0.400   8.392   7.027
28976WAT      O87169   3.139   0.885   7.059
28976WAT     H187170   3.069   0.904   6.990
28976WAT     H287171   3.199   0.965   7.068
28977WAT      O87172   1.436   4.364   0.783
28977WAT     H187173   1.381   4.426   0.727
28977WAT     H287174   1.516   4.334   0.731
28978WAT      O87175   9.366   7.831   6.459
28978WAT     H187176   9.319   7.881   6.386
28978WAT     H287177   9.382   7.737   6.430
28979WAT      O87178   4.715   0.301   9.120
28979WAT     H187179   4.621   0.270   9.118
28979WAT     H287180   4.773   0.232   9.162
28980WAT      O87181   4.424   4.975   3.172
28980WAT     H187182   4.464   4.883   3.166
28980WAT     H287183   4.456   5.030   3.095
28981WAT      O87184   0.699   4.400   9.841
28981WAT     H187185   0.680   4.447   9.927
28981WAT     H287186   0.795   4.374   9.837
28982WAT      O87187   9.168   3.195   4.859
28982WAT     H187188   9.212   3.121   4.909
28982WAT     H287189   9.115   3.252   4.922
28983WAT      O87190   3.693   0.868   4.549
28983WAT     H187191   3.699   0.884   4.647
28983WAT     H287192   3.782   0.883   4.506
28984WAT      O87193   3.428   1.484   8.779
28984WAT     H187194   3.517   1.489   8.734
28984WAT     H287195   3.357   1.465   8.711
28985WAT      O87196   9.077   1.615   7.399
28985WAT     H187197   9.150   1.667   7.443
28985WAT     H287198   9.083   1.627   7.299
28986WAT      O87199   2.370   2.651   0.187
28986WAT     H187200   2.400   2.723   0.124
28986WAT     H287201   2.345   2.570   0.135
28987WAT      O87202   4.218   6.571   0.627
28987WAT     H187203   4.253   6.585   0.720
28987WAT     H287204   4.169   6.484   0.623
28988WAT      O87205   9.485   2.891   3.612
28988WAT     H187206   9.436   2.847   3.687
28988WAT     H287207   9.462   2.847   3.525
28989WAT      O87208   6.051   3.299   0.723
28989WAT     H187209   6.074   3.263   0.813
28989WAT     H287210   6.103   3.250   0.653
28990WAT      O87211   2.673   5.091   0.264
28990WAT     H187212   2.592   5.147   0.247
28990WAT     H287213   2.689   5.086   0.363
28991WAT      O87214   8.028   2.481   0.796
28991WAT     H187215   8.073   2.420   0.731
28991WAT     H287216   7.955   2.432   0.843
28992WAT      O87217   8.574   7.591   8.124
28992WAT     H187218   8.613   7.625   8.210
28992WAT     H287219   8.646   7.582   8.056
28993WAT      O87220   5.254   8.154   3.656
28993WAT     H187221   5.180   8.217   3.680
28993WAT     H287222   5.307   8.193   3.580
28994WAT      O87223   0.399   8.855   3.168
28994WAT     H187224   0.378   8.800   3.087
28994WAT     H287225   0.396   8.952   3.143
28995WAT      O87226   0.398   7.061   3.175
28995WAT     H187227   0.420   7.042   3.271
28995WAT     H287228   0.421   6.981   3.119
28996WAT      O87229   6.159   2.724   8.998
28996WAT     H187230   6.159   2.667   8.916
28996WAT     H287231   6.181   2.669   9.078
28997WAT      O87232   1.420   4.298   9.063
28997WAT     H187233   1.393   4.202   9.058
28997WAT     H287234   1.341   4.352   9.091
28998WAT      O87235   5.885   9.438   9.022
28998WAT     H187236   5.869   9.418   9.119
28998WAT     H287237   5.856   9.360   8.967
28999WAT      O87238   8.347   0.351   9.560
28999WAT     H187239   8.282   0.335   9.486
28999WAT     H287240   8.305   0.326   9.648
29000WAT      O87241   6.576   9.146   7.111
29000WAT     H187242   6.672   9.160   7.085
29000WAT     H287243   6.561   9.050   7.131
29001WAT      O87244   4.958   4.641   4.390
29001WAT     H187245   5.014   4.590   4.455
29001WAT     H287246   4.876   4.675   4.436
29002WAT      O87247   7.408   7.679   1.952
29002WAT     H187248   7.334   7.743   1.971
29002WAT     H287249   7.496   7.721   1.974
29003WAT      O87250   6.065   9.487   2.764
29003WAT     H187251   6.027   9.395   2.776
29003WAT     H287252   6.144   9.499   2.824
29004WAT      O87253   3.822   2.683   7.848
29004WAT     H187254   3.909   2.703   7.891
29004WAT     H287255   3.817   2.730   7.759
29005WAT      O87256   8.179   7.442   5.488
29005WAT     H187257   8.080   7.446   5.494
29005WAT     H287258   8.216   7.534   5.485
29006WAT      O87259   5.378   7.824   6.694
29006WAT     H187260   5.442   7.856   6.624
29006WAT     H287261   5.428   7.801   6.778
29007WAT      O87262   0.774   2.735   4.030
29007WAT     H187263   0.803   2.825   3.999
29007WAT     H287264   0.795   2.724   4.127
29008WAT      O87265   9.456   9.090   4.204
29008WAT     H187266   9.416   9.020   4.264
29008WAT     H287267   9.391   9.164   4.190
29009WAT      O87268   5.362   1.423   1.089
29009WAT     H187269   5.358   1.512   1.042
29009WAT     H287270   5.441   1.372   1.055
29010WAT      O87271   5.940   9.797   2.292
29010WAT     H187272   6.011   9.860   2.321
29010WAT     H287273   5.948   9.712   2.344
29011WAT      O87274   3.859   0.155   9.131
29011WAT     H187275   3.824   0.240   9.091
29011WAT     H287276   3.944   0.129   9.085
29012WAT      O87277   1.118   9.210   4.444
29012WAT     H187278   1.089   9.118   4.469
29012WAT     H287279   1.216   9.211   4.426
29013WAT      O87280   3.249   4.134   7.509
29013WAT     H187281   3.343   4.144   7.476
29013WAT     H287282   3.249   4.136   7.609
29014WAT      O87283   9.349   6.522   2.330
29014WAT     H187284   9.384   6.552   2.419
29014WAT     H287285   9.363   6.423   2.320
29015WAT      O87286   1.904   5.241   3.692
29015WAT     H187287   1.979   5.236   3.626
29015WAT     H287288   1.917   5.322   3.750
29016WAT      O87289   8.940   5.044   9.793
29016WAT     H187290   8.856   5.098   9.787
29016WAT     H287291   9.010   5.082   9.733
29017WAT      O87292   3.216   4.937   5.652
29017WAT     H187293   3.276   4.901   5.580
29017WAT     H287294   3.125   4.898   5.641
29018WAT      O87295   3.166   8.730   8.092
29018WAT     H187296   3.131   8.730   8.186
29018WAT     H287297   3.234   8.657   8.082
29019WAT      O87298   5.802   7.740   7.105
29019WAT     H187299   5.894   7.726   7.070
29019WAT     H287300   5.749   7.656   7.094
29020WAT      O87301   1.131   5.569   7.431
29020WAT     H187302   1.084   5.537   7.348
29020WAT     H287303   1.174   5.657   7.413
29021WAT      O87304   3.238   6.123   6.388
29021WAT     H187305   3.228   6.162   6.480
29021WAT     H287306   3.333   6.095   6.374
29022WAT      O87307   5.159   6.254   6.289
29022WAT     H187308   5.088   6.323   6.299
29022WAT     H287309   5.117   6.164   6.273
29023WAT      O87310   6.640   7.823   2.608
29023WAT     H187311   6.657   7.814   2.510
29023WAT     H287312   6.715   7.873   2.651
29024WAT      O87313   2.888   5.735   7.361
29024WAT     H187314   2.925   5.666   7.423
29024WAT     H287315   2.950   5.746   7.282
29025WAT      O87316   7.833   7.544   3.261
29025WAT     H187317   7.863   7.624   3.314
29025WAT     H287318   7.838   7.462   3.317
29026WAT      O87319   8.272   4.528   7.749
29026WAT     H187320   8.311   4.614   7.716
29026WAT     H287321   8.185   4.510   7.702
29027WAT      O87322   9.834   6.107   9.055
29027WAT     H187323   9.814   6.071   9.146
29027WAT     H287324   9.817   6.036   8.986
29028WAT      O87325   1.139   0.274   5.605
29028WAT     H187326   1.041   0.293   5.609
29028WAT     H287327   1.180   0.319   5.526
29029WAT      O87328   0.807   1.645   5.269
29029WAT     H187329   0.818   1.571   5.336
29029WAT     H287330   0.734   1.621   5.205
29030WAT      O87331   8.472   1.366   3.510
29030WAT     H187332   8.399   1.402   3.568
29030WAT     H287333   8.561   1.393   3.548
29031WAT      O87334   6.502   1.460   0.733
29031WAT     H187335   6.508   1.419   0.823
29031WAT     H287336   6.456   1.549   0.739
29032WAT      O87337   0.280   4.791   3.466
29032WAT     H187338   0.217   4.851   3.516
29032WAT     H287339   0.261   4.696   3.490
29033WAT      O87340   1.328   5.364   0.407
29033WAT     H187341   1.292   5.326   0.492
29033WAT     H287342   1.380   5.294   0.358
29034WAT      O87343   3.034   0.590   7.368
29034WAT     H187344   2.939   0.615   7.353
29034WAT     H287345   3.070   0.637   7.448
29035WAT      O87346   2.077   4.545   3.012
29035WAT     H187347   2.149   4.585   3.069
29035WAT     H287348   2.001   4.516   3.069
29036WAT      O87349   0.548   7.306   9.085
29036WAT     H187350   0.594   7.223   9.115
29036WAT     H287351   0.583   7.384   9.136
29037WAT      O87352   8.682   8.305   2.610
29037WAT     H187353   8.677   8.226   2.672
29037WAT     H287354   8.591   8.343   2.597
29038WAT      O87355   1.674   6.395   2.797
29038WAT     H187356   1.710   6.418   2.887
29038WAT     H287357   1.684   6.473   2.736
29039WAT      O87358   1.234   6.526   1.835
29039WAT     H187359   1.234   6.434   1.876
29039WAT     H287360   1.141   6.560   1.830
29040WAT      O87361   3.690   4.631   9.530
29040WAT     H187362   3.768   4.584   9.489
29040WAT     H287363   3.672   4.716   9.481
29041WAT      O87364   7.018   5.281   9.697
29041WAT     H187365   6.965   5.323   9.771
29041WAT     H287366   7.060   5.353   9.642
29042WAT      O87367   0.385   8.632   2.626
29042WAT     H187368   0.403   8.609   2.530
29042WAT     H287369   0.314   8.571   2.662
29043WAT      O87370   5.927   6.956   0.173
29043WAT     H187371   5.994   6.953   0.248
29043WAT     H287372   5.837   6.979   0.210
29044WAT      O87373   0.898   9.737   9.363
29044WAT     H187374   0.947   9.819   9.335
29044WAT     H287375   0.901   9.669   9.289
29045WAT      O87376   8.550   7.375   4.210
29045WAT     H187377   8.527   7.382   4.113
29045WAT     H287378   8.649   7.364   4.220
29046WAT      O87379   5.407   4.273   4.203
29046WAT     H187380   5.472   4.348   4.187
29046WAT     H287381   5.325   4.310   4.248
29047WAT      O87382   6.759   6.523   0.467
29047WAT     H187383   6.819   6.477   0.533
29047WAT     H287384   6.803   6.607   0.436
29048WAT      O87385   5.822   6.972   7.162
29048WAT     H187386   5.728   6.939   7.155
29048WAT     H287387   5.824   7.070   7.138
29049WAT      O87388   6.597   6.226   2.540
29049WAT     H187389   6.646   6.288   2.602
29049WAT     H287390   6.558   6.151   2.593
29050WAT      O87391   5.691   7.333   4.852
29050WAT     H187392   5.790   7.325   4.857
29050WAT     H287393   5.650   7.293   4.934
29051WAT      O87394   6.602   8.419   0.299
29051WAT     H187395   6.623   8.329   0.259
29051WAT     H287396   6.515   8.452   0.262
29052WAT      O87397   0.165   1.860   2.546
29052WAT     H187398   0.152   1.793   2.619
29052WAT     H287399   0.252   1.908   2.561
29053WAT      O87400   1.057   0.751   2.132
29053WAT     H187401   1.016   0.809   2.063
29053WAT     H287402   1.028   0.656   2.118
29054WAT      O87403   8.268   4.091   2.443
29054WAT     H187404   8.366   4.077   2.426
29054WAT     H287405   8.226   4.130   2.361
29055WAT      O87406   9.006   9.090   5.172
29055WAT     H187407   9.043   9.000   5.196
29055WAT     H287408   8.953   9.083   5.088
29056WAT      O87409   1.779   5.348   5.563
29056WAT     H187410   1.710   5.340   5.491
29056WAT     H287411   1.748   5.298   5.644
29057WAT      O87412   4.557   3.478   2.162
29057WAT     H187413   4.480   3.538   2.182
29057WAT     H287414   4.590   3.438   2.248
29058WAT      O87415   3.225   0.500   5.991
29058WAT     H187416   3.317   0.524   5.960
29058WAT     H287417   3.161   0.572   5.964
29059WAT      O87418   7.140   9.224   3.226
29059WAT     H187419   7.169   9.140   3.273
29059WAT     H287420   7.140   9.300   3.291
29060WAT      O87421   3.386   4.638   1.404
29060WAT     H187422   3.412   4.622   1.499
29060WAT     H287423   3.352   4.732   1.394
29061WAT      O87424   0.090   4.919   0.521
29061WAT     H187425   0.116   4.929   0.617
29061WAT     H287426   0.078   4.822   0.500
29062WAT      O87427   5.068   6.766   9.050
29062WAT     H187428   5.140   6.705   9.083
29062WAT     H287429   5.014   6.798   9.128
29063WAT      O87430   6.269   4.914   2.598
29063WAT     H187431   6.368   4.908   2.584
29063WAT     H287432   6.223   4.921   2.510
29064WAT      O87433   5.300   4.904   9.310
29064WAT     H187434   5.397   4.914   9.286
29064WAT     H287435   5.259   4.995   9.320
29065WAT      O87436   7.074   0.145   3.020
29065WAT     H187437   7.112   0.081   3.088
29065WAT     H287438   7.144   0.211   2.995
29066WAT      O87439   0.298   4.310   6.676
29066WAT     H187440   0.271   4.387   6.734
29066WAT     H287441   0.247   4.228   6.704
29067WAT      O87442   5.930   6.153   5.051
29067WAT     H187443   5.894   6.096   5.125
29067WAT     H287444   6.025   6.179   5.072
29068WAT      O87445   6.653   6.460   5.538
29068WAT     H187446   6.698   6.425   5.456
29068WAT     H287447   6.708   6.435   5.618
29069WAT      O87448   6.391   8.102   9.193
29069WAT     H187449   6.377   8.113   9.095
29069WAT     H287450   6.307   8.128   9.242
29070WAT      O87451   2.073   5.273   4.110
29070WAT     H187452   2.089   5.270   4.208
29070WAT     H287453   2.158   5.297   4.063
29071WAT      O87454   4.876   0.667   7.213
29071WAT     H187455   4.809   0.723   7.164
29071WAT     H287456   4.906   0.714   7.296
29072WAT      O87457   7.533   4.842   7.069
29072WAT     H187458   7.475   4.798   7.137
29072WAT     H287459   7.577   4.772   7.012
29073WAT      O87460   8.106   2.196   1.825
29073WAT     H187461   8.023   2.149   1.796
29073WAT     H287462   8.086   2.294   1.838
29074WAT      O87463   1.681   4.079   0.886
29074WAT     H187464   1.760   4.140   0.899
29074WAT     H287465   1.685   4.040   0.794
29075WAT      O87466   0.495   0.682   5.401
29075WAT     H187467   0.403   0.721   5.398
29075WAT     H287468   0.537   0.688   5.310
29076WAT      O87469   4.826   0.749   0.223
29076WAT     H187470   4.735   0.788   0.234
29076WAT     H287471   4.886   0.783   0.296
29077WAT      O87472   2.392   4.865   1.310
29077WAT     H187473   2.396   4.847   1.211
29077WAT     H287474   2.404   4.778   1.359
29078WAT      O87475   6.470   0.532   6.052
29078WAT     H187476   6.489   0.527   5.954
29078WAT     H287477   6.459   0.440   6.089
29079WAT      O87478   1.641   8.073   2.287
29079WAT     H187479   1.552   8.096   2.325
29079WAT     H287480   1.708   8.065   2.362
29080WAT      O87481   2.950   7.789   6.945
29080WAT     H187482   2.917   7.704   6.903
29080WAT     H287483   3.005   7.767   7.026
29081WAT      O87484   4.500   2.793   3.174
29081WAT     H187485   4.449   2.719   3.130
29081WAT     H287486   4.436   2.861   3.209
29082WAT      O87487   9.602   1.708   6.970
29082WAT     H187488   9.662   1.656   7.032
29082WAT     H287489   9.566   1.646   6.900
29083WAT      O87490   1.776   5.764   8.765
29083WAT     H187491   1.766   5.741   8.668
29083WAT     H287492   1.708   5.832   8.790
29084WAT      O87493   0.456   9.821   9.187
29084WAT     H187494   0.511   9.831   9.271
29084WAT     H287495   0.471   9.900   9.128
29085WAT      O87496   8.008   6.062   0.163
29085WAT     H187497   8.048   5.976   0.197
29085WAT     H287498   7.934   6.091   0.223
29086WAT      O87499   1.540   1.379   3.207
29086WAT     H187500   1.597   1.385   3.125
29086WAT     H287501   1.580   1.312   3.270
29087WAT      O87502   3.995   6.994   2.037
29087WAT     H187503   3.912   7.022   1.988
29087WAT     H287504   3.976   6.909   2.087
29088WAT      O87505   0.110   6.050   1.708
29088WAT     H187506   0.100   5.984   1.783
29088WAT     H287507   0.031   6.045   1.648
29089WAT      O87508   4.647   4.061   9.617
29089WAT     H187509   4.629   4.116   9.536
29089WAT     H287510   4.744   4.038   9.622
29090WAT      O87511   7.953   9.194   6.863
29090WAT     H187512   7.899   9.176   6.945
29090WAT     H287513   8.046   9.219   6.888
29091WAT      O87514   7.169   1.319   7.721
29091WAT     H187515   7.106   1.318   7.644
29091WAT     H287516   7.249   1.264   7.700
29092WAT      O87517   4.229   1.606   8.677
29092WAT     H187518   4.220   1.573   8.771
29092WAT     H287519   4.311   1.663   8.669
29093WAT      O87520   3.855   7.928   8.776
29093WAT     H187521   3.935   7.965   8.823
29093WAT     H287522   3.845   7.974   8.688
29094WAT      O87523   5.280   5.518   5.093
29094WAT     H187524   5.273   5.505   5.192
29094WAT     H287525   5.286   5.428   5.048
29095WAT      O87526   5.907   1.176   8.160
29095WAT     H187527   5.878   1.084   8.134
29095WAT     H287528   5.976   1.169   8.233
29096WAT      O87529   3.733   9.313   9.156
29096WAT     H187530   3.771   9.403   9.176
29096WAT     H287531   3.740   9.296   9.057
29097WAT      O87532   8.180   2.105   6.115
29097WAT     H187533   8.168   2.184   6.176
29097WAT     H287534   8.240   2.038   6.159
29098WAT      O87535   1.802   5.412   6.856
29098WAT     H187536   1.800   5.501   6.901
29098WAT     H287537   1.820   5.424   6.758
29099WAT      O87538   2.336   1.989   4.148
29099WAT     H187539   2.375   1.914   4.200
29099WAT     H287540   2.263   2.033   4.201
29100WAT      O87541   5.036   8.266   4.052
29100WAT     H187542   5.038   8.349   3.996
29100WAT     H287543   5.130   8.234   4.068
29101WAT      O87544   2.393   3.770   2.493
29101WAT     H187545   2.392   3.823   2.408
29101WAT     H287546   2.364   3.829   2.569
29102WAT      O87547   3.702   2.403   3.028
29102WAT     H187548   3.723   2.387   3.125
29102WAT     H287549   3.618   2.354   3.004
29103WAT      O87550   6.190   9.438   7.871
29103WAT     H187551   6.164   9.428   7.776
29103WAT     H287552   6.219   9.349   7.907
29104WAT      O87553   7.852   8.252   3.040
29104WAT     H187554   7.951   8.246   3.056
29104WAT     H287555   7.811   8.311   3.109
29105WAT      O87556   6.157   7.698   4.063
29105WAT     H187557   6.157   7.627   4.133
29105WAT     H287558   6.075   7.755   4.074
29106WAT      O87559   4.385   1.163   5.498
29106WAT     H187560   4.333   1.181   5.582
29106WAT     H287561   4.363   1.233   5.430
29107WAT      O87562   0.041   4.725   0.071
29107WAT     H187563   0.037   4.670  -0.012
29107WAT     H287564   0.131   4.713   0.114
29108WAT      O87565   9.695   9.129   8.796
29108WAT     H187566   9.597   9.144   8.803
29108WAT     H287567   9.743   9.217   8.791
29109WAT      O87568   8.550   9.245   9.501
29109WAT     H187569   8.493   9.295   9.436
29109WAT     H287570   8.596   9.170   9.454
29110WAT      O87571   6.230   1.725   5.639
29110WAT     H187572   6.188   1.746   5.550
29110WAT     H287573   6.182   1.649   5.681
29111WAT      O87574   3.429   9.841   6.609
29111WAT     H187575   3.505   9.781   6.636
29111WAT     H287576   3.366   9.852   6.686
29112WAT      O87577   3.924   0.087   8.340
29112WAT     H187578   4.006   0.080   8.282
29112WAT     H287579   3.878   0.173   8.321
29113WAT      O87580   5.834   2.159   3.420
29113WAT     H187581   5.809   2.252   3.393
29113WAT     H287582   5.760   2.096   3.395
29114WAT      O87583   6.684   2.371   8.143
29114WAT     H187584   6.605   2.385   8.082
29114WAT     H287585   6.755   2.438   8.122
29115WAT      O87586   7.244   1.044   3.085
29115WAT     H187587   7.233   0.977   3.011
29115WAT     H287588   7.311   1.010   3.151
29116WAT      O87589   3.882   4.386   5.243
29116WAT     H187590   3.889   4.293   5.207
29116WAT     H287591   3.968   4.411   5.287
29117WAT      O87592   3.161   3.490   5.178
29117WAT     H187593   3.244   3.545   5.174
29117WAT     H287594   3.137   3.459   5.086
29118WAT      O87595   8.445   5.365   8.730
29118WAT     H187596   8.443   5.465   8.729
29118WAT     H287597   8.526   5.333   8.680
29119WAT      O87598   9.561   8.466   0.800
29119WAT     H187599   9.625   8.533   0.763
29119WAT     H287600   9.586   8.444   0.895
29120WAT      O87601   5.373   6.706   3.556
29120WAT     H187602   5.371   6.718   3.655
29120WAT     H287603   5.468   6.698   3.525
29121WAT      O87604   4.699   0.091   4.067
29121WAT     H187605   4.769   0.050   4.009
29121WAT     H287606   4.727   0.081   4.163
29122WAT      O87607   1.625   3.228   7.418
29122WAT     H187608   1.694   3.265   7.480
29122WAT     H287609   1.576   3.154   7.464
29123WAT      O87610   0.061   0.567   0.092
29123WAT     H187611   0.117   0.614   0.159
29123WAT     H287612   0.118   0.501   0.041
29124WAT      O87613   0.647   8.388   2.569
29124WAT     H187614   0.615   8.428   2.655
29124WAT     H287615   0.742   8.358   2.580
29125WAT      O87616   8.690   2.692   7.290
29125WAT     H187617   8.697   2.778   7.340
29125WAT     H287618   8.616   2.637   7.330
29126WAT      O87619   9.363   1.626   5.456
29126WAT     H187620   9.406   1.541   5.484
29126WAT     H287621   9.396   1.701   5.514
29127WAT      O87622   4.461   0.776   2.577
29127WAT     H187623   4.505   0.709   2.637
29127WAT     H287624   4.376   0.738   2.540
29128WAT      O87625   0.812   3.194   0.732
29128WAT     H187626   0.783   3.098   0.727
29128WAT     H287627   0.860   3.210   0.818
29129WAT      O87628   0.235   7.726   5.975
29129WAT     H187629   0.313   7.759   6.029
29129WAT     H287630   0.258   7.637   5.936
29130WAT      O87631   2.289   1.226   1.561
29130WAT     H187632   2.206   1.190   1.603
29130WAT     H287633   2.352   1.257   1.632
29131WAT      O87634   7.800   1.081   9.311
29131WAT     H187635   7.757   1.012   9.253
29131WAT     H287636   7.775   1.172   9.278
29132WAT      O87637   4.003   7.027   2.812
29132WAT     H187638   4.048   6.944   2.845
29132WAT     H287639   4.063   7.105   2.828
29133WAT      O87640   1.870   4.618   7.467
29133WAT     H187641   1.950   4.658   7.512
29133WAT     H287642   1.791   4.679   7.480
29134WAT      O87643   3.732   5.088   5.190
29134WAT     H187644   3.800   5.113   5.259
29134WAT     H287645   3.758   5.126   5.101
29135WAT      O87646   0.824   7.633   5.861
29135WAT     H187647   0.836   7.623   5.960
29135WAT     H287648   0.803   7.728   5.839
29136WAT      O87649   5.891   7.214   8.280
29136WAT     H187650   5.967   7.188   8.339
29136WAT     H287651   5.882   7.313   8.277
29137WAT      O87652   7.826   9.428   3.612
29137WAT     H187653   7.827   9.330   3.595
29137WAT     H287654   7.794   9.476   3.531
29138WAT      O87655   7.081   7.777   9.518
29138WAT     H187656   7.078   7.848   9.448
29138WAT     H287657   7.177   7.758   9.541
29139WAT      O87658   2.510   6.949   2.455
29139WAT     H187659   2.451   6.960   2.535
29139WAT     H287660   2.504   6.855   2.421
29140WAT      O87661   3.137   2.904   8.621
29140WAT     H187662   3.199   2.979   8.644
29140WAT     H287663   3.138   2.889   8.523
29141WAT      O87664   8.607   4.304   8.505
29141WAT     H187665   8.634   4.344   8.592
29141WAT     H287666   8.532   4.241   8.519
29142WAT      O87667   1.038   0.784   6.225
29142WAT     H187668   1.061   0.881   6.233
29142WAT     H287669   1.006   0.764   6.133
29143WAT      O87670   6.172   0.111   5.793
29143WAT     H187671   6.192   0.073   5.703
29143WAT     H287672   6.256   0.114   5.847
29144WAT      O87673   4.340   1.734   0.980
29144WAT     H187674   4.382   1.667   1.041
29144WAT     H287675   4.396   1.744   0.898
29145WAT      O87676   0.234   5.860   2.966
29145WAT     H187677   0.167   5.904   2.908
29145WAT     H287678   0.283   5.790   2.914
29146WAT      O87679   5.716   7.257   2.990
29146WAT     H187680   5.795   7.222   3.040
29146WAT     H287681   5.742   7.274   2.895
29147WAT      O87682   1.694   3.906   0.132
29147WAT     H187683   1.702   3.813   0.168
29147WAT     H287684   1.764   3.920   0.061
29148WAT      O87685   1.363   9.221   3.997
29148WAT     H187686   1.287   9.155   3.992
29148WAT     H287687   1.340   9.293   4.062
29149WAT      O87688   7.617   9.803   7.751
29149WAT     H187689   7.715   9.785   7.748
29149WAT     H287690   7.599   9.899   7.733
29150WAT      O87691   6.362   1.503   3.199
29150WAT     H187692   6.370   1.547   3.288
29150WAT     H287693   6.266   1.482   3.180
29151WAT      O87694   8.581   4.698   0.005
29151WAT     H187695   8.549   4.608  -0.024
29151WAT     H287696   8.679   4.707  -0.015
29152WAT      O87697   1.414   2.090   1.198
29152WAT     H187698   1.336   2.071   1.140
29152WAT     H287699   1.495   2.044   1.161
29153WAT      O87700   0.733   4.728   2.978
29153WAT     H187701   0.770   4.636   2.985
29153WAT     H287702   0.662   4.731   2.909
29154WAT      O87703   2.348   6.186   7.299
29154WAT     H187704   2.385   6.227   7.383
29154WAT     H287705   2.382   6.092   7.291
29155WAT      O87706   3.638   4.967   9.000
29155WAT     H187707   3.676   4.997   8.913
29155WAT     H287708   3.662   5.033   9.072
29156WAT      O87709   2.708   7.958   8.900
29156WAT     H187710   2.799   7.999   8.901
29156WAT     H287711   2.670   7.958   8.993
29157WAT      O87712   5.205   5.780   2.585
29157WAT     H187713   5.253   5.839   2.521
29157WAT     H287714   5.192   5.690   2.544
29158WAT      O87715   7.029   1.247   3.688
29158WAT     H187716   7.043   1.213   3.594
29158WAT     H287717   6.978   1.333   3.684
29159WAT      O87718   5.232   6.586   6.651
29159WAT     H187719   5.295   6.548   6.583
29159WAT     H287720   5.283   6.613   6.733
29160WAT      O87721   0.014   4.358   2.978
29160WAT     H187722   0.030   4.408   3.062
29160WAT     H287723   0.052   4.408   2.901
29161WAT      O87724   1.984   5.956   7.491
29161WAT     H187725   2.020   5.948   7.584
29161WAT     H287726   2.034   5.894   7.430
29162WAT      O87727   8.353   8.300   5.435
29162WAT     H187728   8.415   8.242   5.382
29162WAT     H287729   8.393   8.392   5.443
29163WAT      O87730   1.920   0.540   4.421
29163WAT     H187731   1.974   0.591   4.488
29163WAT     H287732   1.825   0.572   4.423
29164WAT      O87733   9.308   0.845   2.200
29164WAT     H187734   9.328   0.943   2.209
29164WAT     H287735   9.311   0.820   2.103
29165WAT      O87736   3.594   7.899   7.997
29165WAT     H187737   3.576   7.889   7.899
29165WAT     H287738   3.582   7.995   8.023
29166WAT      O87739   6.099   5.267   2.046
29166WAT     H187740   6.046   5.223   1.974
29166WAT     H287741   6.196   5.265   2.022
29167WAT      O87742   1.232   8.448   8.661
29167WAT     H187743   1.257   8.454   8.758
29167WAT     H287744   1.271   8.526   8.612
29168WAT      O87745   6.666   0.841   5.417
29168WAT     H187746   6.590   0.906   5.424
29168WAT     H287747   6.719   0.842   5.502
29169WAT      O87748   5.426   3.803   2.851
29169WAT     H187749   5.406   3.743   2.774
29169WAT     H287750   5.401   3.757   2.936
29170WAT      O87751   8.771   0.695   6.593
29170WAT     H187752   8.723   0.624   6.643
29170WAT     H287753   8.790   0.772   6.654
29171WAT      O87754   4.873   8.028   4.184
29171WAT     H187755   4.903   8.107   4.132
29171WAT     H287756   4.815   8.058   4.260
29172WAT      O87757   5.255   6.735   8.801
29172WAT     H187758   5.222   6.760   8.892
29172WAT     H287759   5.337   6.789   8.779
29173WAT      O87760   5.482   5.232   9.863
29173WAT     H187761   5.443   5.287   9.937
29173WAT     H287762   5.574   5.266   9.842
29174WAT      O87763   4.512   3.811   8.607
29174WAT     H187764   4.559   3.875   8.669
29174WAT     H287765   4.543   3.829   8.513
29175WAT      O87766   6.974   6.772   4.098
29175WAT     H187767   7.044   6.829   4.054
29175WAT     H287768   6.929   6.716   4.028
29176WAT      O87769   9.076   7.516   6.638
29176WAT     H187770   9.064   7.615   6.629
29176WAT     H287771   9.150   7.498   6.703
29177WAT      O87772   1.205   0.742   1.161
29177WAT     H187773   1.231   0.789   1.077
29177WAT     H287774   1.162   0.654   1.139
29178WAT      O87775   4.504   8.630   5.060
29178WAT     H187776   4.587   8.581   5.089
29178WAT     H287777   4.516   8.728   5.075
29179WAT      O87778   1.820   4.281   4.071
29179WAT     H187779   1.756   4.229   4.128
29179WAT     H287780   1.913   4.249   4.088
29180WAT      O87781   5.347   7.935   1.701
29180WAT     H187782   5.424   7.983   1.659
29180WAT     H287783   5.370   7.909   1.795
29181WAT      O87784   9.539   7.966   4.083
29181WAT     H187785   9.596   8.043   4.055
29181WAT     H287786   9.555   7.947   4.180
29182WAT      O87787   1.534   6.836   7.963
29182WAT     H187788   1.492   6.809   8.050
29182WAT     H287789   1.512   6.769   7.893
29183WAT      O87790   3.329   5.635   6.271
29183WAT     H187791   3.304   5.542   6.245
29183WAT     H287792   3.271   5.700   6.223
29184WAT      O87793   2.384   0.839   2.846
29184WAT     H187794   2.365   0.751   2.889
29184WAT     H287795   2.457   0.828   2.779
29185WAT      O87796   7.397   9.648   6.575
29185WAT     H187797   7.309   9.613   6.607
29185WAT     H287798   7.458   9.664   6.653
29186WAT      O87799   3.165   7.421   0.324
29186WAT     H187800   3.071   7.449   0.303
29186WAT     H287801   3.211   7.395   0.239
29187WAT      O87802   3.003   9.402   1.772
29187WAT     H187803   3.076   9.456   1.815
29187WAT     H287804   2.926   9.394   1.835
29188WAT      O87805   0.438   2.969   2.512
29188WAT     H187806   0.471   2.992   2.420
29188WAT     H287807   0.494   2.895   2.550
29189WAT      O87808   8.545   6.670   1.537
29189WAT     H187809   8.564   6.580   1.498
29189WAT     H287810   8.590   6.740   1.482
29190WAT      O87811   5.771   1.080   9.252
29190WAT     H187812   5.846   1.091   9.317
29190WAT     H287813   5.685   1.110   9.294
29191WAT      O87814   4.866   8.383   3.398
29191WAT     H187815   4.927   8.305   3.387
29191WAT     H287816   4.900   8.460   3.344
29192WAT      O87817   9.728   1.255   4.063
29192WAT     H187818   9.734   1.242   4.162
29192WAT     H287819   9.672   1.335   4.043
29193WAT      O87820   6.478   3.032   2.548
29193WAT     H187821   6.390   3.018   2.594
29193WAT     H287822   6.462   3.059   2.453
29194WAT      O87823   8.923   3.276   7.240
29194WAT     H187824   8.906   3.298   7.144
29194WAT     H287825   9.021   3.267   7.255
29195WAT      O87826   7.391   7.600   4.139
29195WAT     H187827   7.431   7.577   4.228
29195WAT     H287828   7.370   7.698   4.137
29196WAT      O87829   7.360   7.376   0.273
29196WAT     H187830   7.417   7.337   0.344
29196WAT     H287831   7.329   7.467   0.301
29197WAT      O87832   4.315   0.022   1.723
29197WAT     H187833   4.290   0.039   1.819
29197WAT     H287834   4.407  -0.018   1.719
29198WAT      O87835   2.213   1.830   6.818
29198WAT     H187836   2.158   1.887   6.879
29198WAT     H287837   2.236   1.882   6.736
29199WAT      O87838   8.764   1.097   5.987
29199WAT     H187839   8.751   0.999   5.978
29199WAT     H287840   8.676   1.144   5.979
29200WAT      O87841   2.777   2.676   2.557
29200WAT     H187842   2.768   2.767   2.598
29200WAT     H287843   2.833   2.618   2.616
29201WAT      O87844   5.944   5.210   3.598
29201WAT     H187845   5.994   5.190   3.682
29201WAT     H287846   6.008   5.233   3.525
29202WAT      O87847   0.194   6.103   7.525
29202WAT     H187848   0.174   6.199   7.543
29202WAT     H287849   0.158   6.047   7.600
29203WAT      O87850   1.202   7.369   2.900
29203WAT     H187851   1.170   7.282   2.863
29203WAT     H287852   1.298   7.383   2.876
29204WAT      O87853   1.732   2.264   4.566
29204WAT     H187854   1.727   2.363   4.567
29204WAT     H287855   1.724   2.231   4.472
29205WAT      O87856   5.971   4.032   8.934
29205WAT     H187857   5.880   4.023   8.975
29205WAT     H287858   5.989   3.953   8.875
29206WAT      O87859   2.739   7.489   8.428
29206WAT     H187860   2.656   7.467   8.479
29206WAT     H287861   2.803   7.413   8.435
29207WAT      O87862   2.501   2.961   3.708
29207WAT     H187863   2.478   3.058   3.699
29207WAT     H287864   2.448   2.922   3.783
29208WAT      O87865   6.422   5.040   5.402
29208WAT     H187866   6.401   4.945   5.382
29208WAT     H287867   6.442   5.050   5.500
29209WAT      O87868   9.450   2.338   5.879
29209WAT     H187869   9.355   2.330   5.846
29209WAT     H287870   9.454   2.405   5.953
29210WAT      O87871   8.269   2.839   8.697
29210WAT     H187872   8.188   2.867   8.747
29210WAT     H287873   8.259   2.744   8.667
29211WAT      O87874   0.125   4.283   9.806
29211WAT     H187875   0.183   4.281   9.887
29211WAT     H287876   0.083   4.374   9.797
29212WAT      O87877   2.520   1.803   0.978
29212WAT     H187878   2.534   1.828   1.074
29212WAT     H287879   2.426   1.773   0.964
29213WAT      O87880   5.234   9.356   1.194
29213WAT     H187881   5.319   9.309   1.219
29213WAT     H287882   5.226   9.359   1.095
29214WAT      O87883   7.323   9.335   1.455
29214WAT     H187884   7.255   9.310   1.386
29214WAT     H287885   7.351   9.430   1.440
29215WAT      O87886   9.089   0.404   3.927
29215WAT     H187887   9.124   0.329   3.871
29215WAT     H287888   9.089   0.489   3.873
29216WAT      O87889   5.997   6.946   5.557
29216WAT     H187890   5.931   6.948   5.482
29216WAT     H287891   5.984   6.861   5.610
29217WAT      O87892   2.703   4.473   3.484
29217WAT     H187893   2.655   4.386   3.480
29217WAT     H287894   2.748   4.491   3.397
29218WAT      O87895   8.839   7.815   1.342
29218WAT     H187896   8.742   7.793   1.329
29218WAT     H287897   8.869   7.877   1.270
29219WAT      O87898   7.053   3.007   9.687
29219WAT     H187899   7.110   2.926   9.694
29219WAT     H287900   7.045   3.035   9.591
29220WAT      O87901   1.039   2.493   0.064
29220WAT     H187902   0.949   2.451   0.072
29220WAT     H287903   1.110   2.427   0.090
29221WAT      O87904   8.872   6.097   2.378
29221WAT     H187905   8.802   6.131   2.315
29221WAT     H287906   8.891   6.001   2.358
29222WAT      O87907   2.067   6.985   7.473
29222WAT     H187908   2.132   6.939   7.412
29222WAT     H287909   2.000   6.918   7.507
29223WAT      O87910   9.211   4.717   9.143
29223WAT     H187911   9.180   4.787   9.207
29223WAT     H287912   9.310   4.707   9.149
29224WAT      O87913   1.307   0.883   6.036
29224WAT     H187914   1.391   0.902   5.986
29224WAT     H287915   1.326   0.817   6.109
29225WAT      O87916   6.957   1.010   7.386
29225WAT     H187917   7.034   0.960   7.347
29225WAT     H287918   6.872   0.961   7.366
29226WAT      O87919   8.128   7.879   0.807
29226WAT     H187920   8.144   7.835   0.719
29226WAT     H287921   8.183   7.834   0.877
29227WAT      O87922   0.083   3.232   6.145
29227WAT     H187923  -0.002   3.185   6.123
29227WAT     H287924   0.158   3.191   6.092
29228WAT      O87925   3.352   3.495   4.287
29228WAT     H187926   3.369   3.492   4.189
29228WAT     H287927   3.437   3.518   4.335
29229WAT      O87928   2.080   0.637   2.701
29229WAT     H187929   2.166   0.594   2.672
29229WAT     H287930   2.048   0.593   2.785
29230WAT      O87931   5.163   0.566   5.618
29230WAT     H187932   5.151   0.520   5.530
29230WAT     H287933   5.176   0.664   5.602
29231WAT      O87934   1.246   7.301   3.252
29231WAT     H187935   1.196   7.239   3.314
29231WAT     H287936   1.305   7.248   3.192
29232WAT      O87937   4.560   1.519   4.241
29232WAT     H187938   4.614   1.473   4.311
29232WAT     H287939   4.612   1.522   4.156
29233WAT      O87940   9.400   6.740   9.529
29233WAT     H187941   9.469   6.789   9.582
29233WAT     H287942   9.314   6.791   9.532
29234WAT      O87943   8.730   1.706   9.007
29234WAT     H187944   8.679   1.750   8.933
29234WAT     H287945   8.773   1.623   8.974
29235WAT      O87946   0.362   2.905   3.889
29235WAT     H187947   0.459   2.893   3.864
29235WAT     H287948   0.336   2.831   3.951
29236WAT      O87949   1.891   6.267   3.350
29236WAT     H187950   1.985   6.297   3.334
29236WAT     H287951   1.844   6.257   3.262
29237WAT      O87952   2.906   5.573   8.373
29237WAT     H187953   2.830   5.633   8.399
29237WAT     H287954   2.870   5.491   8.329
29238WAT      O87955   7.467   6.659   3.801
29238WAT     H187956   7.482   6.564   3.828
29238WAT     H287957   7.494   6.672   3.706
29239WAT      O87958   4.910   9.715   4.525
29239WAT     H187959   5.007   9.695   4.538
29239WAT     H287960   4.858   9.630   4.523
29240WAT      O87961   8.892   9.236   3.167
29240WAT     H187962   8.951   9.315   3.181
29240WAT     H287963   8.806   9.248   3.216
29241WAT      O87964   9.319   7.540   9.372
29241WAT     H187965   9.282   7.589   9.450
29241WAT     H287966   9.406   7.498   9.398
29242WAT      O87967   1.989   5.736   5.108
29242WAT     H187968   1.960   5.785   5.025
29242WAT     H287969   2.075   5.776   5.142
29243WAT      O87970   1.096   0.476   7.434
29243WAT     H187971   0.998   0.484   7.418
29243WAT     H287972   1.116   0.386   7.473
29244WAT      O87973   6.215   8.204   5.426
29244WAT     H187974   6.135   8.262   5.408
29244WAT     H287975   6.211   8.123   5.368
29245WAT      O87976   9.750   9.004   5.519
29245WAT     H187977   9.661   8.987   5.475
29245WAT     H287978   9.742   9.083   5.580
29246WAT      O87979   4.738   4.481   2.991
29246WAT     H187980   4.677   4.412   3.029
29246WAT     H287981   4.811   4.502   3.056
29247WAT      O87982   1.606   0.207   1.322
29247WAT     H187983   1.615   0.151   1.405
29247WAT     H287984   1.564   0.153   1.250
29248WAT      O87985   8.975   4.023   2.076
29248WAT     H187986   9.070   4.018   2.046
29248WAT     H287987   8.962   4.105   2.132
29249WAT      O87988   4.015   2.424   3.170
29249WAT     H187989   4.072   2.343   3.155
29249WAT     H287990   3.933   2.398   3.221
29250WAT      O87991   7.322   8.837  -0.003
29250WAT     H187992   7.340   8.738  -0.004
29250WAT     H287993   7.250   8.857   0.062
29251WAT      O87994   4.576   5.096   5.280
29251WAT     H187995   4.637   5.039   5.335
29251WAT     H287996   4.629   5.163   5.230
29252WAT      O87997   7.433   1.238   7.555
29252WAT     H187998   7.383   1.219   7.470
29252WAT     H287999   7.474   1.154   7.590
29253WAT      O88000   2.568   4.699   2.053
29253WAT     H188001   2.559   4.601   2.037
29253WAT     H288002   2.604   4.716   2.145
29254WAT      O88003   2.848   9.078   6.199
29254WAT     H188004   2.908   9.005   6.231
29254WAT     H288005   2.874   9.164   6.243
29255WAT      O88006   6.265   5.821   1.246
29255WAT     H188007   6.301   5.898   1.300
29255WAT     H288008   6.209   5.856   1.171
29256WAT      O88009   4.476   4.678   1.984
29256WAT     H188010   4.470   4.776   2.002
29256WAT     H288011   4.429   4.628   2.057
29257WAT      O88012   6.070   7.197   1.458
29257WAT     H188013   6.081   7.127   1.388
29257WAT     H288014   6.155   7.205   1.511
29258WAT      O88015   6.873   2.651   6.643
29258WAT     H188016   6.814   2.720   6.684
29258WAT     H288017   6.968   2.681   6.646
29259WAT      O88018   8.835   6.107   9.178
29259WAT     H188019   8.869   6.028   9.229
29259WAT     H288020   8.770   6.158   9.234
29260WAT      O88021   0.423   4.901   5.854
29260WAT     H188022   0.324   4.887   5.848
29260WAT     H288023   0.444   4.998   5.847
29261WAT      O88024   6.992   7.091   0.098
29261WAT     H188025   7.021   7.008   0.050
29261WAT     H288026   7.051   7.167   0.071
29262WAT      O88027   1.329   6.165   1.642
29262WAT     H188028   1.353   6.069   1.655
29262WAT     H288029   1.273   6.196   1.718
29263WAT      O88030   9.387   1.941   1.343
29263WAT     H188031   9.417   2.003   1.415
29263WAT     H288032   9.350   1.857   1.384
29264WAT      O88033   4.483   3.934   3.840
29264WAT     H188034   4.551   3.884   3.893
29264WAT     H288035   4.391   3.899   3.861
29265WAT      O88036   0.863   8.554   7.564
29265WAT     H188037   0.865   8.630   7.499
29265WAT     H288038   0.881   8.468   7.515
29266WAT      O88039   2.714   0.092   6.720
29266WAT     H188040   2.806   0.125   6.700
29266WAT     H288041   2.691   0.017   6.659
29267WAT      O88042   4.499   2.638   1.466
29267WAT     H188043   4.436   2.568   1.499
29267WAT     H288044   4.541   2.686   1.543
29268WAT      O88045   0.379   4.730   1.077
29268WAT     H188046   0.340   4.820   1.098
29268WAT     H288047   0.454   4.741   1.012
29269WAT      O88048   5.899   3.905   8.198
29269WAT     H188049   5.826   3.974   8.200
29269WAT     H288050   5.984   3.946   8.231
29270WAT      O88051   7.019   8.281   1.223
29270WAT     H188052   7.047   8.231   1.141
29270WAT     H288053   7.091   8.345   1.249
29271WAT      O88054   2.920   3.787   7.179
29271WAT     H188055   2.891   3.702   7.222
29271WAT     H288056   2.981   3.837   7.240
29272WAT      O88057   4.193   8.099   1.376
29272WAT     H188058   4.099   8.102   1.343
29272WAT     H288059   4.195   8.123   1.473
29273WAT      O88060   1.967   5.447   1.131
29273WAT     H188061   1.989   5.410   1.041
29273WAT     H288062   1.871   5.475   1.133
29274WAT      O88063   0.394   3.478   5.787
29274WAT     H188064   0.335   3.415   5.735
29274WAT     H288065   0.449   3.532   5.724
29275WAT      O88066   1.582   9.082   9.118
29275WAT     H188067   1.586   9.032   9.032
29275WAT     H288068   1.624   9.172   9.106
29276WAT      O88069   5.596   0.764   9.232
29276WAT     H188070   5.584   0.667   9.253
29276WAT     H288071   5.664   0.774   9.159
29277WAT      O88072   1.485   7.325   4.818
29277WAT     H188073   1.390   7.311   4.791
29277WAT     H288074   1.522   7.240   4.855
29278WAT      O88075   6.478   5.364   7.825
29278WAT     H188076   6.413   5.434   7.795
29278WAT     H288077   6.516   5.388   7.914
29279WAT      O88078   8.751   2.939   6.052
29279WAT     H188079   8.835   2.885   6.047
29279WAT     H288080   8.682   2.888   6.104
29280WAT      O88081   1.360   7.573   3.328
29280WAT     H188082   1.375   7.603   3.234
29280WAT     H288083   1.329   7.478   3.329
29281WAT      O88084   0.339   0.755   3.060
29281WAT     H188085   0.397   0.820   3.110
29281WAT     H288086   0.304   0.686   3.123
29282WAT      O88087   2.630   5.749   9.361
29282WAT     H188088   2.625   5.758   9.262
29282WAT     H288089   2.715   5.703   9.386
29283WAT      O88090   1.260   4.745   0.831
29283WAT     H188091   1.215   4.742   0.920
29283WAT     H288092   1.274   4.840   0.803
29284WAT      O88093   6.368   7.956   4.829
29284WAT     H188094   6.426   7.879   4.801
29284WAT     H288095   6.284   7.921   4.869
29285WAT      O88096   2.567   7.792   7.365
29285WAT     H188097   2.499   7.853   7.324
29285WAT     H288098   2.531   7.698   7.366
29286WAT      O88099   6.976   7.262   5.239
29286WAT     H188100   7.072   7.234   5.252
29286WAT     H288101   6.916   7.193   5.279
29287WAT      O88102   2.239   1.250   0.744
29287WAT     H188103   2.216   1.286   0.653
29287WAT     H288104   2.262   1.153   0.736
29288WAT      O88105   7.060   7.397   7.301
29288WAT     H188106   7.015   7.340   7.232
29288WAT     H288107   7.141   7.349   7.336
29289WAT      O88108   5.030   4.272   7.360
29289WAT     H188109   5.118   4.301   7.396
29289WAT     H288110   5.041   4.239   7.267
29290WAT      O88111   4.945   3.299   9.444
29290WAT     H188112   4.853   3.330   9.467
29290WAT     H288113   4.998   3.288   9.528
29291WAT      O88114   8.778   9.784   2.242
29291WAT     H188115   8.820   9.862   2.196
29291WAT     H288116   8.689   9.811   2.279
29292WAT      O88117   0.886   5.022   4.612
29292WAT     H188118   0.904   5.067   4.524
29292WAT     H288119   0.866   4.926   4.597
29293WAT      O88120   8.164   4.447   1.941
29293WAT     H188121   8.153   4.481   1.847
29293WAT     H288122   8.077   4.409   1.973
29294WAT      O88123   9.440   6.103   2.593
29294WAT     H188124   9.464   6.143   2.504
29294WAT     H288125   9.517   6.050   2.627
29295WAT      O88126   2.959   5.929   7.742
29295WAT     H188127   2.871   5.892   7.712
29295WAT     H288128   2.997   5.871   7.814
29296WAT      O88129   2.043   4.292   2.339
29296WAT     H188130   2.115   4.343   2.292
29296WAT     H288131   2.085   4.228   2.404
29297WAT      O88132   0.139   9.151   4.708
29297WAT     H188133   0.103   9.186   4.622
29297WAT     H288134   0.207   9.080   4.690
29298WAT      O88135   9.802   4.091   5.429
29298WAT     H188136   9.732   4.155   5.401
29298WAT     H288137   9.810   4.092   5.529
29299WAT      O88138   0.823   0.414   8.846
29299WAT     H188139   0.731   0.384   8.821
29299WAT     H288140   0.853   0.486   8.783
29300WAT      O88141   4.857   2.470   5.980
29300WAT     H188142   4.939   2.460   5.923
29300WAT     H288143   4.826   2.565   5.977
29301WAT      O88144   7.210   5.577   4.580
29301WAT     H188145   7.161   5.661   4.556
29301WAT     H288146   7.144   5.502   4.588
29302WAT      O88147   2.613   3.136   1.011
29302WAT     H188148   2.525   3.113   1.054
29302WAT     H288149   2.687   3.113   1.074
29303WAT      O88150   4.503   8.711   9.550
29303WAT     H188151   4.539   8.661   9.629
29303WAT     H288152   4.577   8.760   9.505
29304WAT      O88153   0.395   1.716   5.824
29304WAT     H188154   0.477   1.748   5.871
29304WAT     H288155   0.404   1.618   5.805
29305WAT      O88156   7.539   9.188   3.836
29305WAT     H188157   7.544   9.287   3.851
29305WAT     H288158   7.487   9.146   3.910
29306WAT      O88159   7.744   5.015   5.031
29306WAT     H188160   7.768   5.110   5.049
29306WAT     H288161   7.694   5.010   4.944
29307WAT      O88162   0.910   2.679   2.482
29307WAT     H188163   0.857   2.599   2.453
29307WAT     H288164   1.007   2.661   2.471
29308WAT      O88165   5.962   5.418   4.217
29308WAT     H188166   5.948   5.330   4.261
29308WAT     H288167   5.938   5.491   4.280
29309WAT      O88168   0.151   2.149   0.896
29309WAT     H188169   0.199   2.105   0.820
29309WAT     H288170   0.175   2.247   0.897
29310WAT      O88171   7.754   2.915   2.098
29310WAT     H188172   7.816   2.993   2.104
29310WAT     H288173   7.721   2.892   2.190
29311WAT      O88174   4.824   3.559   3.525
29311WAT     H188175   4.767   3.478   3.538
29311WAT     H288176   4.799   3.629   3.592
29312WAT      O88177   0.565   4.329   3.489
29312WAT     H188178   0.589   4.238   3.457
29312WAT     H288179   0.507   4.374   3.421
29313WAT      O88180   0.010   2.126   7.584
29313WAT     H188181   0.020   2.027   7.574
29313WAT     H288182   0.098   2.166   7.611
29314WAT      O88183   5.533   0.896   0.776
29314WAT     H188184   5.509   0.884   0.872
29314WAT     H288185   5.454   0.932   0.725
29315WAT      O88186   3.207   0.065   4.501
29315WAT     H188187   3.108   0.064   4.484
29315WAT     H288188   3.247   0.146   4.458
29316WAT      O88189   3.221   5.925   6.944
29316WAT     H188190   3.196   6.020   6.926
29316WAT     H288191   3.145   5.865   6.918
29317WAT      O88192   5.401   6.325   4.240
29317WAT     H188193   5.351   6.254   4.190
29317WAT     H288194   5.366   6.415   4.214
29318WAT      O88195   6.701   3.713   6.338
29318WAT     H188196   6.776   3.693   6.402
29318WAT     H288197   6.729   3.687   6.245
29319WAT      O88198   6.050   6.085   8.087
29319WAT     H188199   6.012   5.993   8.088
29319WAT     H288200   6.147   6.081   8.064
29320WAT      O88201   9.163   5.821   1.021
29320WAT     H188202   9.179   5.729   1.056
29320WAT     H288203   9.238   5.881   1.048
29321WAT      O88204   7.004   4.431   6.046
29321WAT     H188205   6.999   4.503   6.114
29321WAT     H288206   6.985   4.343   6.089
29322WAT      O88207   3.191   8.938   8.797
29322WAT     H188208   3.260   9.009   8.786
29322WAT     H288209   3.131   8.961   8.873
29323WAT      O88210   5.599   0.323   1.411
29323WAT     H188211   5.522   0.378   1.380
29323WAT     H288212   5.568   0.254   1.476
29324WAT      O88213   0.967   2.330   2.312
29324WAT     H188214   0.987   2.348   2.215
29324WAT     H288215   0.883   2.377   2.337
29325WAT      O88216   6.281   1.345   0.598
29325WAT     H188217   6.242   1.266   0.645
29325WAT     H288218   6.369   1.368   0.640
29326WAT      O88219   2.336   3.653   8.250
29326WAT     H188220   2.297   3.572   8.206
29326WAT     H288221   2.354   3.633   8.346
29327WAT      O88222   0.483   6.715   8.088
29327WAT     H188223   0.536   6.706   8.003
29327WAT     H288224   0.545   6.714   8.166
29328WAT      O88225   5.943   6.914   3.781
29328WAT     H188226   6.020   6.901   3.719
29328WAT     H288227   5.968   6.980   3.852
29329WAT      O88228   8.266   6.598   4.276
29329WAT     H188229   8.201   6.671   4.296
29329WAT     H288230   8.351   6.616   4.325
29330WAT      O88231   2.671   3.032   3.067
29330WAT     H188232   2.733   2.967   3.024
29330WAT     H288233   2.721   3.115   3.091
29331WAT      O88234   0.538   0.970   0.817
29331WAT     H188235   0.588   0.888   0.843
29331WAT     H288236   0.586   1.051   0.851
29332WAT      O88237   8.283   2.109   1.047
29332WAT     H188238   8.336   2.159   1.115
29332WAT     H288239   8.333   2.027   1.019
29333WAT      O88240   6.570   3.910   5.031
29333WAT     H188241   6.646   3.945   5.085
29333WAT     H288242   6.510   3.854   5.088
29334WAT      O88243   3.635   8.733   2.544
29334WAT     H188244   3.684   8.710   2.460
29334WAT     H288245   3.609   8.648   2.591
29335WAT      O88246   7.474   9.324   2.068
29335WAT     H188247   7.561   9.355   2.107
29335WAT     H288248   7.461   9.227   2.089
29336WAT      O88249   9.455   9.113   6.554
29336WAT     H188250   9.398   9.105   6.471
29336WAT     H288251   9.403   9.160   6.625
29337WAT      O88252   1.804   6.610   8.511
29337WAT     H188253   1.739   6.634   8.438
29337WAT     H288254   1.808   6.684   8.578
29338WAT      O88255   9.732   4.848   1.290
29338WAT     H188256   9.675   4.799   1.224
29338WAT     H288257   9.676   4.879   1.366
29339WAT      O88258   2.041   6.312   0.870
29339WAT     H188259   2.047   6.396   0.815
29339WAT     H288260   2.124   6.258   0.858
29340WAT      O88261   8.909   0.640   4.252
29340WAT     H188262   8.830   0.581   4.239
29340WAT     H288263   8.924   0.695   4.169
29341WAT      O88264   1.826   0.631   1.481
29341WAT     H188265   1.911   0.601   1.524
29341WAT     H288266   1.817   0.730   1.490
29342WAT      O88267   3.874   1.644   0.613
29342WAT     H188268   3.961   1.693   0.624
29342WAT     H288269   3.879   1.557   0.662
29343WAT      O88270   3.100   0.737   7.580
29343WAT     H188271   3.113   0.829   7.543
29343WAT     H288272   3.160   0.724   7.659
29344WAT      O88273   5.446   0.994   2.250
29344WAT     H188274   5.475   1.067   2.312
29344WAT     H288275   5.349   0.974   2.265
29345WAT      O88276   7.492   4.912   4.284
29345WAT     H188277   7.403   4.957   4.272
29345WAT     H288278   7.496   4.832   4.225
29346WAT      O88279   7.837   7.857   2.742
29346WAT     H188280   7.898   7.903   2.806
29346WAT     H288281   7.746   7.898   2.747
29347WAT      O88282   7.207   8.062   3.604
29347WAT     H188283   7.285   8.039   3.546
29347WAT     H288284   7.181   8.157   3.589
29348WAT      O88285   1.480   1.298   7.024
29348WAT     H188286   1.539   1.219   7.034
29348WAT     H288287   1.471   1.322   6.928
29349WAT      O88288   4.780   9.122   5.735
29349WAT     H188289   4.763   9.203   5.678
29349WAT     H288290   4.693   9.089   5.773
29350WAT      O88291   7.218   9.130   1.673
29350WAT     H188292   7.251   9.218   1.707
29350WAT     H288293   7.296   9.073   1.647
29351WAT      O88294   5.313   3.256   0.859
29351WAT     H188295   5.370   3.306   0.794
29351WAT     H288296   5.343   3.161   0.865
29352WAT      O88297   7.614   7.881   7.690
29352WAT     H188298   7.585   7.805   7.748
29352WAT     H288299   7.583   7.865   7.596
29353WAT      O88300   3.322   9.087   7.050
29353WAT     H188301   3.337   9.138   7.135
29353WAT     H288302   3.409   9.050   7.018
29354WAT      O88303   9.177   3.974   2.424
29354WAT     H188304   9.229   3.965   2.508
29354WAT     H288305   9.220   3.919   2.352
29355WAT      O88306   9.310   1.587   9.886
29355WAT     H188307   9.384   1.566   9.950
29355WAT     H288308   9.346   1.643   9.811
29356WAT      O88309   8.847   0.850   5.126
29356WAT     H188310   8.921   0.904   5.086
29356WAT     H288311   8.868   0.752   5.116
29357WAT      O88312   9.101   3.790   1.277
29357WAT     H188313   9.043   3.811   1.198
29357WAT     H288314   9.190   3.757   1.246
29358WAT      O88315   7.498   0.434   5.095
29358WAT     H188316   7.474   0.342   5.063
29358WAT     H288317   7.549   0.427   5.181
29359WAT      O88318   4.265   9.609   7.612
29359WAT     H188319   4.313   9.685   7.656
29359WAT     H288320   4.215   9.557   7.681
29360WAT      O88321   5.181   2.545   9.003
29360WAT     H188322   5.246   2.484   8.958
29360WAT     H288323   5.149   2.614   8.938
29361WAT      O88324   4.492   9.086   9.235
29361WAT     H188325   4.487   9.029   9.317
29361WAT     H288326   4.410   9.070   9.179
29362WAT      O88327   6.292   4.794   4.939
29362WAT     H188328   6.283   4.893   4.935
29362WAT     H288329   6.290   4.756   4.847
29363WAT      O88330   8.380   2.420   6.059
29363WAT     H188331   8.309   2.460   6.002
29363WAT     H288332   8.350   2.420   6.155
29364WAT      O88333   8.519   2.312   7.099
29364WAT     H188334   8.427   2.346   7.078
29364WAT     H288335   8.524   2.288   7.196
29365WAT      O88336   4.303   2.958   4.164
29365WAT     H188337   4.325   2.951   4.067
29365WAT     H288338   4.303   3.054   4.192
29366WAT      O88339   1.328   8.192   5.667
29366WAT     H188340   1.332   8.102   5.624
29366WAT     H288341   1.414   8.210   5.714
29367WAT      O88342   5.498   3.295   6.115
29367WAT     H188343   5.561   3.329   6.045
29367WAT     H288344   5.549   3.278   6.199
29368WAT      O88345   8.757   4.979   2.443
29368WAT     H188346   8.787   4.961   2.349
29368WAT     H288347   8.837   4.999   2.500
29369WAT      O88348   1.628   1.164   8.214
29369WAT     H188349   1.539   1.209   8.213
29369WAT     H288350   1.693   1.218   8.159
29370WAT      O88351   8.262   4.651   0.574
29370WAT     H188352   8.311   4.603   0.501
29370WAT     H288353   8.320   4.656   0.655
29371WAT      O88354   4.669   6.503   9.407
29371WAT     H188355   4.754   6.462   9.439
29371WAT     H288356   4.593   6.471   9.465
29372WAT      O88357   0.911   2.069   3.797
29372WAT     H188358   0.958   1.982   3.811
29372WAT     H288359   0.970   2.132   3.748
29373WAT      O88360   2.969   8.800   0.936
29373WAT     H188361   2.892   8.863   0.927
29373WAT     H288362   2.958   8.724   0.872
29374WAT      O88363   5.078   4.580   1.062
29374WAT     H188364   5.028   4.548   0.981
29374WAT     H288365   5.044   4.671   1.088
29375WAT      O88366   9.586   2.557   7.183
29375WAT     H188367   9.669   2.602   7.215
29375WAT     H288368   9.588   2.460   7.208
29376WAT      O88369   8.994   4.982   2.579
29376WAT     H188370   9.049   5.036   2.643
29376WAT     H288371   9.055   4.938   2.513
29377WAT      O88372   7.060   3.322   8.974
29377WAT     H188373   7.131   3.384   8.940
29377WAT     H288374   7.079   3.298   9.069
29378WAT      O88375   9.261   5.877   6.564
29378WAT     H188376   9.198   5.935   6.512
29378WAT     H288377   9.265   5.910   6.658
29379WAT      O88378   5.202   6.301   9.608
29379WAT     H188379   5.287   6.318   9.658
29379WAT     H288380   5.183   6.379   9.548
29380WAT      O88381   4.070   2.219   6.407
29380WAT     H188382   4.047   2.137   6.356
29380WAT     H288383   4.097   2.292   6.343
29381WAT      O88384   8.546   0.481   4.622
29381WAT     H188385   8.483   0.442   4.689
29381WAT     H288386   8.494   0.530   4.552
29382WAT      O88387   1.071   0.506   5.968
29382WAT     H188388   0.995   0.471   6.023
29382WAT     H288389   1.145   0.536   6.029
29383WAT      O88390   6.310   5.843   3.034
29383WAT     H188391   6.333   5.940   3.045
29383WAT     H288392   6.361   5.790   3.102
29384WAT      O88393   3.339   7.974   4.197
29384WAT     H188394   3.299   7.924   4.273
29384WAT     H288395   3.438   7.958   4.195
29385WAT      O88396   5.693   0.826   6.580
29385WAT     H188397   5.651   0.851   6.668
29385WAT     H288398   5.773   0.884   6.564
29386WAT      O88399   8.550   0.453   9.425
29386WAT     H188400   8.497   0.517   9.369
29386WAT     H288401   8.488   0.403   9.485
29387WAT      O88402   2.731   0.698   9.166
29387WAT     H188403   2.732   0.602   9.140
29387WAT     H288404   2.744   0.755   9.084
29388WAT      O88405   7.330   8.990   8.747
29388WAT     H188406   7.295   8.948   8.664
29388WAT     H288407   7.429   9.001   8.740
29389WAT      O88408   0.214   9.641   8.767
29389WAT     H188409   0.249   9.710   8.831
29389WAT     H288410   0.194   9.684   8.679
29390WAT      O88411   7.007   9.021   9.578
29390WAT     H188412   7.088   9.081   9.573
29390WAT     H288413   6.939   9.053   9.512
29391WAT      O88414   1.752   1.995   3.257
29391WAT     H188415   1.684   1.925   3.279
29391WAT     H288416   1.765   2.055   3.336
29392WAT      O88417   3.586   7.679   6.369
29392WAT     H188418   3.493   7.710   6.348
29392WAT     H288419   3.605   7.694   6.466
29393WAT      O88420   2.552   8.954   0.031
29393WAT     H188421   2.622   8.883   0.038
29393WAT     H288422   2.596   9.042   0.014
29394WAT      O88423   6.017   6.117   3.422
29394WAT     H188424   6.103   6.074   3.397
29394WAT     H288425   6.032   6.216   3.435
29395WAT      O88426   7.134   4.845   5.905
29395WAT     H188427   7.046   4.820   5.864
29395WAT     H288428   7.152   4.786   5.984
29396WAT      O88429   4.951   0.641   4.710
29396WAT     H188430   4.881   0.573   4.689
29396WAT     H288431   4.980   0.631   4.805
29397WAT      O88432   6.700   4.719   9.799
29397WAT     H188433   6.731   4.809   9.831
29397WAT     H288434   6.601   4.714   9.806
29398WAT      O88435   3.154   8.978   2.471
29398WAT     H188436   3.187   8.922   2.394
29398WAT     H288437   3.054   8.982   2.468
29399WAT      O88438   6.080   8.841   6.934
29399WAT     H188439   6.044   8.763   6.883
29399WAT     H288440   6.022   8.858   7.015
29400WAT      O88441   2.209   1.136   5.413
29400WAT     H188442   2.297   1.181   5.395
29400WAT     H288443   2.198   1.123   5.512
29401WAT      O88444   0.891   4.667   3.782
29401WAT     H188445   0.951   4.735   3.825
29401WAT     H288446   0.834   4.624   3.852
29402WAT      O88447   2.445   3.806   7.561
29402WAT     H188448   2.356   3.786   7.522
29402WAT     H288449   2.512   3.818   7.488
29403WAT      O88450   4.051   1.036   3.056
29403WAT     H188451   4.129   1.096   3.077
29403WAT     H288452   4.079   0.941   3.067
29404WAT      O88453   0.284   7.345   1.564
29404WAT     H188454   0.349   7.351   1.640
29404WAT     H288455   0.294   7.256   1.519
29405WAT      O88456   0.050   3.269   8.708
29405WAT     H188457   0.143   3.271   8.745
29405WAT     H288458  -0.016   3.286   8.782
29406WAT      O88459   2.310   6.641   2.810
29406WAT     H188460   2.391   6.700   2.804
29406WAT     H288461   2.235   6.692   2.851
29407WAT      O88462   5.096   3.015   3.077
29407WAT     H188463   5.171   3.051   3.133
29407WAT     H288464   5.086   2.917   3.095
29408WAT      O88465   8.706   2.427   3.653
29408WAT     H188466   8.743   2.353   3.709
29408WAT     H288467   8.649   2.486   3.711
29409WAT      O88468   4.984   7.591   9.708
29409WAT     H188469   4.905   7.611   9.650
29409WAT     H288470   5.068   7.603   9.655
29410WAT      O88471   7.999   6.111   7.045
29410WAT     H188472   7.970   6.025   7.003
29410WAT     H288473   8.012   6.180   6.974
29411WAT      O88474   5.264   8.113   6.218
29411WAT     H188475   5.283   8.205   6.251
29411WAT     H288476   5.171   8.087   6.241
29412WAT      O88477   6.137   3.877   5.071
29412WAT     H188478   6.122   3.917   4.980
29412WAT     H288479   6.200   3.800   5.064
29413WAT      O88480   8.217   1.470   3.633
29413WAT     H188481   8.174   1.458   3.543
29413WAT     H288482   8.159   1.527   3.691
29414WAT      O88483   9.091   2.085   2.789
29414WAT     H188484   9.154   2.155   2.821
29414WAT     H288485   9.000   2.125   2.776
29415WAT      O88486   3.971   2.673   5.522
29415WAT     H188487   4.056   2.726   5.528
29415WAT     H288488   3.927   2.671   5.612
29416WAT      O88489   3.101   7.509   8.727
29416WAT     H188490   3.014   7.557   8.712
29416WAT     H288491   3.102   7.424   8.674
29417WAT      O88492   7.287   1.789   0.996
29417WAT     H188493   7.322   1.695   0.991
29417WAT     H288494   7.256   1.818   0.906
29418WAT      O88495   9.128   1.106   3.063
29418WAT     H188496   9.123   1.053   3.147
29418WAT     H288497   9.184   1.057   2.996
29419WAT      O88498   7.851   7.558   9.829
29419WAT     H188499   7.858   7.571   9.928
29419WAT     H288500   7.830   7.646   9.785
29420WAT      O88501   9.560   4.619   2.490
29420WAT     H188502   9.574   4.643   2.586
29420WAT     H288503   9.468   4.584   2.477
29421WAT      O88504   0.668   1.922   4.821
29421WAT     H188505   0.577   1.897   4.855
29421WAT     H288506   0.714   1.980   4.889
29422WAT      O88507   1.786   3.959   8.272
29422WAT     H188508   1.833   4.034   8.224
29422WAT     H288509   1.689   3.961   8.249
29423WAT      O88510   6.043   4.636   9.110
29423WAT     H188511   6.017   4.546   9.144
29423WAT     H288512   6.126   4.629   9.056
29424WAT      O88513   4.368   0.379   4.382
29424WAT     H188514   4.417   0.380   4.295
29424WAT     H288515   4.386   0.465   4.431
29425WAT      O88516   3.376   9.368   9.262
29425WAT     H188517   3.281   9.400   9.257
29425WAT     H288518   3.421   9.409   9.341
29426WAT      O88519   1.151   0.330   6.788
29426WAT     H188520   1.161   0.362   6.694
29426WAT     H288521   1.142   0.230   6.789
29427WAT      O88522   3.120   3.716   3.867
29427WAT     H188523   3.092   3.668   3.784
29427WAT     H288524   3.045   3.713   3.934
29428WAT      O88525   4.239   4.291   3.643
29428WAT     H188526   4.215   4.240   3.726
29428WAT     H288527   4.226   4.389   3.659
29429WAT      O88528   0.236   8.066   0.719
29429WAT     H188529   0.193   8.130   0.782
29429WAT     H288530   0.168   8.032   0.654
29430WAT      O88531   2.519   1.966   6.185
29430WAT     H188532   2.456   1.999   6.114
29430WAT     H288533   2.526   1.867   6.179
29431WAT      O88534   1.046   6.486   8.345
29431WAT     H188535   1.135   6.531   8.356
29431WAT     H288536   0.993   6.533   8.275
29432WAT      O88537   6.373   7.534   5.589
29432WAT     H188538   6.317   7.616   5.577
29432WAT     H288539   6.446   7.554   5.654
29433WAT      O88540   3.648   2.900   0.062
29433WAT     H188541   3.593   2.843   0.002
29433WAT     H288542   3.713   2.843   0.112
29434WAT      O88543   8.773   6.837   5.348
29434WAT     H188544   8.852   6.779   5.370
29434WAT     H288545   8.804   6.919   5.301
29435WAT      O88546   1.313   4.600   9.753
29435WAT     H188547   1.267   4.536   9.691
29435WAT     H288548   1.278   4.588   9.846
29436WAT      O88549   0.558   5.527   3.966
29436WAT     H188550   0.517   5.521   4.057
29436WAT     H288551   0.517   5.604   3.916
29437WAT      O88552   4.447   1.645   8.941
29437WAT     H188553   4.498   1.612   8.862
29437WAT     H288554   4.374   1.707   8.910
29438WAT      O88555   6.926   1.640   6.961
29438WAT     H188556   7.025   1.641   6.945
29438WAT     H288557   6.878   1.645   6.874
29439WAT      O88558   3.633   4.797   8.020
29439WAT     H188559   3.572   4.782   7.942
29439WAT     H288560   3.614   4.886   8.060
29440WAT      O88561   2.900   0.540   1.241
29440WAT     H188562   2.896   0.537   1.340
29440WAT     H288563   2.816   0.581   1.205
29441WAT      O88564   5.412   9.618   7.157
29441WAT     H188565   5.403   9.689   7.227
29441WAT     H288566   5.455   9.537   7.197
29442WAT      O88567   4.570   2.734   9.870
29442WAT     H188568   4.622   2.649   9.880
29442WAT     H288569   4.586   2.792   9.950
29443WAT      O88570   4.022   3.857   7.181
29443WAT     H188571   4.061   3.861   7.273
29443WAT     H288572   3.957   3.932   7.169
29444WAT      O88573   6.829   6.062   6.746
29444WAT     H188574   6.745   6.048   6.799
29444WAT     H288575   6.899   6.104   6.804
29445WAT      O88576   6.760   7.442   0.290
29445WAT     H188577   6.739   7.367   0.228
29445WAT     H288578   6.678   7.466   0.343
29446WAT      O88579   6.142   4.348   2.576
29446WAT     H188580   6.109   4.325   2.485
29446WAT     H288581   6.238   4.321   2.585
29447WAT      O88582   2.496   0.136   9.461
29447WAT     H188583   2.410   0.173   9.427
29447WAT     H288584   2.481   0.042   9.493
29448WAT      O88585   5.573   5.975   6.421
29448WAT     H188586   5.562   6.072   6.401
29448WAT     H288587   5.671   5.952   6.421
29449WAT      O88588   2.765   0.447   6.437
29449WAT     H188589   2.834   0.520   6.436
29449WAT     H288590   2.708   0.456   6.519
29450WAT      O88591   0.398   6.112   9.425
29450WAT     H188592   0.472   6.167   9.387
29450WAT     H288593   0.355   6.161   9.501
29451WAT      O88594   2.908   7.554   7.893
29451WAT     H188595   2.951   7.602   7.817
29451WAT     H288596   2.812   7.582   7.900
29452WAT      O88597   7.728   4.997   6.463
29452WAT     H188598   7.709   5.095   6.465
29452WAT     H288599   7.701   4.959   6.375
29453WAT      O88600   9.420   2.794   2.081
29453WAT     H188601   9.349   2.730   2.110
29453WAT     H288602   9.418   2.803   1.981
29454WAT      O88603   9.269   2.686   3.342
29454WAT     H188604   9.197   2.709   3.407
29454WAT     H288605   9.243   2.718   3.251
29455WAT      O88606   6.962   9.073   6.370
29455WAT     H188607   6.918   8.985   6.388
29455WAT     H288608   7.059   9.068   6.394
29456WAT      O88609   5.004   9.541   1.694
29456WAT     H188610   5.023   9.597   1.613
29456WAT     H288611   4.937   9.589   1.752
29457WAT      O88612   0.307   9.318   4.868
29457WAT     H188613   0.402   9.288   4.861
29457WAT     H288614   0.250   9.266   4.805
29458WAT      O88615   4.278   0.901   0.013
29458WAT     H188616   4.344   0.835   0.048
29458WAT     H288617   4.190   0.889   0.058
29459WAT      O88618   8.006   3.497   0.535
29459WAT     H188619   8.025   3.583   0.488
29459WAT     H288620   8.041   3.502   0.629
29460WAT      O88621   4.218   9.581   6.126
29460WAT     H188622   4.236   9.490   6.089
29460WAT     H288623   4.301   9.616   6.170
29461WAT      O88624   8.323   1.933   6.248
29461WAT     H188625   8.290   1.901   6.336
29461WAT     H288626   8.351   1.855   6.192
29462WAT      O88627   2.065   7.383   0.549
29462WAT     H188628   2.027   7.295   0.577
29462WAT     H288629   2.113   7.373   0.462
29463WAT      O88630   8.422   5.757   8.327
29463WAT     H188631   8.493   5.722   8.388
29463WAT     H288632   8.444   5.731   8.233
29464WAT      O88633   4.342   9.543   4.676
29464WAT     H188634   4.352   9.602   4.595
29464WAT     H288635   4.313   9.598   4.754
29465WAT      O88636   4.845   6.956   2.433
29465WAT     H188637   4.873   7.015   2.509
29465WAT     H288638   4.747   6.937   2.440
29466WAT      O88639   7.589   9.528   5.782
29466WAT     H188640   7.633   9.486   5.862
29466WAT     H288641   7.613   9.626   5.779
29467WAT      O88642   3.005   3.518   6.246
29467WAT     H188643   3.068   3.589   6.216
29467WAT     H288644   3.037   3.429   6.214
29468WAT      O88645   0.511   4.402   6.322
29468WAT     H188646   0.550   4.348   6.247
29468WAT     H288647   0.411   4.404   6.313
29469WAT      O88648   1.559   6.984   5.304
29469WAT     H188649   1.567   7.084   5.302
29469WAT     H288650   1.650   6.944   5.310
29470WAT      O88651   8.195   5.891   8.244
29470WAT     H188652   8.280   5.847   8.274
29470WAT     H288653   8.209   5.989   8.234
29471WAT      O88654   8.972   9.218   1.167
29471WAT     H188655   8.906   9.291   1.182
29471WAT     H288656   9.016   9.230   1.079
29472WAT      O88657   9.496   6.953   3.254
29472WAT     H188658   9.466   6.858   3.252
29472WAT     H288659   9.560   6.966   3.330
29473WAT      O88660   1.363   4.380   8.371
29473WAT     H188661   1.337   4.464   8.323
29473WAT     H288662   1.332   4.385   8.466
29474WAT      O88663   1.157   0.033   4.263
29474WAT     H188664   1.256   0.037   4.277
29474WAT     H288665   1.111   0.037   4.351
29475WAT      O88666   1.128   4.165   6.747
29475WAT     H188667   1.123   4.246   6.806
29475WAT     H288668   1.214   4.167   6.696
29476WAT      O88669   5.357   0.135   0.590
29476WAT     H188670   5.286   0.182   0.537
29476WAT     H288671   5.447   0.163   0.557
29477WAT      O88672   8.580   0.882   3.718
29477WAT     H188673   8.559   0.950   3.647
29477WAT     H288674   8.502   0.874   3.780
29478WAT      O88675   5.546   6.735   0.305
29478WAT     H188676   5.505   6.686   0.229
29478WAT     H288677   5.575   6.669   0.375
29479WAT      O88678   8.848   2.899   3.659
29479WAT     H188679   8.927   2.845   3.632
29479WAT     H288680   8.765   2.858   3.620
29480WAT      O88681   5.057   6.990   3.000
29480WAT     H188682   5.065   6.925   3.076
29480WAT     H288683   5.105   7.075   3.023
29481WAT      O88684   2.092   2.453   8.031
29481WAT     H188685   2.113   2.440   8.128
29481WAT     H288686   2.116   2.546   8.004
29482WAT      O88687   8.459   7.607   4.273
29482WAT     H188688   8.450   7.617   4.372
29482WAT     H288689   8.480   7.512   4.251
29483WAT      O88690   9.006   8.411   0.785
29483WAT     H188691   9.089   8.466   0.800
29483WAT     H288692   9.016   8.359   0.701
29484WAT      O88693   7.988   9.655   1.568
29484WAT     H188694   8.054   9.581   1.576
29484WAT     H288695   7.912   9.640   1.631
29485WAT      O88696   7.757   3.275   9.603
29485WAT     H188697   7.763   3.179   9.632
29485WAT     H288698   7.732   3.331   9.681
29486WAT      O88699   8.597   2.493   5.920
29486WAT     H188700   8.596   2.440   5.835
29486WAT     H288701   8.524   2.460   5.981
29487WAT      O88702   1.284   2.568   4.127
29487WAT     H188703   1.352   2.496   4.134
29487WAT     H288704   1.216   2.544   4.058
29488WAT      O88705   3.751   7.233   6.676
29488WAT     H188706   3.732   7.268   6.584
29488WAT     H288707   3.664   7.216   6.723
29489WAT      O88708   0.742   6.922   1.483
29489WAT     H188709   0.676   6.849   1.503
29489WAT     H288710   0.831   6.882   1.460
29490WAT      O88711   0.434   7.355   3.536
29490WAT     H188712   0.365   7.299   3.582
29490WAT     H288713   0.425   7.345   3.437
29491WAT      O88714   3.430   9.333   5.023
29491WAT     H188715   3.339   9.320   5.062
29491WAT     H288716   3.422   9.376   4.933
29492WAT      O88717   4.259   2.473   4.192
29492WAT     H188718   4.340   2.526   4.213
29492WAT     H288719   4.231   2.420   4.272
29493WAT      O88720   3.745   0.276   4.277
29493WAT     H188721   3.740   0.369   4.239
29493WAT     H288722   3.826   0.230   4.243
29494WAT      O88723   0.299   5.655   9.352
29494WAT     H188724   0.233   5.670   9.278
29494WAT     H288725   0.353   5.573   9.331
29495WAT      O88726   5.510   2.995   4.452
29495WAT     H188727   5.564   2.957   4.527
29495WAT     H288728   5.413   2.998   4.478
29496WAT      O88729   1.250   2.338   4.376
29496WAT     H188730   1.224   2.300   4.465
29496WAT     H288731   1.330   2.397   4.387
29497WAT      O88732   4.995   2.936   4.866
29497WAT     H188733   5.089   2.916   4.890
29497WAT     H288734   4.974   3.031   4.888
29498WAT      O88735   3.976   4.181   1.795
29498WAT     H188736   4.013   4.117   1.727
29498WAT     H288737   4.031   4.264   1.796
29499WAT      O88738   2.600   2.293   7.332
29499WAT     H188739   2.522   2.255   7.382
29499WAT     H288740   2.570   2.328   7.244
29500WAT      O88741   6.622   7.143   4.423
29500WAT     H188742   6.624   7.104   4.331
29500WAT     H288743   6.703   7.201   4.436
29501WAT      O88744   9.398   5.216   7.928
29501WAT     H188745   9.441   5.295   7.885
29501WAT     H288746   9.299   5.228   7.929
29502WAT      O88747   0.893   6.740   0.515
29502WAT     H188748   0.913   6.671   0.446
29502WAT     H288749   0.856   6.822   0.471
29503WAT      O88750   2.843   2.045   2.303
29503WAT     H188751   2.848   2.017   2.399
29503WAT     H288752   2.829   1.964   2.246
29504WAT      O88753   2.810   1.944   2.554
29504WAT     H188754   2.744   1.871   2.571
29504WAT     H288755   2.898   1.921   2.594
29505WAT      O88756   8.843   6.085   3.940
29505WAT     H188757   8.859   6.166   3.883
29505WAT     H288758   8.930   6.038   3.955
29506WAT      O88759   8.726   0.185   3.165
29506WAT     H188760   8.790   0.240   3.112
29506WAT     H288761   8.645   0.239   3.187
29507WAT      O88762   2.571   5.178   7.017
29507WAT     H188763   2.621   5.260   7.044
29507WAT     H288764   2.629   5.123   6.956
29508WAT      O88765   8.662   6.859   6.657
29508WAT     H188766   8.583   6.799   6.666
29508WAT     H288767   8.685   6.897   6.746
29509WAT      O88768   6.511   0.891   5.862
29509WAT     H188769   6.424   0.940   5.862
29509WAT     H288770   6.560   0.908   5.947
29510WAT      O88771   0.600   1.872   8.259
29510WAT     H188772   0.601   1.929   8.340
29510WAT     H288773   0.648   1.786   8.277
29511WAT      O88774   7.545   2.518   7.980
29511WAT     H188775   7.604   2.496   7.902
29511WAT     H288776   7.596   2.570   8.048
29512WAT      O88777   5.629   3.585   0.650
29512WAT     H188778   5.653   3.613   0.557
29512WAT     H288779   5.672   3.648   0.715
29513WAT      O88780   2.497   5.270   9.569
29513WAT     H188781   2.470   5.256   9.474
29513WAT     H288782   2.595   5.251   9.579
29514WAT      O88783   2.160   1.224   9.787
29514WAT     H188784   2.070   1.181   9.782
29514WAT     H288785   2.156   1.302   9.849
29515WAT      O88786   4.027   5.820   5.964
29515WAT     H188787   3.934   5.831   6.001
29515WAT     H288788   4.022   5.785   5.871
29516WAT      O88789   6.681   4.914   3.857
29516WAT     H188790   6.754   4.981   3.871
29516WAT     H288791   6.653   4.876   3.946
29517WAT      O88792   6.883   8.138   9.374
29517WAT     H188793   6.894   8.207   9.446
29517WAT     H288794   6.807   8.163   9.315
29518WAT      O88795   9.812   8.726   3.348
29518WAT     H188796   9.833   8.820   3.376
29518WAT     H288797   9.888   8.666   3.374
29519WAT      O88798   1.557   7.885   0.597
29519WAT     H188799   1.644   7.840   0.617
29519WAT     H288800   1.561   7.927   0.506
29520WAT      O88801   2.557   7.646   8.124
29520WAT     H188802   2.538   7.550   8.104
29520WAT     H288803   2.626   7.680   8.060
29521WAT      O88804   0.944   4.027   1.717
29521WAT     H188805   0.906   4.105   1.766
29521WAT     H288806   0.957   4.052   1.621
29522WAT      O88807   5.294   3.035   4.008
29522WAT     H188808   5.195   3.018   4.009
29522WAT     H288809   5.342   2.948   4.001
29523WAT      O88810   3.231   2.608   0.797
29523WAT     H188811   3.325   2.641   0.794
29523WAT     H288812   3.183   2.650   0.874
29524WAT      O88813   2.189   2.409   7.391
29524WAT     H188814   2.161   2.497   7.353
29524WAT     H288815   2.123   2.339   7.364
29525WAT      O88816   4.786   4.151   7.748
29525WAT     H188817   4.733   4.232   7.771
29525WAT     H288818   4.824   4.112   7.832
29526WAT      O88819   0.688   2.100   1.281
29526WAT     H188820   0.730   2.071   1.367
29526WAT     H288821   0.633   2.026   1.244
29527WAT      O88822   6.613   2.909   2.899
29527WAT     H188823   6.547   2.983   2.910
29527WAT     H288824   6.572   2.836   2.845
29528WAT      O88825   1.435   3.968   3.210
29528WAT     H188826   1.352   3.918   3.187
29528WAT     H288827   1.480   3.999   3.127
29529WAT      O88828   2.516   1.481   4.030
29529WAT     H188829   2.554   1.520   4.114
29529WAT     H288830   2.528   1.546   3.954
29530WAT      O88831   9.231   5.891   4.899
29530WAT     H188832   9.157   5.855   4.955
29530WAT     H288833   9.275   5.967   4.947
29531WAT      O88834   7.102   1.742   6.719
29531WAT     H188835   7.144   1.670   6.774
29531WAT     H288836   7.004   1.722   6.706
29532WAT      O88837   0.977   1.028   4.340
29532WAT     H188838   1.055   1.084   4.312
29532WAT     H288839   0.916   1.084   4.396
29533WAT      O88840   4.464   1.922   7.453
29533WAT     H188841   4.408   1.898   7.532
29533WAT     H288842   4.444   1.860   7.378
29534WAT      O88843   8.271   2.153   7.484
29534WAT     H188844   8.274   2.057   7.513
29534WAT     H288845   8.233   2.158   7.391
29535WAT      O88846   8.073   6.410   1.599
29535WAT     H188847   8.134   6.487   1.580
29535WAT     H288848   8.071   6.349   1.520
29536WAT      O88849   9.654   9.195   5.687
29536WAT     H188850   9.665   9.290   5.717
29536WAT     H288851   9.628   9.139   5.765
29537WAT      O88852   8.098   9.451   0.369
29537WAT     H188853   8.139   9.531   0.412
29537WAT     H288854   8.171   9.394   0.330
29538WAT      O88855   5.533   1.199   5.274
29538WAT     H188856   5.471   1.263   5.227
29538WAT     H288857   5.583   1.248   5.345
29539WAT      O88858   9.780   4.402   5.031
29539WAT     H188859   9.864   4.443   5.067
29539WAT     H288860   9.778   4.304   5.055
29540WAT      O88861   1.644   5.155   1.990
29540WAT     H188862   1.690   5.085   2.045
29540WAT     H288863   1.712   5.202   1.932
29541WAT      O88864   6.282   7.097   3.915
29541WAT     H188865   6.342   7.103   3.995
29541WAT     H288866   6.200   7.046   3.938
29542WAT      O88867   6.054   5.385   0.878
29542WAT     H188868   6.129   5.404   0.814
29542WAT     H288869   6.092   5.342   0.960
29543WAT      O88870   7.052   9.632   9.674
29543WAT     H188871   6.970   9.654   9.727
29543WAT     H288872   7.047   9.676   9.585
29544WAT      O88873   4.375   9.225   8.096
29544WAT     H188874   4.319   9.158   8.048
29544WAT     H288875   4.449   9.257   8.036
29545WAT      O88876   8.086   1.650   6.975
29545WAT     H188877   8.147   1.588   7.023
29545WAT     H288878   8.085   1.627   6.877
29546WAT      O88879   6.175   8.211   1.943
29546WAT     H188880   6.131   8.157   2.015
29546WAT     H288881   6.230   8.283   1.984
29547WAT      O88882   9.568   5.511   9.885
29547WAT     H188883   9.552   5.504   9.786
29547WAT     H288884   9.490   5.556   9.928
29548WAT      O88885   5.156   8.913   7.271
29548WAT     H188886   5.214   8.832   7.268
29548WAT     H288887   5.202   8.985   7.323
29549WAT      O88888   8.070   9.711   9.825
29549WAT     H188889   7.973   9.729   9.843
29549WAT     H288890   8.079   9.643   9.753
29550WAT      O88891   4.294   9.678   1.118
29550WAT     H188892   4.357   9.719   1.183
29550WAT     H288893   4.202   9.712   1.134
29551WAT      O88894   9.465   7.876   5.161
29551WAT     H188895   9.400   7.911   5.093
29551WAT     H288896   9.461   7.776   5.163
29552WAT      O88897   9.443   4.368   0.223
29552WAT     H188898   9.398   4.390   0.309
29552WAT     H288899   9.400   4.287   0.182
29553WAT      O88900   1.653   3.217   4.087
29553WAT     H188901   1.734   3.262   4.051
29553WAT     H288902   1.596   3.183   4.012
29554WAT      O88903   0.143   0.758   6.184
29554WAT     H188904   0.125   0.663   6.159
29554WAT     H288905   0.075   0.817   6.142
29555WAT      O88906   7.065   4.828   6.542
29555WAT     H188907   6.988   4.886   6.570
29555WAT     H288908   7.080   4.839   6.443
29556WAT      O88909   9.795   5.127   4.951
29556WAT     H188910   9.800   5.036   4.910
29556WAT     H288911   9.780   5.119   5.049
29557WAT      O88912   5.226   5.814   8.201
29557WAT     H188913   5.131   5.806   8.229
29557WAT     H288914   5.281   5.743   8.244
29558WAT      O88915   3.651   5.488   8.432
29558WAT     H188916   3.654   5.532   8.521
29558WAT     H288917   3.712   5.537   8.369
29559WAT      O88918   0.223   0.057   4.917
29559WAT     H188919   0.313   0.033   4.879
29559WAT     H288920   0.175   0.118   4.854
29560WAT      O88921   9.582   1.043   8.131
29560WAT     H188922   9.518   0.969   8.151
29560WAT     H288923   9.554   1.125   8.180
29561WAT      O88924   2.378   9.468   6.915
29561WAT     H188925   2.363   9.466   6.816
29561WAT     H288926   2.474   9.490   6.933
29562WAT      O88927   5.419   0.860   7.545
29562WAT     H188928   5.503   0.900   7.508
29562WAT     H288929   5.373   0.807   7.473
29563WAT      O88930   2.716   0.946   1.001
29563WAT     H188931   2.794   0.924   0.942
29563WAT     H288932   2.641   0.982   0.945
29564WAT      O88933   4.445   4.838   2.827
29564WAT     H188934   4.508   4.910   2.800
29564WAT     H288935   4.491   4.775   2.889
29565WAT      O88936   6.437   0.429   0.539
29565WAT     H188937   6.435   0.338   0.580
29565WAT     H288938   6.491   0.428   0.455
29566WAT      O88939   7.159   7.063   4.320
29566WAT     H188940   7.074   7.022   4.354
29566WAT     H288941   7.144   7.103   4.230
29567WAT      O88942   6.968   4.255   8.340
29567WAT     H188943   6.946   4.351   8.326
29567WAT     H288944   6.884   4.203   8.353
29568WAT      O88945   6.519   8.297   8.494
29568WAT     H188946   6.474   8.348   8.567
29568WAT     H288947   6.527   8.354   8.413
29569WAT      O88948   4.178   2.606   1.065
29569WAT     H188949   4.268   2.640   1.037
29569WAT     H288950   4.109   2.635   0.998
29570WAT      O88951   1.042   4.640   6.877
29570WAT     H188952   0.958   4.674   6.834
29570WAT     H288953   1.121   4.684   6.835
29571WAT      O88954   2.011   9.019   4.121
29571WAT     H188955   1.921   9.062   4.118
29571WAT     H288956   2.041   9.008   4.216
29572WAT      O88957   0.134   6.143   9.872
29572WAT     H188958   0.210   6.081   9.893
29572WAT     H288959   0.155   6.235   9.905
29573WAT      O88960   1.460   5.484   9.556
29573WAT     H188961   1.543   5.538   9.564
29573WAT     H288962   1.392   5.518   9.621
29574WAT      O88963   0.906   8.662   1.902
29574WAT     H188964   0.929   8.660   1.804
29574WAT     H288965   0.981   8.705   1.952
29575WAT      O88966   0.654   0.731   1.731
29575WAT     H188967   0.668   0.650   1.787
29575WAT     H288968   0.610   0.802   1.785
29576WAT      O88969   1.695   3.935   6.880
29576WAT     H188970   1.723   3.965   6.972
29576WAT     H288971   1.668   4.015   6.826
29577WAT      O88972   6.704   1.942   8.652
29577WAT     H188973   6.716   1.856   8.702
29577WAT     H288974   6.718   1.926   8.555
29578WAT      O88975   1.283   3.268   1.543
29578WAT     H188976   1.197   3.312   1.567
29578WAT     H288977   1.355   3.299   1.604
29579WAT      O88978   2.120   7.746   1.461
29579WAT     H188979   2.163   7.721   1.547
29579WAT     H288980   2.188   7.743   1.387
29580WAT      O88981   0.833   3.872   8.029
29580WAT     H188982   0.878   3.890   8.116
29580WAT     H288983   0.735   3.858   8.044
29581WAT      O88984   2.977   5.224   0.322
29581WAT     H188985   3.027   5.213   0.408
29581WAT     H288986   2.964   5.135   0.279
29582WAT      O88987   0.437   0.807   6.980
29582WAT     H188988   0.343   0.775   6.995
29582WAT     H288989   0.500   0.730   6.987
29583WAT      O88990   3.791   8.215   4.327
29583WAT     H188991   3.794   8.281   4.402
29583WAT     H288992   3.849   8.137   4.350
29584WAT      O88993   9.515   2.312   1.372
29584WAT     H188994   9.526   2.407   1.401
29584WAT     H288995   9.520   2.307   1.272
29585WAT      O88996   6.491   1.685   7.670
29585WAT     H188997   6.577   1.701   7.717
29585WAT     H288998   6.435   1.620   7.723
29586WAT      O88999   8.941   5.697   3.736
29586WAT     H189000   9.007   5.703   3.661
29586WAT     H289001   8.851   5.677   3.699
29587WAT      O89002   6.510   2.654   5.826
29587WAT     H189003   6.430   2.713   5.841
29587WAT     H289004   6.487   2.584   5.758
29588WAT      O89005   6.375   5.609   7.359
29588WAT     H189006   6.465   5.633   7.321
29588WAT     H289007   6.360   5.660   7.444
29589WAT      O89008   4.494   1.576   9.193
29589WAT     H189009   4.576   1.630   9.209
29589WAT     H289010   4.473   1.575   9.095
29590WAT      O89011   9.059   4.840   7.519
29590WAT     H189012   9.130   4.857   7.451
29590WAT     H289013   9.005   4.760   7.491
29591WAT      O89014   5.951   8.657   1.801
29591WAT     H189015   6.019   8.587   1.823
29591WAT     H289016   5.903   8.685   1.884
29592WAT      O89017   4.387   2.899   3.895
29592WAT     H189018   4.387   2.814   3.843
29592WAT     H289019   4.358   2.974   3.835
29593WAT      O89020   8.986   0.258   1.405
29593WAT     H189021   8.997   0.296   1.313
29593WAT     H289022   8.937   0.171   1.399
29594WAT      O89023   4.321   1.726   2.583
29594WAT     H189024   4.222   1.740   2.575
29594WAT     H289025   4.363   1.728   2.493
29595WAT      O89026   1.324   8.066   0.568
29595WAT     H189027   1.304   8.026   0.479
29595WAT     H289028   1.240   8.094   0.613
29596WAT      O89029   6.222   9.388   6.163
29596WAT     H189030   6.245   9.379   6.260
29596WAT     H289031   6.130   9.427   6.155
29597WAT      O89032   3.247   2.375   7.436
29597WAT     H189033   3.316   2.418   7.378
29597WAT     H289034   3.223   2.285   7.400
29598WAT      O89035   0.294   2.442   9.581
29598WAT     H189036   0.248   2.502   9.516
29598WAT     H289037   0.339   2.497   9.651
29599WAT      O89038   8.488   2.061   4.615
29599WAT     H189039   8.440   2.046   4.701
29599WAT     H289040   8.536   1.978   4.588
29600WAT      O89041   9.375   7.882   5.954
29600WAT     H189042   9.451   7.846   5.900
29600WAT     H289043   9.289   7.863   5.907
29601WAT      O89044   5.951   6.958   2.492
29601WAT     H189045   5.895   7.040   2.489
29601WAT     H289046   5.917   6.891   2.426
29602WAT      O89047   9.433   3.754   7.755
29602WAT     H189048   9.525   3.776   7.789
29602WAT     H289049   9.388   3.691   7.817
29603WAT      O89050   0.530   0.104   7.259
29603WAT     H189051   0.465   0.086   7.333
29603WAT     H289052   0.572   0.018   7.230
29604WAT      O89053   4.136   1.726   8.988
29604WAT     H189054   4.058   1.789   8.985
29604WAT     H289055   4.209   1.766   9.044
29605WAT      O89056   9.080   1.940   9.642
29605WAT     H189057   9.062   1.856   9.590
29605WAT     H289058   9.104   1.917   9.736
29606WAT      O89059   0.983   1.659   7.473
29606WAT     H189060   0.970   1.562   7.491
29606WAT     H289061   1.045   1.698   7.542
29607WAT      O89062   6.967   9.052   2.470
29607WAT     H189063   6.923   9.037   2.381
29607WAT     H289064   7.012   8.968   2.499
29608WAT      O89065   6.292   2.811   0.973
29608WAT     H189066   6.352   2.866   0.916
29608WAT     H289067   6.321   2.817   1.069
29609WAT      O89068   6.321   4.558   4.164
29609WAT     H189069   6.358   4.476   4.120
29609WAT     H289070   6.317   4.633   4.098
29610WAT      O89071   7.943   5.104   2.908
29610WAT     H189072   7.943   5.007   2.886
29610WAT     H289073   8.032   5.144   2.885
29611WAT      O89074   9.437   1.491   1.213
29611WAT     H189075   9.410   1.447   1.127
29611WAT     H289076   9.496   1.430   1.265
29612WAT      O89077   4.789   8.683   0.962
29612WAT     H189078   4.734   8.765   0.941
29612WAT     H289079   4.758   8.607   0.905
29613WAT      O89080   7.377   7.355   7.951
29613WAT     H189081   7.389   7.419   7.875
29613WAT     H289082   7.463   7.306   7.967
29614WAT      O89083   8.745   3.018   3.865
29614WAT     H189084   8.672   3.074   3.827
29614WAT     H289085   8.814   2.999   3.795
29615WAT      O89086   5.059   1.083   3.044
29615WAT     H189087   5.102   1.171   3.065
29615WAT     H289088   4.972   1.076   3.093
29616WAT      O89089   0.058   9.232   4.457
29616WAT     H189090  -0.008   9.306   4.463
29616WAT     H289091   0.126   9.252   4.387
29617WAT      O89092   3.909   5.361   0.281
29617WAT     H189093   3.991   5.304   0.286
29617WAT     H289094   3.888   5.378   0.184
29618WAT      O89095   8.841   5.874   5.120
29618WAT     H189096   8.838   5.972   5.102
29618WAT     H289097   8.929   5.837   5.089
29619WAT      O89098   0.563   2.461   0.566
29619WAT     H189099   0.615   2.487   0.485
29619WAT     H289100   0.471   2.433   0.539
29620WAT      O89101   2.093   6.330   9.861
29620WAT     H189102   2.134   6.360   9.774
29620WAT     H289103   2.157   6.347   9.935
29621WAT      O89104   4.396   9.333   2.929
29621WAT     H189105   4.365   9.242   2.955
29621WAT     H289106   4.359   9.356   2.839
29622WAT      O89107   8.679   2.759   3.946
29622WAT     H189108   8.713   2.833   3.887
29622WAT     H289109   8.756   2.717   3.993
29623WAT      O89110   3.754   4.083   8.199
29623WAT     H189111   3.821   4.009   8.199
29623WAT     H289112   3.728   4.105   8.105
29624WAT      O89113   3.941   0.056   8.614
29624WAT     H189114   3.849   0.058   8.654
29624WAT     H289115   3.934   0.032   8.517
29625WAT      O89116   9.847   6.455   9.422
29625WAT     H189117   9.842   6.541   9.371
29625WAT     H289118   9.929   6.404   9.394
29626WAT      O89119   7.939   2.506   4.854
29626WAT     H189120   7.868   2.438   4.869
29626WAT     H289121   7.994   2.516   4.936
29627WAT      O89122   1.587   6.244   0.370
29627WAT     H189123   1.656   6.272   0.436
29627WAT     H289124   1.530   6.172   0.409
29628WAT      O89125   1.849   6.342   3.721
29628WAT     H189126   1.930   6.317   3.669
29628WAT     H289127   1.823   6.436   3.700
29629WAT      O89128   0.979   1.896   2.804
29629WAT     H189129   0.996   1.849   2.718
29629WAT     H289130   1.062   1.943   2.834
29630WAT      O89131   1.195   3.790   6.206
29630WAT     H189132   1.246   3.715   6.249
29630WAT     H289133   1.183   3.864   6.271
29631WAT      O89134   1.893   2.065   1.771
29631WAT     H189135   1.894   1.991   1.705
29631WAT     H289136   1.860   2.149   1.727
29632WAT      O89137   5.561   8.555   0.562
29632WAT     H189138   5.562   8.631   0.627
29632WAT     H289139   5.560   8.591   0.469
29633WAT      O89140   1.210   1.801   1.461
29633WAT     H189141   1.307   1.824   1.462
29633WAT     H289142   1.191   1.729   1.528
29634WAT      O89143   1.521   8.730   9.255
29634WAT     H189144   1.575   8.811   9.279
29634WAT     H289145   1.429   8.739   9.295
29635WAT      O89146   1.286   9.831   6.478
29635WAT     H189147   1.244   9.750   6.435
29635WAT     H289148   1.317   9.894   6.407
29636WAT      O89149   5.090   8.534   1.174
29636WAT     H189150   5.095   8.451   1.118
29636WAT     H289151   4.997   8.546   1.209
29637WAT      O89152   9.737   1.054   0.300
29637WAT     H189153   9.835   1.057   0.279
29637WAT     H289154   9.687   1.112   0.236
29638WAT      O89155   8.711   5.477   6.435
29638WAT     H189156   8.713   5.419   6.354
29638WAT     H289157   8.625   5.529   6.436
29639WAT      O89158   0.679   9.594   2.184
29639WAT     H189159   0.633   9.541   2.114
29639WAT     H289160   0.650   9.690   2.179
29640WAT      O89161   1.988   6.890   6.444
29640WAT     H189162   1.939   6.965   6.487
29640WAT     H289163   2.019   6.918   6.353
29641WAT      O89164   9.775   8.299   9.734
29641WAT     H189165   9.844   8.298   9.806
29641WAT     H289166   9.805   8.358   9.659
29642WAT      O89167   8.312   1.445   2.149
29642WAT     H189168   8.214   1.439   2.127
29642WAT     H289169   8.343   1.540   2.141
29643WAT      O89170   1.056   8.957   6.549
29643WAT     H189171   1.118   8.908   6.610
29643WAT     H289172   1.010   8.891   6.489
29644WAT      O89173   8.497   1.670   4.020
29644WAT     H189174   8.587   1.641   3.988
29644WAT     H289175   8.443   1.705   3.943
29645WAT      O89176   0.502   8.238   7.851
29645WAT     H189177   0.482   8.293   7.933
29645WAT     H289178   0.475   8.289   7.770
29646WAT      O89179   5.817   0.887   0.334
29646WAT     H189180   5.849   0.808   0.281
29646WAT     H289181   5.717   0.893   0.328
29647WAT      O89182   5.504   0.198   2.102
29647WAT     H189183   5.522   0.132   2.175
29647WAT     H289184   5.406   0.212   2.093
29648WAT      O89185   2.671   2.839   2.357
29648WAT     H189186   2.627   2.764   2.309
29648WAT     H289187   2.748   2.805   2.411
29649WAT      O89188   7.825   5.200   0.236
29649WAT     H189189   7.740   5.150   0.246
29649WAT     H289190   7.809   5.297   0.254
29650WAT      O89191   1.332   7.064   4.878
29650WAT     H189192   1.431   7.066   4.893
29650WAT     H289193   1.297   7.157   4.868
29651WAT      O89194   9.572   5.134   9.244
29651WAT     H189195   9.600   5.039   9.232
29651WAT     H289196   9.636   5.180   9.305
29652WAT      O89197   1.701   6.742   1.043
29652WAT     H189198   1.715   6.720   1.140
29652WAT     H289199   1.734   6.667   0.986
29653WAT      O89200   3.484   8.012   8.299
29653WAT     H189201   3.511   8.056   8.214
29653WAT     H289202   3.400   8.055   8.334
29654WAT      O89203   8.249   7.899   5.310
29654WAT     H189204   8.254   7.911   5.211
29654WAT     H289205   8.334   7.930   5.352
29655WAT      O89206   5.050   2.676   5.086
29655WAT     H189207   4.967   2.621   5.082
29655WAT     H289208   5.102   2.651   5.168
29656WAT      O89209   9.165   3.630   6.525
29656WAT     H189210   9.111   3.561   6.477
29656WAT     H289211   9.110   3.712   6.539
29657WAT      O89212   4.047   0.664   9.209
29657WAT     H189213   3.974   0.648   9.142
29657WAT     H289214   4.114   0.728   9.170
29658WAT      O89215   0.977   1.014   9.076
29658WAT     H189216   0.914   0.993   9.151
29658WAT     H289217   1.031   0.932   9.055
29659WAT      O89218   4.984   6.096   8.927
29659WAT     H189219   4.991   6.130   8.833
29659WAT     H289220   4.887   6.092   8.953
29660WAT      O89221   4.863   5.917   6.809
29660WAT     H189222   4.927   5.904   6.733
29660WAT     H289223   4.831   6.012   6.809
29661WAT      O89224   6.294   6.565   0.564
29661WAT     H189225   6.241   6.649   0.574
29661WAT     H289226   6.312   6.526   0.654
29662WAT      O89227   4.253   2.593   0.763
29662WAT     H189228   4.248   2.693   0.773
29662WAT     H289229   4.318   2.570   0.691
29663WAT      O89230   4.979   3.637   4.073
29663WAT     H189231   4.905   3.580   4.037
29663WAT     H289232   5.012   3.697   4.000
29664WAT      O89233   5.412   2.145   1.357
29664WAT     H189234   5.441   2.143   1.452
29664WAT     H289235   5.367   2.059   1.333
29665WAT      O89236   4.413   1.998   5.397
29665WAT     H189237   4.371   2.071   5.451
29665WAT     H289238   4.480   2.038   5.334
29666WAT      O89239   2.256   6.281   5.308
29666WAT     H189240   2.253   6.381   5.319
29666WAT     H289241   2.204   6.238   5.381
29667WAT      O89242   4.978   2.022   6.781
29667WAT     H189243   4.937   2.084   6.715
29667WAT     H289244   4.922   1.940   6.790
29668WAT      O89245   9.446   6.796   7.099
29668WAT     H189246   9.388   6.761   7.172
29668WAT     H289247   9.508   6.724   7.067
29669WAT      O89248   6.322   2.295   6.560
29669WAT     H189249   6.250   2.324   6.623
29669WAT     H289250   6.338   2.197   6.570
29670WAT      O89251   6.802   3.990   9.000
29670WAT     H189252   6.884   3.993   9.058
29670WAT     H289253   6.734   4.054   9.036
29671WAT      O89254   3.619   3.618   1.595
29671WAT     H189255   3.552   3.545   1.611
29671WAT     H289256   3.697   3.582   1.545
29672WAT      O89257   9.809   6.473   5.731
29672WAT     H189258   9.867   6.403   5.688
29672WAT     H289259   9.848   6.564   5.714
29673WAT      O89260   7.275   9.347   4.192
29673WAT     H189261   7.233   9.389   4.272
29673WAT     H289262   7.311   9.418   4.132
29674WAT      O89263   4.842   2.441   6.276
29674WAT     H189264   4.868   2.445   6.180
29674WAT     H289265   4.805   2.530   6.304
29675WAT      O89266   9.053   0.302   1.943
29675WAT     H189267   9.146   0.323   1.973
29675WAT     H289268   9.048   0.304   1.843
29676WAT      O89269   0.500   8.344   3.481
29676WAT     H189270   0.427   8.314   3.542
29676WAT     H289271   0.464   8.412   3.417
29677WAT      O89272   2.506   0.389   7.625
29677WAT     H189273   2.555   0.467   7.587
29677WAT     H289274   2.408   0.398   7.604
29678WAT      O89275   2.403   3.707   6.303
29678WAT     H189276   2.402   3.805   6.283
29678WAT     H289277   2.442   3.692   6.393
29679WAT      O89278   7.816   1.993   3.316
29679WAT     H189279   7.836   2.010   3.413
29679WAT     H289280   7.764   1.908   3.307
29680WAT      O89281   4.706   2.966   1.461
29680WAT     H189282   4.801   2.938   1.475
29680WAT     H289283   4.702   3.065   1.450
29681WAT      O89284   1.728   4.991   4.463
29681WAT     H189285   1.769   5.066   4.412
29681WAT     H289286   1.801   4.933   4.500
29682WAT      O89287   3.720   2.876   5.885
29682WAT     H189288   3.750   2.866   5.980
29682WAT     H289289   3.788   2.833   5.824
29683WAT      O89290   1.680   4.431   9.478
29683WAT     H189291   1.744   4.446   9.402
29683WAT     H289292   1.599   4.383   9.444
29684WAT      O89293   0.485   6.824   9.116
29684WAT     H189294   0.388   6.822   9.140
29684WAT     H289295   0.504   6.755   9.047
29685WAT      O89296   6.496   7.231   1.230
29685WAT     H189297   6.471   7.323   1.262
29685WAT     H289298   6.530   7.238   1.136
29686WAT      O89299   5.567   5.471   9.290
29686WAT     H189300   5.634   5.408   9.250
29686WAT     H289301   5.585   5.480   9.388
29687WAT      O89302   3.541   6.414   1.807
29687WAT     H189303   3.637   6.442   1.815
29687WAT     H289304   3.498   6.462   1.730
29688WAT      O89305   7.976   9.476   5.943
29688WAT     H189306   7.879   9.481   5.965
29688WAT     H289307   7.989   9.420   5.861
29689WAT      O89308   6.396   1.841   6.221
29689WAT     H189309   6.424   1.768   6.283
29689WAT     H289310   6.343   1.909   6.272
29690WAT      O89311   6.577   2.055   6.185
29690WAT     H189312   6.642   2.049   6.261
29690WAT     H289313   6.526   1.969   6.177
29691WAT      O89314   5.015   4.984   3.697
29691WAT     H189315   4.943   4.921   3.727
29691WAT     H289316   5.094   4.977   3.757
29692WAT      O89317   4.504   2.055   0.670
29692WAT     H189318   4.485   2.126   0.738
29692WAT     H289319   4.596   2.068   0.633
29693WAT      O89320   7.005   9.619   9.081
29693WAT     H189321   6.920   9.659   9.115
29693WAT     H289322   7.083   9.676   9.109
29694WAT      O89323   1.115   7.679   3.286
29694WAT     H189324   1.103   7.654   3.190
29694WAT     H289325   1.207   7.653   3.317
29695WAT      O89326   6.579   4.231   3.516
29695WAT     H189327   6.624   4.142   3.516
29695WAT     H289328   6.643   4.301   3.548
29696WAT      O89329   6.439   0.887   1.135
29696WAT     H189330   6.428   0.817   1.064
29696WAT     H289331   6.516   0.946   1.111
29697WAT      O89332   0.710   6.693   7.001
29697WAT     H189333   0.631   6.649   6.959
29697WAT     H289334   0.748   6.632   7.071
29698WAT      O89335   2.446   9.580   4.275
29698WAT     H189336   2.447   9.660   4.335
29698WAT     H289337   2.430   9.609   4.180
29699WAT      O89338   1.768   0.557   8.089
29699WAT     H189339   1.828   0.478   8.098
29699WAT     H289340   1.817   0.640   8.118
29700WAT      O89341   8.027   4.143   0.270
29700WAT     H189342   8.104   4.207   0.274
29700WAT     H289343   8.020   4.095   0.357
29701WAT      O89344   6.105   1.272   2.829
29701WAT     H189345   6.077   1.323   2.748
29701WAT     H289346   6.202   1.285   2.846
29702WAT      O89347   1.825   4.405   1.214
29702WAT     H189348   1.758   4.456   1.268
29702WAT     H289349   1.847   4.457   1.131
29703WAT      O89350   3.245   4.899   6.126
29703WAT     H189351   3.219   4.942   6.039
29703WAT     H289352   3.246   4.800   6.115
29704WAT      O89353   4.473   1.458   6.483
29704WAT     H189354   4.533   1.426   6.409
29704WAT     H289355   4.483   1.399   6.562
29705WAT      O89356   8.389   5.196   3.245
29705WAT     H189357   8.308   5.165   3.194
29705WAT     H289358   8.362   5.232   3.334
29706WAT      O89359   1.598   7.121   1.108
29706WAT     H189360   1.582   7.056   1.033
29706WAT     H289361   1.692   7.155   1.102
29707WAT      O89362   9.654   0.544   1.079
29707WAT     H189363   9.695   0.617   1.024
29707WAT     H289364   9.571   0.511   1.034
29708WAT      O89365   9.663   2.219   7.722
29708WAT     H189366   9.747   2.190   7.674
29708WAT     H289367   9.636   2.309   7.690
29709WAT      O89368   5.490   5.118   8.273
29709WAT     H189369   5.486   5.214   8.300
29709WAT     H289370   5.402   5.075   8.291
29710WAT      O89371   4.352   4.677   2.540
29710WAT     H189372   4.400   4.601   2.496
29710WAT     H289373   4.407   4.711   2.616
29711WAT      O89374   6.969   5.706   9.475
29711WAT     H189375   6.895   5.738   9.534
29711WAT     H289376   6.938   5.702   9.380
29712WAT      O89377   1.674   9.570   7.112
29712WAT     H189378   1.737   9.632   7.065
29712WAT     H289379   1.580   9.594   7.089
29713WAT      O89380   6.308   2.428   4.720
29713WAT     H189381   6.382   2.454   4.782
29713WAT     H289382   6.224   2.415   4.772
29714WAT      O89383   1.779   7.555   8.610
29714WAT     H189384   1.741   7.615   8.680
29714WAT     H289385   1.834   7.608   8.546
29715WAT      O89386   0.299   6.048   8.119
29715WAT     H189387   0.242   6.098   8.053
29715WAT     H289388   0.352   5.978   8.072
29716WAT      O89389   7.861   3.340   7.484
29716WAT     H189390   7.901   3.399   7.554
29716WAT     H289391   7.935   3.296   7.432
29717WAT      O89392   5.777   3.886   2.321
29717WAT     H189393   5.747   3.980   2.309
29717WAT     H289394   5.751   3.854   2.413
29718WAT      O89395   5.575   3.052   3.365
29718WAT     H189396   5.650   3.026   3.426
29718WAT     H289397   5.602   3.033   3.270
29719WAT      O89398   1.348   8.457   2.083
29719WAT     H189399   1.428   8.466   2.143
29719WAT     H289400   1.292   8.540   2.090
29720WAT      O89401   1.883   3.859   4.575
29720WAT     H189402   1.879   3.939   4.634
29720WAT     H289403   1.978   3.836   4.556
29721WAT      O89404   3.777   5.615   3.456
29721WAT     H189405   3.785   5.515   3.449
29721WAT     H289406   3.857   5.652   3.503
29722WAT      O89407   3.932   3.105   2.197
29722WAT     H189408   3.940   3.028   2.259
29722WAT     H289409   3.885   3.181   2.243
29723WAT      O89410   3.498   8.921   9.163
29723WAT     H189411   3.431   8.995   9.156
29723WAT     H289412   3.579   8.945   9.110
29724WAT      O89413   5.946   3.895   3.877
29724WAT     H189414   6.036   3.856   3.859
29724WAT     H289415   5.881   3.863   3.809
29725WAT      O89416   6.728   5.941   8.008
29725WAT     H189417   6.785   5.890   7.944
29725WAT     H289418   6.681   6.015   7.959
29726WAT      O89419   1.659   1.319   1.226
29726WAT     H189420   1.626   1.359   1.141
29726WAT     H289421   1.726   1.247   1.205
29727WAT      O89422   9.281   0.597   7.319
29727WAT     H189423   9.288   0.661   7.242
29727WAT     H289424   9.226   0.638   7.392
29728WAT      O89425   0.517   2.554   2.274
29728WAT     H189426   0.446   2.625   2.275
29728WAT     H289427   0.473   2.464   2.264
29729WAT      O89428   6.612   3.834   0.533
29729WAT     H189429   6.698   3.784   0.537
29729WAT     H289430   6.629   3.927   0.500
29730WAT      O89431   3.084   5.454   6.475
29730WAT     H189432   3.063   5.367   6.431
29730WAT     H289433   3.172   5.448   6.522
29731WAT      O89434   3.387   6.572   8.426
29731WAT     H189435   3.326   6.578   8.505
29731WAT     H289436   3.404   6.664   8.390
29732WAT      O89437   8.376   3.454   4.132
29732WAT     H189438   8.383   3.517   4.209
29732WAT     H289439   8.467   3.418   4.110
29733WAT      O89440   7.490   4.390   1.539
29733WAT     H189441   7.538   4.312   1.579
29733WAT     H289442   7.400   4.399   1.582
29734WAT      O89443   8.175   6.900   3.192
29734WAT     H189444   8.228   6.818   3.173
29734WAT     H289445   8.139   6.895   3.285
29735WAT      O89446   9.406   6.882   9.086
29735WAT     H189447   9.432   6.956   9.023
29735WAT     H289448   9.312   6.899   9.118
29736WAT      O89449   2.798   9.147   7.235
29736WAT     H189450   2.706   9.114   7.256
29736WAT     H289451   2.859   9.069   7.222
29737WAT      O89452   2.421   5.469   8.584
29737WAT     H189453   2.382   5.551   8.624
29737WAT     H289454   2.357   5.393   8.595
29738WAT      O89455   4.076   1.451   2.864
29738WAT     H189456   4.023   1.428   2.783
29738WAT     H289457   4.162   1.494   2.836
29739WAT      O89458   6.836   2.378   6.621
29739WAT     H189459   6.931   2.392   6.596
29739WAT     H289460   6.793   2.466   6.640
29740WAT      O89461   4.734   0.700   6.093
29740WAT     H189462   4.692   0.711   6.183
29740WAT     H289463   4.718   0.607   6.060
29741WAT      O89464   9.778   3.882   1.689
29741WAT     H189465   9.826   3.879   1.601
29741WAT     H289466   9.680   3.883   1.674
29742WAT      O89467   1.655   1.416   8.452
29742WAT     H189468   1.686   1.481   8.384
29742WAT     H289469   1.571   1.449   8.495
29743WAT      O89470   3.324   5.074   2.897
29743WAT     H189471   3.311   5.172   2.912
29743WAT     H289472   3.235   5.029   2.893
29744WAT      O89473   2.603   8.655   0.840
29744WAT     H189474   2.547   8.620   0.765
29744WAT     H289475   2.585   8.753   0.851
29745WAT      O89476   6.780   1.861   9.742
29745WAT     H189477   6.802   1.768   9.774
29745WAT     H289478   6.695   1.892   9.782
29746WAT      O89479   0.462   4.754   0.377
29746WAT     H189480   0.522   4.814   0.325
29746WAT     H289481   0.377   4.740   0.327
29747WAT      O89482   3.816   7.827   8.163
29747WAT     H189483   3.783   7.833   8.257
29747WAT     H289484   3.739   7.833   8.100
29748WAT      O89485   5.680   1.217   6.375
29748WAT     H189486   5.666   1.209   6.277
29748WAT     H289487   5.680   1.313   6.401
29749WAT      O89488   7.481   2.295   5.928
29749WAT     H189489   7.535   2.325   6.007
29749WAT     H289490   7.407   2.360   5.912
29750WAT      O89491   1.365   7.754   1.761
29750WAT     H189492   1.396   7.712   1.676
29750WAT     H289493   1.422   7.724   1.837
29751WAT      O89494   5.107   2.895   3.388
29751WAT     H189495   5.196   2.882   3.432
29751WAT     H289496   5.103   2.843   3.303
29752WAT      O89497   0.421   5.802   1.671
29752WAT     H189498   0.432   5.778   1.575
29752WAT     H289499   0.469   5.889   1.688
29753WAT      O89500   8.124   1.088   3.166
29753WAT     H189501   8.027   1.101   3.190
29753WAT     H289502   8.152   1.160   3.103
29754WAT      O89503   1.987   8.634   6.809
29754WAT     H189504   2.002   8.581   6.725
29754WAT     H289505   2.069   8.630   6.866
29755WAT      O89506   9.330   8.796   7.976
29755WAT     H189507   9.305   8.745   7.894
29755WAT     H289508   9.420   8.765   8.008
29756WAT      O89509   7.932   0.214   6.001
29756WAT     H189510   7.988   0.270   6.062
29756WAT     H289511   7.845   0.260   5.983
29757WAT      O89512   4.780   8.200   6.865
29757WAT     H189513   4.856   8.265   6.861
29757WAT     H289514   4.721   8.224   6.942
29758WAT      O89515   0.145   0.889   3.904
29758WAT     H189516   0.166   0.888   3.806
29758WAT     H289517   0.053   0.926   3.918
29759WAT      O89518   9.804   1.543   2.933
29759WAT     H189519   9.746   1.544   3.015
29759WAT     H289520   9.896   1.512   2.958
29760WAT      O89521   3.790   9.009   4.778
29760WAT     H189522   3.808   8.911   4.771
29760WAT     H289523   3.714   9.025   4.841
29761WAT      O89524   1.754   9.334   8.215
29761WAT     H189525   1.662   9.305   8.242
29761WAT     H289526   1.818   9.259   8.231
29762WAT      O89527   6.929   4.163   3.204
29762WAT     H189528   6.845   4.177   3.150
29762WAT     H289529   6.910   4.184   3.300
29763WAT      O89530   3.546   7.983   5.184
29763WAT     H189531   3.457   7.963   5.143
29763WAT     H289532   3.552   7.937   5.273
29764WAT      O89533   3.242   8.743   2.938
29764WAT     H189534   3.255   8.644   2.933
29764WAT     H289535   3.252   8.782   2.846
29765WAT      O89536   8.027   4.576   5.261
29765WAT     H189537   8.081   4.630   5.325
29765WAT     H289538   7.936   4.618   5.250
29766WAT      O89539   2.763   0.095   0.301
29766WAT     H189540   2.795   0.007   0.266
29766WAT     H289541   2.664   0.102   0.286
29767WAT      O89542   0.703   2.084   9.770
29767WAT     H189543   0.790   2.069   9.725
29767WAT     H289544   0.629   2.044   9.716
29768WAT      O89545   9.413   2.499   8.267
29768WAT     H189546   9.355   2.418   8.254
29768WAT     H289547   9.355   2.579   8.283
29769WAT      O89548   2.261   6.117   3.254
29769WAT     H189549   2.242   6.060   3.334
29769WAT     H289550   2.359   6.114   3.235
29770WAT      O89551   8.661   6.643   8.326
29770WAT     H189552   8.592   6.699   8.280
29770WAT     H289553   8.654   6.658   8.425
29771WAT      O89554   5.512   8.355   6.063
29771WAT     H189555   5.518   8.358   6.163
29771WAT     H289556   5.517   8.448   6.026
29772WAT      O89557   9.680   3.715   4.903
29772WAT     H189558   9.649   3.644   4.967
29772WAT     H289559   9.683   3.678   4.810
29773WAT      O89560   7.369   2.784   4.275
29773WAT     H189561   7.460   2.801   4.313
29773WAT     H289562   7.372   2.703   4.216
29774WAT      O89563   2.021   6.525   6.075
29774WAT     H189564   2.005   6.528   6.173
29774WAT     H289565   2.005   6.616   6.036
29775WAT      O89566   7.919   3.008   4.684
29775WAT     H189567   7.914   3.092   4.739
29775WAT     H289568   7.944   2.931   4.743
29776WAT      O89569   3.290   4.939   2.652
29776WAT     H189570   3.297   4.862   2.715
29776WAT     H289571   3.304   5.024   2.703
29777WAT      O89572   5.468   1.396   2.325
29777WAT     H189573   5.561   1.362   2.308
29777WAT     H289574   5.413   1.322   2.364
29778WAT      O89575   3.467   5.336   7.038
29778WAT     H189576   3.531   5.314   7.111
29778WAT     H289577   3.409   5.413   7.066
29779WAT      O89578   5.948   8.334   2.962
29779WAT     H189579   6.023   8.292   3.014
29779WAT     H289580   5.923   8.273   2.887
29780WAT      O89581   8.046   0.931   7.420
29780WAT     H189582   7.952   0.966   7.417
29780WAT     H289583   8.056   0.871   7.499
29781WAT      O89584   6.915   5.050   4.576
29781WAT     H189585   6.862   5.073   4.658
29781WAT     H289586   6.856   5.058   4.495
29782WAT      O89587   2.429   1.693   2.340
29782WAT     H189588   2.358   1.647   2.393
29782WAT     H289589   2.430   1.790   2.363
29783WAT      O89590   5.669   5.720   0.658
29783WAT     H189591   5.604   5.795   0.652
29783WAT     H289592   5.685   5.682   0.567
29784WAT      O89593   3.170   0.468   8.849
29784WAT     H189594   3.242   0.483   8.781
29784WAT     H289595   3.185   0.380   8.895
29785WAT      O89596   1.174   6.654   2.889
29785WAT     H189597   1.163   6.657   2.989
29785WAT     H289598   1.269   6.627   2.868
29786WAT      O89599   3.330   9.115   9.193
29786WAT     H189600   3.363   9.205   9.223
29786WAT     H289601   3.261   9.127   9.121
29787WAT      O89602   6.342   2.908   8.945
29787WAT     H189603   6.415   2.905   9.014
29787WAT     H289604   6.290   2.822   8.948
29788WAT      O89605   5.942   3.561   7.736
29788WAT     H189606   5.941   3.474   7.786
29788WAT     H289607   5.850   3.598   7.731
29789WAT      O89608   3.163   8.579   9.085
29789WAT     H189609   3.198   8.485   9.095
29789WAT     H289610   3.241   8.642   9.083
29790WAT      O89611   1.027   1.924   6.743
29790WAT     H189612   1.038   2.019   6.714
29790WAT     H289613   1.080   1.909   6.826
29791WAT      O89614   9.292   5.427   4.106
29791WAT     H189615   9.294   5.512   4.158
29791WAT     H289616   9.207   5.378   4.125
29792WAT      O89617   3.366   5.057   8.449
29792WAT     H189618   3.433   4.997   8.493
29792WAT     H289619   3.406   5.147   8.433
29793WAT      O89620   8.944   4.513   0.385
29793WAT     H189621   8.943   4.542   0.481
29793WAT     H289622   8.998   4.578   0.331
29794WAT      O89623   2.687   2.215   3.069
29794WAT     H189624   2.626   2.199   3.147
29794WAT     H289625   2.635   2.214   2.984
29795WAT      O89626   8.005   4.552   9.733
29795WAT     H189627   8.010   4.535   9.832
29795WAT     H289628   8.092   4.524   9.691
29796WAT      O89629   6.133   5.940   7.708
29796WAT     H189630   6.156   6.023   7.657
29796WAT     H289631   6.041   5.950   7.747
29797WAT      O89632   4.028   6.073   8.436
29797WAT     H189633   4.112   6.074   8.489
29797WAT     H289634   3.963   6.139   8.475
29798WAT      O89635   2.378   4.597   6.659
29798WAT     H189636   2.367   4.499   6.674
29798WAT     H289637   2.336   4.647   6.734
29799WAT      O89638   5.808   6.164   8.179
29799WAT     H189639   5.889   6.134   8.130
29799WAT     H289640   5.796   6.110   8.262
29800WAT      O89641   6.245   7.875   0.815
29800WAT     H189642   6.215   7.820   0.737
29800WAT     H289643   6.316   7.938   0.786
29801WAT      O89644   4.337   5.665   5.126
29801WAT     H189645   4.351   5.642   5.222
29801WAT     H289646   4.263   5.732   5.118
29802WAT      O89647   3.833   0.204   7.327
29802WAT     H189648   3.831   0.149   7.244
29802WAT     H289649   3.756   0.268   7.326
29803WAT      O89650   0.728   3.340   4.715
29803WAT     H189651   0.690   3.377   4.630
29803WAT     H289652   0.823   3.314   4.699
29804WAT      O89653   9.337   2.838   7.161
29804WAT     H189654   9.426   2.828   7.118
29804WAT     H289655   9.347   2.886   7.249
29805WAT      O89656   8.450   5.129   5.518
29805WAT     H189657   8.395   5.209   5.543
29805WAT     H289658   8.547   5.154   5.524
29806WAT      O89659   8.609   1.435   6.396
29806WAT     H189660   8.512   1.425   6.418
29806WAT     H289661   8.640   1.357   6.343
29807WAT      O89662   5.963   4.824   9.330
29807WAT     H189663   6.045   4.870   9.363
29807WAT     H289664   5.979   4.791   9.237
29808WAT      O89665   7.302   7.985   8.168
29808WAT     H189666   7.334   8.061   8.111
29808WAT     H289667   7.209   8.004   8.200
29809WAT      O89668   8.842   0.799   3.756
29809WAT     H189669   8.759   0.852   3.739
29809WAT     H289670   8.923   0.856   3.742
29810WAT      O89671   9.327   9.610   2.936
29810WAT     H189672   9.281   9.544   2.878
29810WAT     H289673   9.405   9.567   2.982
29811WAT      O89674   5.349   8.926   6.932
29811WAT     H189675   5.288   9.001   6.955
29811WAT     H289676   5.319   8.883   6.847
29812WAT      O89677   3.140   2.805   7.069
29812WAT     H189678   3.216   2.859   7.105
29812WAT     H289679   3.169   2.758   6.986
29813WAT      O89680   0.780   3.743   2.244
29813WAT     H189681   0.718   3.719   2.170
29813WAT     H289682   0.778   3.670   2.313
29814WAT      O89683   8.120   5.177   6.651
29814WAT     H189684   8.152   5.172   6.557
29814WAT     H289685   8.030   5.134   6.659
29815WAT      O89686   0.712   8.491   3.622
29815WAT     H189687   0.700   8.560   3.549
29815WAT     H289688   0.677   8.403   3.590
29816WAT      O89689   6.287   0.871   6.448
29816WAT     H189690   6.239   0.795   6.492
29816WAT     H289691   6.352   0.834   6.382
29817WAT      O89692   4.697   7.407   0.347
29817WAT     H189693   4.649   7.351   0.280
29817WAT     H289694   4.780   7.444   0.306
29818WAT      O89695   3.164   8.885   6.423
29818WAT     H189696   3.181   8.951   6.496
29818WAT     H289697   3.251   8.852   6.387
29819WAT      O89698   8.694   1.889   2.891
29819WAT     H189699   8.644   1.908   2.976
29819WAT     H289700   8.792   1.882   2.912
29820WAT      O89701   0.655   0.083   5.033
29820WAT     H189702   0.670   0.039   5.122
29820WAT     H289703   0.740   0.082   4.981
29821WAT      O89704   9.195   3.233   7.258
29821WAT     H189705   9.228   3.326   7.239
29821WAT     H289706   9.209   3.213   7.355
29822WAT      O89707   1.405   4.520   4.099
29822WAT     H189708   1.498   4.536   4.066
29822WAT     H289709   1.379   4.425   4.079
29823WAT      O89710   8.892   0.129   2.047
29823WAT     H189711   8.951   0.201   2.012
29823WAT     H289712   8.871   0.064   1.973
29824WAT      O89713   7.619   7.706   2.917
29824WAT     H189714   7.622   7.805   2.921
29824WAT     H289715   7.710   7.669   2.902
29825WAT      O89716   3.827   5.766   6.714
29825WAT     H189717   3.786   5.841   6.661
29825WAT     H289718   3.867   5.803   6.798
29826WAT      O89719   4.100   2.351   9.403
29826WAT     H189720   4.102   2.281   9.331
29826WAT     H289721   4.066   2.311   9.487
29827WAT      O89722   7.100   3.115   0.858
29827WAT     H189723   7.005   3.083   0.861
29827WAT     H289724   7.140   3.109   0.949
29828WAT      O89725   3.776   7.180   1.927
29828WAT     H189726   3.778   7.258   1.990
29828WAT     H289727   3.689   7.132   1.938
29829WAT      O89728   7.438   4.279   3.422
29829WAT     H189729   7.472   4.350   3.360
29829WAT     H289730   7.466   4.300   3.516
29830WAT      O89731   7.433   9.006   4.049
29830WAT     H189732   7.399   9.026   4.141
29830WAT     H289733   7.524   8.965   4.056
29831WAT      O89734   4.045   0.526   0.113
29831WAT     H189735   4.108   0.565   0.180
29831WAT     H289736   3.954   0.567   0.125
29832WAT      O89737   1.361   9.660   7.989
29832WAT     H189738   1.292   9.614   7.934
29832WAT     H289739   1.418   9.717   7.930
29833WAT      O89740   0.137   9.275   1.405
29833WAT     H189741   0.227   9.291   1.366
29833WAT     H289742   0.080   9.356   1.390
29834WAT      O89743   2.853   8.369   4.473
29834WAT     H189744   2.905   8.364   4.558
29834WAT     H289745   2.916   8.370   4.395
29835WAT      O89746   8.029   2.644   7.654
29835WAT     H189747   8.108   2.587   7.634
29835WAT     H289748   8.053   2.740   7.638
29836WAT      O89749   4.894   1.350   0.164
29836WAT     H189750   4.961   1.284   0.199
29836WAT     H289751   4.915   1.441   0.200
29837WAT      O89752   3.649   9.526   1.867
29837WAT     H189753   3.587   9.604   1.868
29837WAT     H289754   3.743   9.557   1.873
29838WAT      O89755   7.402   6.635   2.784
29838WAT     H189756   7.311   6.628   2.825
29838WAT     H289757   7.407   6.576   2.704
29839WAT      O89758   3.305   2.768   4.023
29839WAT     H189759   3.354   2.720   3.950
29839WAT     H289760   3.309   2.867   4.007
29840WAT      O89761   0.428   1.433   4.282
29840WAT     H189762   0.493   1.410   4.210
29840WAT     H289763   0.366   1.357   4.297
29841WAT      O89764   3.452   3.610   0.639
29841WAT     H189765   3.416   3.566   0.721
29841WAT     H289766   3.396   3.690   0.616
29842WAT      O89767   5.219   0.619   5.189
29842WAT     H189768   5.221   0.701   5.245
29842WAT     H289769   5.310   0.579   5.184
29843WAT      O89770   6.239   3.302   0.990
29843WAT     H189771   6.206   3.394   1.013
29843WAT     H289772   6.323   3.284   1.041
29844WAT      O89773   2.484   2.761   9.735
29844WAT     H189774   2.527   2.679   9.773
29844WAT     H289775   2.412   2.733   9.672
29845WAT      O89776   8.080   4.695   8.580
29845WAT     H189777   8.006   4.666   8.641
29845WAT     H289778   8.105   4.789   8.600
29846WAT      O89779   4.575   7.163   3.822
29846WAT     H189780   4.544   7.092   3.886
29846WAT     H289781   4.496   7.212   3.786
29847WAT      O89782   7.591   4.044   5.506
29847WAT     H189783   7.500   4.081   5.487
29847WAT     H289784   7.585   3.946   5.523
29848WAT      O89785   8.190   8.040   4.167
29848WAT     H189786   8.114   8.005   4.222
29848WAT     H289787   8.238   8.112   4.218
29849WAT      O89788   7.269   5.231   7.635
29849WAT     H189789   7.255   5.314   7.689
29849WAT     H289790   7.181   5.198   7.601
29850WAT      O89791   2.944   3.779   2.571
29850WAT     H189792   2.993   3.695   2.594
29850WAT     H289793   2.847   3.768   2.591
29851WAT      O89794   8.007   1.890   8.233
29851WAT     H189795   7.948   1.910   8.155
29851WAT     H289796   7.991   1.797   8.265
29852WAT      O89797   4.248   6.304   4.695
29852WAT     H189798   4.257   6.211   4.659
29852WAT     H289799   4.255   6.369   4.619
29853WAT      O89800   9.698   8.143   1.034
29853WAT     H189801   9.662   8.083   1.106
29853WAT     H289802   9.719   8.088   0.953
29854WAT      O89803   6.110   6.555   7.693
29854WAT     H189804   6.044   6.545   7.619
29854WAT     H289805   6.089   6.638   7.745
29855WAT      O89806   9.170   4.131   8.507
29855WAT     H189807   9.228   4.068   8.557
29855WAT     H289808   9.153   4.213   8.563
29856WAT      O89809   8.333   5.854   0.172
29856WAT     H189810   8.419   5.807   0.191
29856WAT     H289811   8.287   5.809   0.096
29857WAT      O89812   5.520   2.488   6.682
29857WAT     H189813   5.435   2.540   6.681
29857WAT     H289814   5.502   2.393   6.658
29858WAT      O89815   6.584   3.546   7.460
29858WAT     H189816   6.624   3.633   7.488
29858WAT     H289817   6.553   3.496   7.541
29859WAT      O89818   9.236   5.956   9.196
29859WAT     H189819   9.306   6.026   9.182
29859WAT     H289820   9.174   5.955   9.118
29860WAT      O89821   2.795   5.415   1.567
29860WAT     H189822   2.748   5.497   1.534
29860WAT     H289823   2.828   5.430   1.660
29861WAT      O89824   5.901   2.790   9.775
29861WAT     H189825   5.842   2.789   9.695
29861WAT     H289826   5.996   2.781   9.746
29862WAT      O89827   2.670   8.364   8.235
29862WAT     H189828   2.707   8.299   8.169
29862WAT     H289829   2.570   8.355   8.238
29863WAT      O89830   2.356   4.443   7.369
29863WAT     H189831   2.259   4.424   7.385
29863WAT     H289832   2.376   4.537   7.396
29864WAT      O89833   7.978   1.716   4.451
29864WAT     H189834   7.940   1.706   4.359
29864WAT     H289835   8.045   1.790   4.452
29865WAT      O89836   8.674   8.453   7.378
29865WAT     H189837   8.626   8.538   7.402
29865WAT     H289838   8.620   8.375   7.409
29866WAT      O89839   1.450   3.085   4.799
29866WAT     H189840   1.420   3.180   4.802
29866WAT     H289841   1.515   3.073   4.724
29867WAT      O89842   0.728   8.426   5.798
29867WAT     H189843   0.686   8.335   5.799
29867WAT     H289844   0.705   8.473   5.713
29868WAT      O89845   5.362   4.829   2.741
29868WAT     H189846   5.374   4.907   2.802
29868WAT     H289847   5.340   4.862   2.649
29869WAT      O89848   7.026   3.711   3.560
29869WAT     H189849   7.074   3.658   3.630
29869WAT     H289850   7.024   3.807   3.587
29870WAT      O89851   4.993   3.148   0.294
29870WAT     H189852   5.071   3.125   0.353
29870WAT     H289853   4.909   3.112   0.335
29871WAT      O89854   9.025   8.509   9.387
29871WAT     H189855   9.028   8.594   9.439
29871WAT     H289856   9.069   8.522   9.298
29872WAT      O89857   6.333   9.702   7.551
29872WAT     H189858   6.314   9.605   7.538
29872WAT     H289859   6.249   9.750   7.574
29873WAT      O89860   7.259   0.517   1.588
29873WAT     H189861   7.340   0.465   1.560
29873WAT     H289862   7.241   0.589   1.521
29874WAT      O89863   2.656   1.538   1.650
29874WAT     H189864   2.712   1.611   1.611
29874WAT     H289865   2.664   1.540   1.750
29875WAT      O89866   4.799   2.592   3.444
29875WAT     H189867   4.783   2.690   3.440
29875WAT     H289868   4.873   2.572   3.508
29876WAT      O89869   0.726   0.029   3.800
29876WAT     H189870   0.794   0.102   3.816
29876WAT     H289871   0.674   0.049   3.717
29877WAT      O89872   3.337   0.009   5.469
29877WAT     H189873   3.284   0.076   5.417
29877WAT     H289874   3.288  -0.077   5.472
29878WAT      O89875   1.266   5.285   1.427
29878WAT     H189876   1.242   5.200   1.474
29878WAT     H289877   1.346   5.268   1.369
29879WAT      O89878   4.761   8.110   9.210
29879WAT     H189879   4.817   8.141   9.134
29879WAT     H289880   4.813   8.046   9.267
29880WAT      O89881   5.628   5.995   4.868
29880WAT     H189882   5.680   5.909   4.866
29880WAT     H289883   5.685   6.069   4.831
29881WAT      O89884   8.275   4.520   8.652
29881WAT     H189885   8.209   4.594   8.641
29881WAT     H289886   8.276   4.464   8.569
29882WAT      O89887   1.647   5.208   3.643
29882WAT     H189888   1.736   5.209   3.690
29882WAT     H289889   1.631   5.296   3.599
29883WAT      O89890   4.875   2.978   2.409
29883WAT     H189891   4.783   2.949   2.384
29883WAT     H289892   4.873   3.025   2.497
29884WAT      O89893   6.775   3.318   7.578
29884WAT     H189894   6.715   3.308   7.498
29884WAT     H289895   6.736   3.387   7.639
29885WAT      O89896   5.427   3.898   3.464
29885WAT     H189897   5.523   3.890   3.437
29885WAT     H289898   5.422   3.932   3.558
29886WAT      O89899   2.289   2.711   3.114
29886WAT     H189900   2.380   2.718   3.155
29886WAT     H289901   2.296   2.732   3.016
29887WAT      O89902   0.783   7.888   3.436
29887WAT     H189903   0.711   7.879   3.505
29887WAT     H289904   0.873   7.878   3.480
29888WAT      O89905   0.581   0.776   7.468
29888WAT     H189906   0.648   0.716   7.424
29888WAT     H289907   0.628   0.852   7.513
29889WAT      O89908   5.729   6.752   0.068
29889WAT     H189909   5.731   6.771   0.166
29889WAT     H289910   5.789   6.676   0.047
29890WAT      O89911   0.678   9.100   4.266
29890WAT     H189912   0.764   9.134   4.229
29890WAT     H289913   0.602   9.140   4.214
29891WAT      O89914   8.174   6.230   0.662
29891WAT     H189915   8.163   6.330   0.665
29891WAT     H289916   8.105   6.191   0.601
29892WAT      O89917   6.530   2.002   1.564
29892WAT     H189918   6.614   1.961   1.600
29892WAT     H289919   6.451   1.961   1.609
29893WAT      O89920   1.976   2.117   0.485
29893WAT     H189921   2.071   2.110   0.453
29893WAT     H289922   1.915   2.081   0.414
29894WAT      O89923   2.691   9.386   3.952
29894WAT     H189924   2.753   9.432   3.888
29894WAT     H289925   2.600   9.380   3.911
29895WAT      O89926   8.802   0.568   6.362
29895WAT     H189927   8.806   0.624   6.444
29895WAT     H289928   8.712   0.577   6.320
29896WAT      O89929   3.997   6.693   5.524
29896WAT     H189930   4.008   6.716   5.620
29896WAT     H289931   3.926   6.751   5.483
29897WAT      O89932   8.548   3.703   9.322
29897WAT     H189933   8.513   3.646   9.396
29897WAT     H289934   8.500   3.679   9.237
29898WAT      O89935   9.855   8.551   7.639
29898WAT     H189936   9.800   8.538   7.722
29898WAT     H289937   9.952   8.557   7.664
29899WAT      O89938   7.779   5.520   0.946
29899WAT     H189939   7.874   5.522   0.913
29899WAT     H289940   7.749   5.614   0.964
29900WAT      O89941   7.643   7.123   2.589
29900WAT     H189942   7.626   7.050   2.523
29900WAT     H289943   7.739   7.152   2.583
29901WAT      O89944   2.874   7.842   4.751
29901WAT     H189945   2.792   7.884   4.713
29901WAT     H289946   2.916   7.903   4.817
29902WAT      O89947   5.550   2.776   6.584
29902WAT     H189948   5.578   2.680   6.588
29902WAT     H289949   5.451   2.783   6.598
29903WAT      O89950   5.595   3.045   4.734
29903WAT     H189951   5.640   3.109   4.796
29903WAT     H289952   5.660   3.014   4.665
29904WAT      O89953   1.557   2.922   1.184
29904WAT     H189954   1.515   2.873   1.260
29904WAT     H289955   1.491   2.987   1.146
29905WAT      O89956   0.622   9.437   1.963
29905WAT     H189957   0.558   9.501   1.921
29905WAT     H289958   0.573   9.352   1.986
29906WAT      O89959   7.580   0.971   1.500
29906WAT     H189960   7.621   1.059   1.525
29906WAT     H289961   7.484   0.985   1.476
29907WAT      O89962   1.077   6.191   9.020
29907WAT     H189963   1.014   6.150   9.086
29907WAT     H289964   1.067   6.145   8.932
29908WAT      O89965   3.013   6.469   0.067
29908WAT     H189966   3.030   6.565   0.089
29908WAT     H289967   3.099   6.418   0.070
29909WAT      O89968   8.261   6.477   1.354
29909WAT     H189969   8.212   6.499   1.269
29909WAT     H289970   8.341   6.422   1.332
29910WAT      O89971   0.123   1.434   9.479
29910WAT     H189972   0.039   1.384   9.456
29910WAT     H289973   0.099   1.517   9.530
29911WAT      O89974   6.043   8.020   9.295
29911WAT     H189975   6.075   8.070   9.214
29911WAT     H289976   5.988   7.942   9.266
29912WAT      O89977   9.828   2.985   6.620
29912WAT     H189978   9.875   2.962   6.706
29912WAT     H289979   9.730   2.968   6.630
29913WAT      O89980   1.929   1.801   6.637
29913WAT     H189981   1.901   1.717   6.683
29913WAT     H289982   1.857   1.869   6.645
29914WAT      O89983   2.584   3.362   5.204
29914WAT     H189984   2.525   3.430   5.161
29914WAT     H289985   2.615   3.297   5.135
29915WAT      O89986   5.375   7.225   7.478
29915WAT     H189987   5.384   7.322   7.456
29915WAT     H289988   5.303   7.213   7.547
29916WAT      O89989   6.074   9.172   0.689
29916WAT     H189990   6.016   9.183   0.770
29916WAT     H289991   6.116   9.259   0.666
29917WAT      O89992   0.963   4.909   5.305
29917WAT     H189993   1.003   4.865   5.225
29917WAT     H289994   0.945   4.841   5.376
29918WAT      O89995   7.251   4.207   9.036
29918WAT     H189996   7.268   4.304   9.056
29918WAT     H289997   7.164   4.198   8.987
29919WAT      O89998   0.403   5.798   4.765
29919WAT     H189999   0.441   5.723   4.711
29919WAT     H290000   0.434   5.886   4.728
29920WAT      O90001   2.428   1.264   4.403
29920WAT     H190002   2.381   1.189   4.449
29920WAT     H290003   2.513   1.285   4.452
29921WAT      O90004   1.030   6.682   6.461
29921WAT     H190005   0.957   6.715   6.520
29921WAT     H290006   0.992   6.619   6.394
29922WAT      O90007   1.964   2.800   4.491
29922WAT     H190008   2.057   2.773   4.464
29922WAT     H290009   1.898   2.742   4.445
29923WAT      O90010   1.432   0.761   6.249
29923WAT     H190011   1.496   0.684   6.259
29923WAT     H290012   1.393   0.783   6.339
29924WAT      O90013   6.776   7.374   8.789
29924WAT     H190014   6.714   7.377   8.868
29924WAT     H290015   6.830   7.458   8.787
29925WAT      O90016   0.927   7.380   7.062
29925WAT     H190017   0.866   7.439   7.115
29925WAT     H290018   0.949   7.425   6.975
29926WAT      O90019   7.639   8.938   0.676
29926WAT     H190020   7.673   9.013   0.733
29926WAT     H290021   7.563   8.892   0.722
29927WAT      O90022   7.756   6.992   9.450
29927WAT     H190023   7.678   7.034   9.497
29927WAT     H290024   7.806   7.063   9.400
29928WAT      O90025   8.362   6.340   2.376
29928WAT     H190026   8.346   6.264   2.313
29928WAT     H290027   8.280   6.397   2.381
29929WAT      O90028   2.994   4.712   0.861
29929WAT     H190029   2.984   4.793   0.918
29929WAT     H290030   3.090   4.683   0.860
29930WAT      O90031   2.711   7.518   0.543
29930WAT     H190032   2.639   7.588   0.547
29930WAT     H290033   2.770   7.526   0.623
29931WAT      O90034   6.471   5.774   8.407
29931WAT     H190035   6.396   5.814   8.354
29931WAT     H290036   6.553   5.766   8.350
29932WAT      O90037   6.180   9.204   1.616
29932WAT     H190038   6.101   9.180   1.673
29932WAT     H290039   6.249   9.249   1.673
29933WAT      O90040   0.549   1.383   3.995
29933WAT     H190041   0.538   1.288   4.026
29933WAT     H290042   0.512   1.392   3.903
29934WAT      O90043   9.037   7.896   4.216
29934WAT     H190044   9.059   7.937   4.127
29934WAT     H290045   9.069   7.956   4.289
29935WAT      O90046   3.774   3.577   4.555
29935WAT     H190047   3.818   3.658   4.517
29935WAT     H290048   3.679   3.573   4.525
29936WAT      O90049   9.543   5.842   1.683
29936WAT     H190050   9.539   5.755   1.635
29936WAT     H290051   9.553   5.826   1.781
29937WAT      O90052   6.033   3.906   1.652
29937WAT     H190053   6.114   3.912   1.711
29937WAT     H290054   5.972   3.835   1.687
29938WAT      O90055   4.699   8.460   7.919
29938WAT     H190056   4.657   8.451   8.009
29938WAT     H290057   4.790   8.500   7.928
29939WAT      O90058   8.694   5.498   6.828
29939WAT     H190059   8.677   5.464   6.735
29939WAT     H290060   8.633   5.575   6.847
29940WAT      O90061   4.951   5.964   1.733
29940WAT     H190062   4.983   6.025   1.661
29940WAT     H290063   4.868   5.918   1.703
29941WAT      O90064   3.606   2.556   0.918
29941WAT     H190065   3.585   2.577   1.014
29941WAT     H290066   3.549   2.611   0.858
29942WAT      O90067   3.004   5.089   1.281
29942WAT     H190068   3.066   5.099   1.203
29942WAT     H290069   2.917   5.053   1.250
29943WAT      O90070   7.578   7.543   0.193
29943WAT     H190071   7.523   7.467   0.156
29943WAT     H290072   7.675   7.521   0.184
29944WAT      O90073   2.723   3.724   5.868
29944WAT     H190074   2.780   3.806   5.867
29944WAT     H290075   2.695   3.703   5.962
29945WAT      O90076   1.310   0.646   3.994
29945WAT     H190077   1.358   0.731   3.975
29945WAT     H290078   1.359   0.570   3.952
29946WAT      O90079   6.384   1.214   5.606
29946WAT     H190080   6.366   1.169   5.694
29946WAT     H290081   6.319   1.288   5.592
29947WAT      O90082   4.820   3.211   8.856
29947WAT     H190083   4.918   3.228   8.855
29947WAT     H290084   4.791   3.175   8.767
29948WAT      O90085   1.919   3.450   3.582
29948WAT     H190086   1.929   3.475   3.678
29948WAT     H290087   1.917   3.533   3.526
29949WAT      O90088   9.594   3.197   7.892
29949WAT     H190089   9.635   3.121   7.943
29949WAT     H290090   9.543   3.255   7.955
29950WAT      O90091   8.897   3.986   2.495
29950WAT     H190092   8.847   4.037   2.425
29950WAT     H290093   8.990   3.968   2.463
29951WAT      O90094   6.384   5.364   8.697
29951WAT     H190095   6.396   5.434   8.627
29951WAT     H290096   6.473   5.323   8.717
29952WAT      O90097   7.217   3.000   3.966
29952WAT     H190098   7.211   3.039   3.874
29952WAT     H290099   7.313   2.988   3.992
29953WAT      O90100   5.809   1.072   6.557
29953WAT     H190101   5.749   1.142   6.519
29953WAT     H290102   5.890   1.062   6.499
29954WAT      O90103   4.500   7.436   8.059
29954WAT     H190104   4.507   7.530   8.027
29954WAT     H290105   4.564   7.378   8.010
29955WAT      O90106   3.658   8.053   0.396
29955WAT     H190107   3.731   8.011   0.342
29955WAT     H290108   3.693   8.072   0.488
29956WAT      O90109   1.118   5.180   6.905
29956WAT     H190110   1.160   5.270   6.917
29956WAT     H290111   1.131   5.125   6.988
29957WAT      O90112   8.809   0.069   9.415
29957WAT     H190113   8.895   0.017   9.417
29957WAT     H290114   8.736   0.013   9.452
29958WAT      O90115   1.709   5.915   3.048
29958WAT     H190116   1.616   5.916   3.087
29958WAT     H290117   1.736   5.820   3.029
29959WAT      O90118   6.691   3.351   1.135
29959WAT     H190119   6.768   3.415   1.133
29959WAT     H290120   6.689   3.298   1.050
29960WAT      O90121   7.268   0.194   4.270
29960WAT     H190122   7.200   0.246   4.218
29960WAT     H290123   7.275   0.231   4.362
29961WAT      O90124   5.891   5.944   7.454
29961WAT     H190125   5.796   5.915   7.466
29961WAT     H290126   5.900   6.041   7.481
29962WAT      O90127   6.116   7.348   8.582
29962WAT     H190128   6.142   7.345   8.486
29962WAT     H290129   6.190   7.311   8.638
29963WAT      O90130   9.031   2.500   0.673
29963WAT     H190131   9.043   2.435   0.748
29963WAT     H290132   9.053   2.455   0.587
29964WAT      O90133   7.983   4.418   3.028
29964WAT     H190134   8.020   4.336   2.985
29964WAT     H290135   8.029   4.434   3.115
29965WAT      O90136   7.079   6.064   0.700
29965WAT     H190137   7.140   6.135   0.736
29965WAT     H290138   6.996   6.061   0.757
29966WAT      O90139   6.448   4.301   8.391
29966WAT     H190140   6.352   4.297   8.367
29966WAT     H290141   6.503   4.254   8.322
29967WAT      O90142   1.877   0.915   5.642
29967WAT     H190143   1.824   0.953   5.718
29967WAT     H290144   1.921   0.830   5.670
29968WAT      O90145   9.373   5.616   4.834
29968WAT     H190146   9.467   5.634   4.863
29968WAT     H290147   9.338   5.694   4.783
29969WAT      O90148   7.047   5.771   4.104
29969WAT     H190149   7.015   5.700   4.040
29969WAT     H290150   7.146   5.783   4.093
29970WAT      O90151   5.250   7.680   9.607
29970WAT     H190152   5.256   7.587   9.570
29970WAT     H290153   5.337   7.706   9.648
29971WAT      O90154   0.598   9.288   4.846
29971WAT     H190155   0.652   9.289   4.762
29971WAT     H290156   0.618   9.370   4.899
29972WAT      O90157   3.671   7.630   6.090
29972WAT     H190158   3.641   7.637   6.185
29972WAT     H290159   3.614   7.563   6.042
29973WAT      O90160   0.599   0.076   5.977
29973WAT     H190161   0.625   0.120   5.892
29973WAT     H290162   0.507   0.105   6.004
29974WAT      O90163   2.693   5.320   3.082
29974WAT     H190164   2.720   5.284   2.993
29974WAT     H290165   2.706   5.419   3.083
29975WAT      O90166   3.791   6.470   8.265
29975WAT     H190167   3.755   6.562   8.282
29975WAT     H290168   3.718   6.411   8.231
29976WAT      O90169   6.591   6.742   7.522
29976WAT     H190170   6.642   6.793   7.592
29976WAT     H290171   6.499   6.724   7.555
29977WAT      O90172   4.664   8.957   5.419
29977WAT     H190173   4.677   9.054   5.396
29977WAT     H290174   4.725   8.901   5.362
29978WAT      O90175   1.803   8.549   2.440
29978WAT     H190176   1.711   8.564   2.476
29978WAT     H290177   1.825   8.452   2.444
29979WAT      O90178   6.587   6.572   8.843
29979WAT     H190179   6.521   6.526   8.784
29979WAT     H290180   6.672   6.587   8.793
29980WAT      O90181   6.251   1.895   3.481
29980WAT     H190182   6.180   1.950   3.525
29980WAT     H290183   6.340   1.939   3.494
29981WAT      O90184   3.399   6.875   4.113
29981WAT     H190185   3.445   6.814   4.049
29981WAT     H290186   3.453   6.882   4.197
29982WAT      O90187   8.141   8.217   2.111
29982WAT     H190188   8.200   8.165   2.174
29982WAT     H290189   8.103   8.295   2.160
29983WAT      O90190   2.374   7.806   0.043
29983WAT     H190191   2.392   7.876  -0.026
29983WAT     H290192   2.357   7.719  -0.002
29984WAT      O90193   9.501   3.375   1.143
29984WAT     H190194   9.558   3.310   1.193
29984WAT     H290195   9.408   3.373   1.181
29985WAT      O90196   1.430   2.093   4.905
29985WAT     H190197   1.424   2.003   4.949
29985WAT     H290198   1.526   2.121   4.901
29986WAT      O90199   7.827   0.296   7.110
29986WAT     H190200   7.850   0.393   7.123
29986WAT     H290201   7.783   0.284   7.021
29987WAT      O90202   0.854   2.941   1.051
29987WAT     H190203   0.821   2.951   1.145
29987WAT     H290204   0.918   2.864   1.046
29988WAT      O90205   1.212   8.466   5.169
29988WAT     H190206   1.175   8.399   5.234
29988WAT     H290207   1.163   8.553   5.180
29989WAT      O90208   8.158   7.394   7.006
29989WAT     H190209   8.065   7.427   6.987
29989WAT     H290210   8.191   7.434   7.091
29990WAT      O90211   9.067   5.894   2.938
29990WAT     H190212   9.074   5.798   2.965
29990WAT     H290213   9.154   5.924   2.899
29991WAT      O90214   6.629   5.953   0.118
29991WAT     H190215   6.652   5.961   0.215
29991WAT     H290216   6.574   6.031   0.090
29992WAT      O90217   0.936   7.950   8.578
29992WAT     H190218   1.000   7.914   8.646
29992WAT     H290219   0.850   7.900   8.583
29993WAT      O90220   2.995   8.036   5.892
29993WAT     H190221   3.004   7.937   5.878
29993WAT     H290222   3.082   8.080   5.871
29994WAT      O90223   2.166   8.157   3.851
29994WAT     H190224   2.205   8.136   3.940
29994WAT     H290225   2.185   8.081   3.788
29995WAT      O90226   1.064   7.222   6.826
29995WAT     H190227   1.043   7.147   6.888
29995WAT     H290228   1.061   7.309   6.876
29996WAT      O90229   0.976   8.306   8.677
29996WAT     H190230   1.068   8.343   8.665
29996WAT     H290231   0.971   8.216   8.634
29997WAT      O90232   7.834   2.662   5.190
29997WAT     H190233   7.778   2.694   5.267
29997WAT     H290234   7.781   2.668   5.105
29998WAT      O90235   8.046   5.785   1.158
29998WAT     H190236   8.078   5.690   1.148
29998WAT     H290237   8.062   5.816   1.251
29999WAT      O90238   8.789   0.856   2.923
29999WAT     H190239   8.693   0.860   2.896
29999WAT     H290240   8.816   0.944   2.962
30000WAT      O90241   3.985   2.048   4.088
30000WAT     H190242   4.053   2.121   4.081
30000WAT     H290243   4.025   1.963   4.053
30001WAT      O90244   5.405   7.150   9.725
30001WAT     H190245   5.359   7.098   9.653
30001WAT     H290246   5.452   7.228   9.684
30002WAT      O90247   4.007   4.116   2.785
30002WAT     H190248   4.025   4.102   2.688
30002WAT     H290249   4.052   4.045   2.839
30003WAT      O90250   6.181   8.611   7.602
30003WAT     H190251   6.220   8.667   7.529
30003WAT     H290252   6.229   8.630   7.688
30004WAT      O90253   8.190   7.180   8.572
30004WAT     H190254   8.102   7.146   8.540
30004WAT     H290255   8.258   7.106   8.565
30005WAT      O90256   9.836   7.381   1.451
30005WAT     H190257   9.891   7.359   1.370
30005WAT     H290258   9.888   7.440   1.512
30006WAT      O90259   1.893   5.416   4.880
30006WAT     H190260   1.841   5.471   4.945
30006WAT     H290261   1.898   5.322   4.914
30007WAT      O90262   5.584   4.506   0.039
30007WAT     H190263   5.555   4.411   0.031
30007WAT     H290264   5.593   4.546  -0.052
30008WAT      O90265   4.895   1.867   9.311
30008WAT     H190266   4.906   1.952   9.259
30008WAT     H290267   4.861   1.888   9.402
30009WAT      O90268   1.804   1.443   5.226
30009WAT     H190269   1.839   1.349   5.219
30009WAT     H290270   1.848   1.489   5.303
30010WAT      O90271   4.514   0.375   3.070
30010WAT     H190272   4.589   0.440   3.074
30010WAT     H290273   4.547   0.284   3.092
30011WAT      O90274   4.443   8.445   9.309
30011WAT     H190275   4.517   8.508   9.332
30011WAT     H290276   4.389   8.483   9.233
30012WAT      O90277   6.908   5.302   9.044
30012WAT     H190278   6.843   5.352   9.100
30012WAT     H290279   6.991   5.356   9.031
30013WAT      O90280   8.142   4.533   1.692
30013WAT     H190281   8.224   4.509   1.642
30013WAT     H290282   8.065   4.544   1.628
30014WAT      O90283   5.402   5.120   1.148
30014WAT     H190284   5.392   5.068   1.233
30014WAT     H290285   5.480   5.085   1.096
30015WAT      O90286   7.653   5.632   8.043
30015WAT     H190287   7.734   5.684   8.072
30015WAT     H290288   7.667   5.599   7.950
30016WAT      O90289   6.843   6.346   8.652
30016WAT     H190290   6.821   6.435   8.692
30016WAT     H290291   6.908   6.298   8.711
30017WAT      O90292   0.420   8.829   6.593
30017WAT     H190293   0.474   8.912   6.585
30017WAT     H290294   0.459   8.758   6.535
30018WAT      O90295   2.361   6.408   2.356
30018WAT     H190296   2.293   6.368   2.295
30018WAT     H290297   2.315   6.465   2.424
30019WAT      O90298   0.663   9.648   2.701
30019WAT     H190299   0.737   9.709   2.729
30019WAT     H290300   0.575   9.692   2.720
30020WAT      O90301   3.239   3.929   8.056
30020WAT     H190302   3.317   3.987   8.079
30020WAT     H290303   3.156   3.968   8.095
30021WAT      O90304   0.620   9.022   2.392
30021WAT     H190305   0.659   9.066   2.311
30021WAT     H290306   0.633   9.082   2.471
30022WAT      O90307   8.077   1.704   5.809
30022WAT     H190308   8.062   1.726   5.713
30022WAT     H290309   8.155   1.641   5.817
30023WAT      O90310   8.963   4.596   5.360
30023WAT     H190311   9.022   4.516   5.370
30023WAT     H290312   8.973   4.655   5.440
30024WAT      O90313   3.615   3.096   7.555
30024WAT     H190314   3.701   3.142   7.580
30024WAT     H290315   3.545   3.165   7.536
30025WAT      O90316   4.142   9.405   9.610
30025WAT     H190317   4.076   9.457   9.556
30025WAT     H290318   4.183   9.334   9.553
30026WAT      O90319   9.764   8.146   3.742
30026WAT     H190320   9.848   8.145   3.687
30026WAT     H290321   9.689   8.185   3.688
30027WAT      O90322   6.515   2.663   4.605
30027WAT     H190323   6.464   2.638   4.688
30027WAT     H290324   6.546   2.580   4.559
30028WAT      O90325   6.375   6.990   1.269
30028WAT     H190326   6.414   7.079   1.245
30028WAT     H290327   6.429   6.917   1.227
30029WAT      O90328   3.388   8.835   5.013
30029WAT     H190329   3.307   8.855   5.069
30029WAT     H290330   3.390   8.896   4.934
30030WAT      O90331   1.263   4.454   2.870
30030WAT     H190332   1.344   4.499   2.834
30030WAT     H290333   1.187   4.520   2.871
30031WAT      O90334   6.892   5.003   8.422
30031WAT     H190335   6.838   4.972   8.501
30031WAT     H290336   6.972   4.944   8.412
30032WAT      O90337   3.467   9.149   2.939
30032WAT     H190338   3.411   9.227   2.911
30032WAT     H290339   3.519   9.172   3.021
30033WAT      O90340   5.899   4.518   5.129
30033WAT     H190341   5.819   4.566   5.094
30033WAT     H290342   5.942   4.466   5.055
30034WAT      O90343   0.974   2.134   4.952
30034WAT     H190344   0.953   2.224   4.991
30034WAT     H290345   1.066   2.134   4.914
30035WAT      O90346   0.390   0.416   0.269
30035WAT     H190347   0.325   0.375   0.205
30035WAT     H290348   0.463   0.351   0.288
30036WAT      O90349   1.107   4.364   0.518
30036WAT     H190350   1.032   4.411   0.471
30036WAT     H290351   1.074   4.326   0.604
30037WAT      O90352   7.021   8.796   6.621
30037WAT     H190353   6.941   8.801   6.681
30037WAT     H290354   7.068   8.884   6.620
30038WAT      O90355   3.858   3.416   7.840
30038WAT     H190356   3.935   3.452   7.893
30038WAT     H290357   3.816   3.490   7.787
30039WAT      O90358   2.846   3.539   8.496
30039WAT     H190359   2.904   3.479   8.441
30039WAT     H290360   2.782   3.587   8.436
30040WAT      O90361   3.626   8.945   6.719
30040WAT     H190362   3.624   8.971   6.622
30040WAT     H290363   3.719   8.920   6.746
30041WAT      O90364   9.022   8.737   4.253
30041WAT     H190365   8.977   8.753   4.341
30041WAT     H290366   8.989   8.804   4.186
30042WAT      O90367   4.287   1.219   1.754
30042WAT     H190368   4.300   1.296   1.692
30042WAT     H290369   4.203   1.232   1.807
30043WAT      O90370   1.858   4.623   2.682
30043WAT     H190371   1.947   4.577   2.681
30043WAT     H290372   1.845   4.672   2.597
30044WAT      O90373   2.523   8.088   1.052
30044WAT     H190374   2.573   8.006   1.082
30044WAT     H290375   2.577   8.169   1.076
30045WAT      O90376   6.279   5.962   7.937
30045WAT     H190377   6.346   6.024   7.896
30045WAT     H290378   6.217   5.927   7.866
30046WAT      O90379   2.262   1.387   7.660
30046WAT     H190380   2.319   1.470   7.656
30046WAT     H290381   2.166   1.413   7.658
30047WAT      O90382   2.632   3.575   3.632
30047WAT     H190383   2.673   3.486   3.613
30047WAT     H290384   2.696   3.648   3.605
30048WAT      O90385   3.332   9.800   5.891
30048WAT     H190386   3.355   9.857   5.812
30048WAT     H290387   3.321   9.705   5.862
30049WAT      O90388   6.440   2.751   0.590
30049WAT     H190389   6.443   2.804   0.675
30049WAT     H290390   6.504   2.791   0.524
30050WAT      O90391   0.653   3.827   7.008
30050WAT     H190392   0.671   3.729   6.997
30050WAT     H290393   0.677   3.875   6.923
30051WAT      O90394   1.760   6.463   3.073
30051WAT     H190395   1.859   6.458   3.057
30051WAT     H290396   1.742   6.515   3.156
30052WAT      O90397   8.840   5.424   1.961
30052WAT     H190398   8.901   5.468   1.894
30052WAT     H290399   8.822   5.330   1.932
30053WAT      O90400   9.751   9.287   1.201
30053WAT     H190401   9.661   9.290   1.158
30053WAT     H290402   9.804   9.209   1.165
30054WAT      O90403   4.088   3.094   1.024
30054WAT     H190404   4.017   3.113   0.956
30054WAT     H290405   4.145   3.175   1.036
30055WAT      O90406   3.612   7.091   8.065
30055WAT     H190407   3.600   7.189   8.077
30055WAT     H290408   3.707   7.066   8.085
30056WAT      O90409   4.882   1.225   2.024
30056WAT     H190410   4.842   1.309   2.059
30056WAT     H290411   4.947   1.248   1.951
30057WAT      O90412   6.161   6.695   5.933
30057WAT     H190413   6.189   6.683   5.837
30057WAT     H290414   6.239   6.678   5.993
30058WAT      O90415   2.824   3.015   4.249
30058WAT     H190416   2.763   3.036   4.172
30058WAT     H290417   2.919   3.031   4.222
30059WAT      O90418   4.349   1.669   8.388
30059WAT     H190419   4.395   1.589   8.350
30059WAT     H290420   4.262   1.684   8.342
30060WAT      O90421   9.067   8.316   5.889
30060WAT     H190422   8.974   8.350   5.874
30060WAT     H290423   9.085   8.312   5.988
30061WAT      O90424   4.227   6.232   5.649
30061WAT     H190425   4.194   6.323   5.627
30061WAT     H290426   4.319   6.219   5.612
30062WAT      O90427   2.649   1.796   6.641
30062WAT     H190428   2.693   1.799   6.732
30062WAT     H290429   2.710   1.750   6.577
30063WAT      O90430   0.861   4.801   4.986
30063WAT     H190431   0.889   4.747   5.065
30063WAT     H290432   0.929   4.873   4.969
30064WAT      O90433   7.460   0.623   0.387
30064WAT     H190434   7.365   0.651   0.375
30064WAT     H290435   7.510   0.640   0.302
30065WAT      O90436   7.919   6.693   5.682
30065WAT     H190437   7.869   6.769   5.642
30065WAT     H290438   8.017   6.705   5.664
30066WAT      O90439   9.862   8.456   7.225
30066WAT     H190440   9.933   8.511   7.269
30066WAT     H290441   9.865   8.470   7.126
30067WAT      O90442   7.018   5.828   5.162
30067WAT     H190443   7.069   5.878   5.092
30067WAT     H290444   6.961   5.892   5.214
30068WAT      O90445   1.798   0.616   4.105
30068WAT     H190446   1.868   0.660   4.048
30068WAT     H290447   1.812   0.517   4.105
30069WAT      O90448   7.536   4.797   1.705
30069WAT     H190449   7.576   4.711   1.738
30069WAT     H290450   7.493   4.845   1.781
30070WAT      O90451   6.594   9.497   3.010
30070WAT     H190452   6.677   9.549   3.033
30070WAT     H290453   6.531   9.556   2.960
30071WAT      O90454   6.958   2.602   8.969
30071WAT     H190455   7.004   2.593   8.881
30071WAT     H290456   6.960   2.698   8.998
30072WAT      O90457   2.711   1.904   0.496
30072WAT     H190458   2.695   1.810   0.525
30072WAT     H290459   2.624   1.953   0.494
30073WAT      O90460   6.555   3.684   1.748
30073WAT     H190461   6.517   3.770   1.713
30073WAT     H290462   6.526   3.609   1.689
30074WAT      O90463   9.515   3.280   5.095
30074WAT     H190464   9.568   3.200   5.067
30074WAT     H290465   9.470   3.320   5.015
30075WAT      O90466   6.928   7.930   8.239
30075WAT     H190467   6.987   7.870   8.294
30075WAT     H290468   6.914   7.889   8.149
30076WAT      O90469   2.162   6.308   8.185
30076WAT     H190470   2.172   6.343   8.278
30076WAT     H290471   2.080   6.251   8.181
30077WAT      O90472   2.093   0.361   4.326
30077WAT     H190473   2.180   0.403   4.301
30077WAT     H290474   2.034   0.429   4.371
30078WAT      O90475   8.043   6.164   2.656
30078WAT     H190476   8.061   6.248   2.707
30078WAT     H290477   7.972   6.111   2.703
30079WAT      O90478   4.532   4.963   2.010
30079WAT     H190479   4.621   4.996   2.043
30079WAT     H290480   4.538   4.946   1.911
30080WAT      O90481   9.451   7.323   9.857
30080WAT     H190482   9.544   7.305   9.889
30080WAT     H290483   9.399   7.238   9.859
30081WAT      O90484   2.773   6.340   1.543
30081WAT     H190485   2.715   6.259   1.544
30081WAT     H290486   2.862   6.318   1.584
30082WAT      O90487   9.804   9.197   1.545
30082WAT     H190488   9.880   9.225   1.485
30082WAT     H290489   9.803   9.255   1.627
30083WAT      O90490   7.497   7.984   1.103
30083WAT     H190491   7.480   7.980   1.005
30083WAT     H290492   7.595   7.971   1.121
30084WAT      O90493   1.072   1.492   1.023
30084WAT     H190494   1.046   1.563   0.958
30084WAT     H290495   1.119   1.533   1.101
30085WAT      O90496   4.756   3.028   6.143
30085WAT     H190497   4.712   3.054   6.056
30085WAT     H290498   4.728   3.092   6.215
30086WAT      O90499   1.088   2.215   9.253
30086WAT     H190500   1.124   2.300   9.291
30086WAT     H290501   1.111   2.139   9.313
30087WAT      O90502   3.582   9.823   9.646
30087WAT     H190503   3.485   9.803   9.630
30087WAT     H290504   3.604   9.808   9.742
30088WAT      O90505   1.528   9.130   6.920
30088WAT     H190506   1.478   9.204   6.875
30088WAT     H290507   1.512   9.044   6.871
30089WAT      O90508   2.921   5.003   0.185
30089WAT     H190509   2.830   5.044   0.181
30089WAT     H290510   2.939   4.952   0.101
30090WAT      O90511   7.164   8.358   1.951
30090WAT     H190512   7.099   8.376   1.877
30090WAT     H290513   7.165   8.261   1.971
30091WAT      O90514   5.574   6.676   8.718
30091WAT     H190515   5.543   6.745   8.784
30091WAT     H290516   5.610   6.597   8.768
30092WAT      O90517   6.655   5.370   5.990
30092WAT     H190518   6.705   5.381   6.076
30092WAT     H290519   6.601   5.285   5.993
30093WAT      O90520   8.063   9.136   3.087
30093WAT     H190521   8.085   9.040   3.069
30093WAT     H290522   8.060   9.186   3.001
30094WAT      O90523   5.211   2.221   4.620
30094WAT     H190524   5.274   2.146   4.637
30094WAT     H290525   5.132   2.214   4.681
30095WAT      O90526   0.471   7.300   6.569
30095WAT     H190527   0.444   7.235   6.497
30095WAT     H290528   0.532   7.255   6.633
30096WAT      O90529   2.896   0.230   1.439
30096WAT     H190530   2.875   0.174   1.359
30096WAT     H290531   2.974   0.191   1.488
30097WAT      O90532   2.033   7.193   3.769
30097WAT     H190533   2.064   7.185   3.674
30097WAT     H290534   2.062   7.112   3.820
30098WAT      O90535   3.727   3.090   2.981
30098WAT     H190536   3.724   2.998   3.022
30098WAT     H290537   3.816   3.131   2.998
30099WAT      O90538   8.314   5.613   0.933
30099WAT     H190539   8.311   5.613   0.833
30099WAT     H290540   8.390   5.555   0.964
30100WAT      O90541   9.790   9.373   5.086
30100WAT     H190542   9.702   9.327   5.072
30100WAT     H290543   9.797   9.451   5.024
30101WAT      O90544   5.918   1.154   9.826
30101WAT     H190545   5.874   1.243   9.827
30101WAT     H290546   5.924   1.118   9.919
30102WAT      O90547   6.361   8.018   8.128
30102WAT     H190548   6.366   8.039   8.225
30102WAT     H290549   6.349   7.919   8.116
30103WAT      O90550   1.677   7.208   7.734
30103WAT     H190551   1.704   7.293   7.689
30103WAT     H290552   1.606   7.228   7.802
30104WAT      O90553   0.345   0.875   5.887
30104WAT     H190554   0.382   0.867   5.794
30104WAT     H290555   0.292   0.793   5.909
30105WAT      O90556   9.651   7.715   0.489
30105WAT     H190557   9.578   7.667   0.441
30105WAT     H290558   9.611   7.778   0.556
30106WAT      O90559   0.520   6.659   4.062
30106WAT     H190560   0.484   6.568   4.083
30106WAT     H290561   0.604   6.674   4.115
30107WAT      O90562   4.171   3.712   6.470
30107WAT     H190563   4.213   3.766   6.397
30107WAT     H290564   4.167   3.616   6.442
30108WAT      O90565   2.485   9.531   0.935
30108WAT     H190566   2.386   9.532   0.950
30108WAT     H290567   2.528   9.602   0.990
30109WAT      O90568   1.104   3.568   1.338
30109WAT     H190569   1.141   3.565   1.431
30109WAT     H290570   1.039   3.644   1.331
30110WAT      O90571   4.575   5.165   9.429
30110WAT     H190572   4.639   5.147   9.504
30110WAT     H290573   4.599   5.251   9.384
30111WAT      O90574   7.220   2.837   2.591
30111WAT     H190575   7.152   2.896   2.548
30111WAT     H290576   7.187   2.742   2.590
30112WAT      O90577   0.026   2.684   3.513
30112WAT     H190578   0.097   2.713   3.448
30112WAT     H290579  -0.062   2.680   3.466
30113WAT      O90580   1.057   0.723   4.024
30113WAT     H190581   1.006   0.682   3.948
30113WAT     H290582   1.148   0.682   4.028
30114WAT      O90583   4.837   3.346   9.856
30114WAT     H190584   4.833   3.251   9.888
30114WAT     H290585   4.780   3.356   9.774
30115WAT      O90586   0.647   0.804   2.904
30115WAT     H190587   0.549   0.790   2.891
30115WAT     H290588   0.665   0.902   2.918
30116WAT      O90589   2.014   3.666   7.803
30116WAT     H190590   2.029   3.703   7.711
30116WAT     H290591   2.062   3.722   7.870
30117WAT      O90592   4.487   4.310   4.521
30117WAT     H190593   4.425   4.247   4.474
30117WAT     H290594   4.571   4.320   4.468
30118WAT      O90595   0.165   9.690   5.684
30118WAT     H190596   0.100   9.708   5.758
30118WAT     H290597   0.117   9.655   5.604
30119WAT      O90598   3.601   3.471   7.517
30119WAT     H190599   3.689   3.447   7.476
30119WAT     H290600   3.534   3.401   7.495
30120WAT      O90601   9.420   2.061   0.618
30120WAT     H190602   9.481   2.049   0.541
30120WAT     H290603   9.328   2.029   0.594
30121WAT      O90604   1.852   6.714   3.936
30121WAT     H190605   1.822   6.653   3.863
30121WAT     H290606   1.875   6.660   4.017
30122WAT      O90607   2.505   0.304   8.520
30122WAT     H190608   2.485   0.247   8.440
30122WAT     H290609   2.466   0.261   8.601
30123WAT      O90610   1.024   3.428   4.116
30123WAT     H190611   0.938   3.438   4.065
30123WAT     H290612   1.083   3.363   4.068
30124WAT      O90613   7.125   3.731   6.649
30124WAT     H190614   7.143   3.710   6.745
30124WAT     H290615   7.197   3.792   6.615
30125WAT      O90616   7.470   8.140   6.711
30125WAT     H190617   7.427   8.059   6.672
30125WAT     H290618   7.569   8.131   6.705
30126WAT      O90619   1.193   1.600   1.650
30126WAT     H190620   1.279   1.593   1.699
30126WAT     H290621   1.120   1.627   1.713
30127WAT      O90622   1.983   2.633   4.873
30127WAT     H190623   1.989   2.717   4.819
30127WAT     H290624   2.065   2.578   4.858
30128WAT      O90625   8.228   8.718   7.491
30128WAT     H190626   8.279   8.803   7.479
30128WAT     H290627   8.160   8.730   7.564
30129WAT      O90628   7.509   8.145   6.977
30129WAT     H190629   7.601   8.184   6.979
30129WAT     H290630   7.471   8.154   6.885
30130WAT      O90631   8.467   2.522   7.342
30130WAT     H190632   8.388   2.517   7.281
30130WAT     H290633   8.486   2.432   7.380
30131WAT      O90634   4.187   8.509   6.367
30131WAT     H190635   4.215   8.604   6.360
30131WAT     H290636   4.090   8.501   6.346
30132WAT      O90637   4.713   5.459   3.848
30132WAT     H190638   4.678   5.414   3.766
30132WAT     H290639   4.810   5.478   3.837
30133WAT      O90640   2.648   9.788   3.879
30133WAT     H190641   2.579   9.726   3.918
30133WAT     H290642   2.663   9.764   3.783
30134WAT      O90643   9.000   5.137   8.798
30134WAT     H190644   8.968   5.161   8.706
30134WAT     H290645   9.076   5.197   8.824
30135WAT      O90646   7.900   7.496   6.976
30135WAT     H190647   7.860   7.416   6.931
30135WAT     H290648   7.833   7.534   7.041
30136WAT      O90649   1.688   3.464   1.794
30136WAT     H190650   1.651   3.546   1.749
30136WAT     H290651   1.783   3.450   1.765
30137WAT      O90652   0.500   7.735   9.229
30137WAT     H190653   0.442   7.790   9.168
30137WAT     H290654   0.502   7.777   9.320
30138WAT      O90655   9.853   8.975   1.686
30138WAT     H190656   9.845   9.057   1.629
30138WAT     H290657   9.764   8.955   1.727
30139WAT      O90658   6.570   8.843   7.426
30139WAT     H190659   6.596   8.753   7.459
30139WAT     H290660   6.546   8.837   7.329
30140WAT      O90661   1.255   3.230   8.012
30140WAT     H190662   1.289   3.211   7.920
30140WAT     H290663   1.204   3.316   8.012
30141WAT      O90664   6.587   4.278   5.116
30141WAT     H190665   6.503   4.225   5.119
30141WAT     H290666   6.581   4.345   5.042
30142WAT      O90667   8.912   4.136   2.698
30142WAT     H190668   8.856   4.111   2.777
30142WAT     H290669   8.885   4.081   2.619
30143WAT      O90670   0.675   8.563   8.916
30143WAT     H190671   0.673   8.530   9.010
30143WAT     H290672   0.661   8.662   8.915
30144WAT      O90673   7.003   4.981   5.608
30144WAT     H190674   6.999   4.896   5.661
30144WAT     H290675   7.016   4.959   5.511
30145WAT      O90676   4.347   5.123   2.107
30145WAT     H190677   4.414   5.076   2.050
30145WAT     H290678   4.383   5.212   2.134
30146WAT      O90679   3.678   7.282   2.626
30146WAT     H190680   3.748   7.347   2.655
30146WAT     H290681   3.714   7.189   2.634
30147WAT      O90682   9.696   8.601   8.425
30147WAT     H190683   9.681   8.694   8.459
30147WAT     H290684   9.790   8.592   8.392
30148WAT      O90685   6.339   5.730   4.648
30148WAT     H190686   6.426   5.779   4.644
30148WAT     H290687   6.284   5.754   4.568
30149WAT      O90688   6.542   6.202   6.536
30149WAT     H190689   6.631   6.203   6.581
30149WAT     H290690   6.501   6.293   6.542
30150WAT      O90691   1.915   5.275   8.547
30150WAT     H190692   1.835   5.229   8.508
30150WAT     H290693   1.966   5.319   8.473
30151WAT      O90694   5.888   4.503   2.108
30151WAT     H190695   5.866   4.546   2.195
30151WAT     H290696   5.835   4.545   2.035
30152WAT      O90697   3.112   6.215   9.614
30152WAT     H190698   3.087   6.200   9.709
30152WAT     H290699   3.057   6.289   9.576
30153WAT      O90700   6.359   0.887   1.589
30153WAT     H190701   6.443   0.942   1.586
30153WAT     H290702   6.372   0.803   1.535
30154WAT      O90703   8.603   3.211   3.722
30154WAT     H190704   8.508   3.226   3.751
30154WAT     H290705   8.604   3.176   3.628
30155WAT      O90706   8.982   5.606   9.405
30155WAT     H190707   9.027   5.555   9.331
30155WAT     H290708   8.892   5.637   9.375
30156WAT      O90709   0.008   9.037   9.320
30156WAT     H190710   0.020   9.127   9.362
30156WAT     H290711   0.041   8.967   9.383
30157WAT      O90712   1.477   8.726   8.764
30157WAT     H190713   1.432   8.793   8.705
30157WAT     H290714   1.507   8.648   8.710
30158WAT      O90715   1.687   2.181   4.289
30158WAT     H190716   1.655   2.092   4.320
30158WAT     H290717   1.742   2.170   4.207
30159WAT      O90718   3.807   0.461   8.800
30159WAT     H190719   3.727   0.432   8.749
30159WAT     H290720   3.800   0.428   8.894
30160WAT      O90721   8.440   4.907   9.601
30160WAT     H190722   8.470   4.814   9.620
30160WAT     H290723   8.467   4.967   9.677
30161WAT      O90724   5.617   6.181   7.359
30161WAT     H190725   5.560   6.260   7.337
30161WAT     H290726   5.645   6.186   7.455
30162WAT      O90727   0.677   1.998   7.340
30162WAT     H190728   0.601   1.993   7.405
30162WAT     H290729   0.728   1.912   7.342
30163WAT      O90730   5.038   5.150   2.115
30163WAT     H190731   5.108   5.157   2.044
30163WAT     H290732   5.065   5.080   2.182
30164WAT      O90733   0.775   7.840   9.258
30164WAT     H190734   0.708   7.769   9.236
30164WAT     H290735   0.797   7.891   9.175
30165WAT      O90736   4.263   2.797   6.708
30165WAT     H190737   4.298   2.824   6.798
30165WAT     H290738   4.163   2.796   6.711
30166WAT      O90739   9.135   1.972   0.555
30166WAT     H190740   9.052   2.028   0.545
30166WAT     H290741   9.139   1.933   0.647
30167WAT      O90742   0.133   0.468   4.949
30167WAT     H190743   0.098   0.561   4.961
30167WAT     H290744   0.166   0.434   5.037
30168WAT      O90745   4.842   7.005   7.063
30168WAT     H190746   4.851   7.078   6.995
30168WAT     H290747   4.829   6.917   7.016
30169WAT      O90748   9.768   1.090   8.884
30169WAT     H190749   9.708   1.013   8.864
30169WAT     H290750   9.826   1.068   8.962
30170WAT      O90751   5.192   5.307   6.271
30170WAT     H190752   5.189   5.401   6.237
30170WAT     H290753   5.226   5.247   6.199
30171WAT      O90754   0.442   8.790   8.195
30171WAT     H190755   0.409   8.814   8.286
30171WAT     H290756   0.406   8.700   8.168
30172WAT      O90757   7.066   8.840   3.991
30172WAT     H190758   7.029   8.927   3.957
30172WAT     H290759   7.073   8.775   3.916
30173WAT      O90760   6.707   3.032   1.397
30173WAT     H190761   6.648   3.066   1.471
30173WAT     H290762   6.742   2.942   1.422
30174WAT      O90763   7.159   4.130   7.786
30174WAT     H190764   7.178   4.219   7.828
30174WAT     H290765   7.171   4.138   7.687
30175WAT      O90766   3.181   8.920   7.664
30175WAT     H190767   3.170   8.827   7.629
30175WAT     H290768   3.176   8.920   7.764
30176WAT      O90769   0.543   4.716   2.781
30176WAT     H190770   0.444   4.726   2.784
30176WAT     H290771   0.576   4.741   2.690
30177WAT      O90772   8.002   0.656   1.271
30177WAT     H190773   7.970   0.750   1.267
30177WAT     H290774   8.086   0.651   1.325
30178WAT      O90775   0.551   8.115   1.258
30178WAT     H190776   0.597   8.029   1.239
30178WAT     H290777   0.589   8.156   1.341
30179WAT      O90778   8.236   2.396   0.307
30179WAT     H190779   8.336   2.401   0.316
30179WAT     H290780   8.201   2.317   0.357
30180WAT      O90781   5.653   6.981   0.248
30180WAT     H190782   5.600   7.020   0.172
30180WAT     H290783   5.603   6.905   0.288
30181WAT      O90784   7.209   9.205   9.600
30181WAT     H190785   7.286   9.181   9.660
30181WAT     H290786   7.243   9.220   9.507
30182WAT      O90787   4.327   1.377   1.525
30182WAT     H190788   4.283   1.466   1.537
30182WAT     H290789   4.304   1.340   1.435
30183WAT      O90790   2.955   7.148   7.735
30183WAT     H190791   2.938   7.175   7.830
30183WAT     H290792   2.940   7.226   7.675
30184WAT      O90793   6.919   7.823   6.603
30184WAT     H190794   6.972   7.809   6.687
30184WAT     H290795   6.958   7.898   6.551
30185WAT      O90796   3.734   5.265   7.163
30185WAT     H190797   3.759   5.215   7.245
30185WAT     H290798   3.814   5.271   7.103
30186WAT      O90799   9.069   4.968   0.134
30186WAT     H190800   9.011   4.993   0.056
30186WAT     H290801   9.159   5.012   0.123
30187WAT      O90802   9.337   8.842   5.021
30187WAT     H190803   9.323   8.824   4.924
30187WAT     H290804   9.402   8.917   5.032
30188WAT      O90805   6.669   2.228   9.865
30188WAT     H190806   6.622   2.199   9.949
30188WAT     H290807   6.737   2.160   9.840
30189WAT      O90808   4.297   5.114   7.306
30189WAT     H190809   4.308   5.108   7.207
30189WAT     H290810   4.340   5.035   7.349
30190WAT      O90811   4.885   6.025   7.726
30190WAT     H190812   4.941   5.957   7.773
30190WAT     H290813   4.942   6.076   7.662
30191WAT      O90814   6.613   4.143   9.101
30191WAT     H190815   6.655   4.110   9.185
30191WAT     H290816   6.532   4.197   9.123
30192WAT      O90817   7.266   2.765   3.677
30192WAT     H190818   7.350   2.817   3.669
30192WAT     H290819   7.204   2.789   3.602
30193WAT      O90820   2.559   2.420   1.640
30193WAT     H190821   2.589   2.492   1.577
30193WAT     H290822   2.488   2.456   1.701
30194WAT      O90823   3.237   1.493   7.186
30194WAT     H190824   3.251   1.592   7.196
30194WAT     H290825   3.139   1.472   7.191
30195WAT      O90826   6.236   9.649   4.900
30195WAT     H190827   6.247   9.562   4.850
30195WAT     H290828   6.140   9.675   4.902
30196WAT      O90829   5.594   3.474   4.626
30196WAT     H190830   5.690   3.447   4.626
30196WAT     H290831   5.545   3.421   4.695
30197WAT      O90832   1.842   8.950   0.224
30197WAT     H190833   1.841   8.987   0.317
30197WAT     H290834   1.926   8.898   0.210
30198WAT      O90835   6.655   7.766   1.724
30198WAT     H190836   6.743   7.784   1.681
30198WAT     H290837   6.670   7.733   1.818
30199WAT      O90838   2.001   1.907   1.969
30199WAT     H190839   1.954   1.902   2.057
30199WAT     H290840   1.969   1.986   1.918
30200WAT      O90841   0.074   0.277   4.365
30200WAT     H190842   0.104   0.370   4.385
30200WAT     H290843   0.080   0.221   4.447
30201WAT      O90844   8.301   3.339   3.810
30201WAT     H190845   8.226   3.274   3.822
30201WAT     H290846   8.319   3.387   3.896
30202WAT      O90847   3.239   2.877   4.259
30202WAT     H190848   3.264   2.812   4.187
30202WAT     H290849   3.171   2.942   4.223
30203WAT      O90850   4.740   9.066   1.615
30203WAT     H190851   4.645   9.041   1.599
30203WAT     H290852   4.747   9.123   1.696
30204WAT      O90853   7.429   1.216   8.243
30204WAT     H190854   7.374   1.271   8.180
30204WAT     H290855   7.515   1.190   8.199
30205WAT      O90856   2.333   4.302   8.498
30205WAT     H190857   2.249   4.268   8.540
30205WAT     H290858   2.387   4.224   8.464
30206WAT      O90859   0.321   4.280   0.133
30206WAT     H190860   0.400   4.281   0.072
30206WAT     H290861   0.350   4.248   0.223
30207WAT      O90862   2.840   9.819   4.653
30207WAT     H190863   2.835   9.823   4.753
30207WAT     H290864   2.828   9.910   4.616
30208WAT      O90865   4.686   0.547   8.128
30208WAT     H190866   4.602   0.515   8.172
30208WAT     H290867   4.723   0.624   8.180
30209WAT      O90868   9.324   9.385   3.335
30209WAT     H190869   9.251   9.442   3.370
30209WAT     H290870   9.404   9.442   3.313
30210WAT      O90871   4.126   4.764   7.893
30210WAT     H190872   4.188   4.712   7.835
30210WAT     H290873   4.056   4.807   7.836
30211WAT      O90874   2.778   9.652   5.820
30211WAT     H190875   2.799   9.555   5.826
30211WAT     H290876   2.840   9.695   5.754
30212WAT      O90877   0.124   8.353   7.874
30212WAT     H190878   0.034   8.395   7.868
30212WAT     H290879   0.175   8.392   7.951
30213WAT      O90880   7.003   0.138   8.341
30213WAT     H190881   7.041   0.050   8.313
30213WAT     H290882   6.976   0.190   8.259
30214WAT      O90883   3.330   9.251   6.775
30214WAT     H190884   3.415   9.252   6.827
30214WAT     H290885   3.274   9.329   6.803
30215WAT      O90886   6.314   4.434   7.769
30215WAT     H190887   6.397   4.478   7.736
30215WAT     H290888   6.284   4.365   7.703
30216WAT      O90889   2.546   8.768   4.586
30216WAT     H190890   2.636   8.729   4.608
30216WAT     H290891   2.522   8.837   4.655
30217WAT      O90892   9.720   3.240   6.502
30217WAT     H190893   9.761   3.149   6.502
30217WAT     H290894   9.642   3.241   6.439
30218WAT      O90895   0.622   7.850   4.432
30218WAT     H190896   0.631   7.801   4.345
30218WAT     H290897   0.525   7.864   4.453
30219WAT      O90898   6.230   9.445   7.495
30219WAT     H190899   6.186   9.357   7.512
30219WAT     H290900   6.213   9.473   7.400
30220WAT      O90901   7.800   7.972   6.257
30220WAT     H190902   7.822   7.904   6.187
30220WAT     H290903   7.867   7.966   6.331
30221WAT      O90904   6.829   4.403   5.780
30221WAT     H190905   6.800   4.307   5.783
30221WAT     H290906   6.816   4.445   5.869
30222WAT      O90907   0.403   6.115   2.063
30222WAT     H190908   0.368   6.096   2.155
30222WAT     H290909   0.338   6.172   2.013
30223WAT      O90910   8.633   8.598   4.398
30223WAT     H190911   8.565   8.620   4.468
30223WAT     H290912   8.719   8.646   4.419
30224WAT      O90913   3.689   6.405   7.487
30224WAT     H190914   3.617   6.405   7.556
30224WAT     H290915   3.745   6.487   7.496
30225WAT      O90916   6.622   8.205   9.268
30225WAT     H190917   6.547   8.163   9.217
30225WAT     H290918   6.586   8.269   9.335
30226WAT      O90919   6.316   2.722   9.346
30226WAT     H190920   6.256   2.681   9.415
30226WAT     H290921   6.286   2.816   9.328
30227WAT      O90922   1.222   1.213   3.033
30227WAT     H190923   1.254   1.210   3.128
30227WAT     H290924   1.200   1.120   3.003
30228WAT      O90925   8.273   8.850   1.226
30228WAT     H190926   8.336   8.860   1.303
30228WAT     H290927   8.296   8.916   1.155
30229WAT      O90928   2.006   1.691   2.740
30229WAT     H190929   1.999   1.760   2.813
30229WAT     H290930   1.984   1.733   2.652
30230WAT      O90931   5.423   0.494   3.522
30230WAT     H190932   5.462   0.585   3.507
30230WAT     H290933   5.417   0.446   3.435
30231WAT      O90934   0.113   7.968   1.208
30231WAT     H190935   0.193   8.015   1.172
30231WAT     H290936   0.040   8.034   1.226
30232WAT      O90937   9.501   9.446   2.350
30232WAT     H190938   9.576   9.484   2.297
30232WAT     H290939   9.419   9.502   2.339
30233WAT      O90940   4.145   3.936   2.952
30233WAT     H190941   4.220   3.875   2.925
30233WAT     H290942   4.177   4.000   3.022
30234WAT      O90943   0.533   8.280   4.836
30234WAT     H190944   0.533   8.233   4.748
30234WAT     H290945   0.488   8.369   4.827
30235WAT      O90946   2.272   8.209   2.949
30235WAT     H190947   2.274   8.188   3.047
30235WAT     H290948   2.335   8.148   2.900
30236WAT      O90949   5.066   0.370   1.749
30236WAT     H190950   5.160   0.361   1.717
30236WAT     H290951   5.014   0.290   1.721
30237WAT      O90952   3.588   1.069   7.361
30237WAT     H190953   3.682   1.103   7.368
30237WAT     H290954   3.584   0.995   7.294
30238WAT      O90955   4.958   3.011   5.599
30238WAT     H190956   5.051   3.038   5.574
30238WAT     H290957   4.915   2.965   5.521
30239WAT      O90958   0.170   8.456   2.011
30239WAT     H190959   0.121   8.454   1.924
30239WAT     H290960   0.104   8.466   2.086
30240WAT      O90961   4.679   1.093   1.638
30240WAT     H190962   4.674   1.168   1.703
30240WAT     H290963   4.709   1.128   1.549
30241WAT      O90964   5.652   2.385   2.391
30241WAT     H190965   5.692   2.476   2.396
30241WAT     H290966   5.570   2.388   2.334
30242WAT      O90967   4.144   9.697   8.350
30242WAT     H190968   4.144   9.783   8.300
30242WAT     H290969   4.198   9.629   8.299
30243WAT      O90970   9.798   8.950   5.900
30243WAT     H190971   9.703   8.979   5.902
30243WAT     H290972   9.851   9.002   5.968
30244WAT      O90973   7.225   1.193   7.364
30244WAT     H190974   7.171   1.112   7.343
30244WAT     H290975   7.166   1.261   7.407
30245WAT      O90976   8.445   7.051   1.661
30245WAT     H190977   8.370   7.118   1.659
30245WAT     H290978   8.532   7.099   1.667
30246WAT      O90979   2.849   7.201   8.397
30246WAT     H190980   2.932   7.151   8.422
30246WAT     H290981   2.769   7.143   8.413
30247WAT      O90982   3.134   5.495   9.751
30247WAT     H190983   3.152   5.402   9.781
30247WAT     H290984   3.113   5.495   9.653
30248WAT      O90985   0.837   5.577   6.304
30248WAT     H190986   0.901   5.646   6.338
30248WAT     H290987   0.766   5.562   6.372
30249WAT      O90988   5.935   0.404   7.122
30249WAT     H190989   5.953   0.500   7.143
30249WAT     H290990   5.905   0.395   7.027
30250WAT      O90991   0.646   0.269   9.438
30250WAT     H190992   0.586   0.338   9.397
30250WAT     H290993   0.741   0.303   9.436
30251WAT      O90994   6.315   0.402   8.408
30251WAT     H190995   6.300   0.418   8.506
30251WAT     H290996   6.367   0.317   8.397
30252WAT      O90997   3.566   5.702   3.671
30252WAT     H190998   3.547   5.605   3.683
30252WAT     H290999   3.633   5.714   3.597
30253WAT      O91000   8.456   1.824   7.632
30253WAT     H191001   8.362   1.852   7.614
30253WAT     H291002   8.474   1.736   7.588
30254WAT      O91003   1.524   4.398   1.833
30254WAT     H191004   1.484   4.490   1.839
30254WAT     H291005   1.581   4.392   1.751
30255WAT      O91006   5.348   6.901   4.074
30255WAT     H191007   5.251   6.927   4.067
30255WAT     H291008   5.359   6.835   4.148
30256WAT      O91009   6.127   7.389   8.862
30256WAT     H191010   6.120   7.483   8.893
30256WAT     H291011   6.092   7.382   8.768
30257WAT      O91012   7.899   7.666   5.685
30257WAT     H191013   7.867   7.640   5.776
30257WAT     H291014   7.926   7.763   5.686
30258WAT      O91015   9.142   3.311   1.640
30258WAT     H191016   9.168   3.407   1.629
30258WAT     H291017   9.113   3.295   1.734
30259WAT      O91018   6.124   5.568   9.856
30259WAT     H191019   6.197   5.513   9.816
30259WAT     H291020   6.161   5.627   9.928
30260WAT      O91021   5.654   9.209   7.051
30260WAT     H191022   5.671   9.140   7.122
30260WAT     H291023   5.656   9.166   6.961
30261WAT      O91024   7.298   8.658   8.811
30261WAT     H191025   7.258   8.744   8.843
30261WAT     H291026   7.245   8.623   8.734
30262WAT      O91027   1.306   7.038   9.841
30262WAT     H191028   1.213   7.025   9.876
30262WAT     H291029   1.307   7.116   9.779
30263WAT      O91030   1.277   8.454   8.235
30263WAT     H191031   1.284   8.356   8.253
30263WAT     H291032   1.189   8.487   8.266
30264WAT      O91033   0.244   6.265   8.505
30264WAT     H191034   0.310   6.263   8.430
30264WAT     H291035   0.231   6.172   8.540
30265WAT      O91036   1.548   9.039   7.187
30265WAT     H191037   1.533   9.081   7.098
30265WAT     H291038   1.646   9.042   7.209
30266WAT      O91039   1.999   4.311   7.964
30266WAT     H191040   2.058   4.390   7.981
30266WAT     H291041   2.024   4.269   7.877
30267WAT      O91042   0.736   5.123   7.386
30267WAT     H191043   0.668   5.064   7.343
30267WAT     H291044   0.806   5.148   7.318
30268WAT      O91045   2.431   6.430   0.608
30268WAT     H191046   2.529   6.416   0.591
30268WAT     H291047   2.378   6.387   0.535
30269WAT      O91048   3.518   6.806   8.660
30269WAT     H191049   3.583   6.731   8.671
30269WAT     H291050   3.560   6.878   8.603
30270WAT      O91051   7.011   0.050   1.047
30270WAT     H191052   6.923   0.045   1.093
30270WAT     H291053   7.015  -0.019   0.975
30271WAT      O91054   0.776   4.017   2.163
30271WAT     H191055   0.763   3.923   2.195
30271WAT     H291056   0.693   4.071   2.183
30272WAT      O91057   4.981   6.283   4.114
30272WAT     H191058   4.899   6.227   4.104
30272WAT     H291059   5.056   6.242   4.062
30273WAT      O91060   7.239   5.278   9.347
30273WAT     H191061   7.175   5.202   9.332
30273WAT     H291062   7.197   5.345   9.408
30274WAT      O91063   8.508   9.076   6.054
30274WAT     H191064   8.488   8.992   6.003
30274WAT     H291065   8.607   9.086   6.064
30275WAT      O91066   0.275   6.576   1.345
30275WAT     H191067   0.184   6.616   1.331
30275WAT     H291068   0.268   6.496   1.404
30276WAT      O91069   1.957   6.985   5.873
30276WAT     H191070   1.971   7.081   5.848
30276WAT     H291071   1.860   6.963   5.869
30277WAT      O91072   4.699   8.839   6.697
30277WAT     H191073   4.640   8.853   6.617
30277WAT     H291074   4.780   8.786   6.670
30278WAT      O91075   4.078   8.872   1.440
30278WAT     H191076   4.027   8.890   1.524
30278WAT     H291077   4.059   8.778   1.410
30279WAT      O91078   5.168   8.275   5.228
30279WAT     H191079   5.169   8.375   5.224
30279WAT     H291080   5.259   8.239   5.205
30280WAT      O91081   4.884   0.429   4.488
30280WAT     H191082   4.908   0.524   4.471
30280WAT     H291083   4.785   0.420   4.499
30281WAT      O91084   4.221   6.739   9.516
30281WAT     H191085   4.223   6.795   9.433
30281WAT     H291086   4.235   6.797   9.596
30282WAT      O91087   5.179   7.058   8.128
30282WAT     H191088   5.258   7.084   8.184
30282WAT     H291089   5.204   6.983   8.067
30283WAT      O91090   2.872   2.129   4.087
30283WAT     H191091   2.845   2.190   4.012
30283WAT     H291092   2.896   2.183   4.167
30284WAT      O91093   1.252   0.178   3.658
30284WAT     H191094   1.338   0.147   3.616
30284WAT     H291095   1.244   0.139   3.750
30285WAT      O91096   2.428   2.278   7.718
30285WAT     H191097   2.406   2.355   7.778
30285WAT     H291098   2.511   2.233   7.752
30286WAT      O91099   7.480   3.141   3.792
30286WAT     H191100   7.383   3.142   3.765
30286WAT     H291101   7.486   3.126   3.890
30287WAT      O91102   7.745   0.863   6.124
30287WAT     H191103   7.715   0.948   6.082
30287WAT     H291104   7.833   0.878   6.170
30288WAT      O91105   6.102   4.384   5.947
30288WAT     H191106   6.130   4.327   5.870
30288WAT     H291107   6.153   4.470   5.945
30289WAT      O91108   1.824   4.514   9.244
30289WAT     H191109   1.854   4.433   9.194
30289WAT     H291110   1.749   4.558   9.195
30290WAT      O91111   7.596   5.219   8.999
30290WAT     H191112   7.651   5.285   8.949
30290WAT     H291113   7.615   5.127   8.965
30291WAT      O91114   0.492   1.921   3.678
30291WAT     H191115   0.525   1.911   3.772
30291WAT     H291116   0.541   1.995   3.633
30292WAT      O91117   4.843   9.527   7.988
30292WAT     H191118   4.796   9.600   7.939
30292WAT     H291119   4.780   9.452   8.005
30293WAT      O91120   1.953   4.052   3.324
30293WAT     H191121   1.853   4.041   3.325
30293WAT     H291122   1.989   4.019   3.237
30294WAT      O91123   9.568   5.601   7.181
30294WAT     H191124   9.575   5.533   7.108
30294WAT     H291125   9.538   5.688   7.143
30295WAT      O91126   4.623   7.269   6.314
30295WAT     H191127   4.624   7.369   6.313
30295WAT     H291128   4.687   7.234   6.246
30296WAT      O91129   7.989   2.095   9.243
30296WAT     H191130   7.999   2.131   9.336
30296WAT     H291131   7.936   2.159   9.188
30297WAT      O91132   4.022   8.926   3.507
30297WAT     H191133   3.979   8.837   3.497
30297WAT     H291134   3.973   8.979   3.577
30298WAT      O91135   0.485   0.973   2.671
30298WAT     H191136   0.434   0.889   2.691
30298WAT     H291137   0.423   1.051   2.669
30299WAT      O91138   5.387   8.304   3.443
30299WAT     H191139   5.318   8.372   3.419
30299WAT     H291140   5.476   8.333   3.409
30300WAT      O91141   9.687   7.102   0.451
30300WAT     H191142   9.715   7.008   0.470
30300WAT     H291143   9.597   7.103   0.407
30301WAT      O91144   7.118   7.743   6.011
30301WAT     H191145   7.170   7.692   5.943
30301WAT     H291146   7.056   7.807   5.965
30302WAT      O91147   8.930   3.715   5.409
30302WAT     H191148   8.839   3.710   5.452
30302WAT     H291149   8.969   3.623   5.403
30303WAT      O91150   3.537   5.098   5.690
30303WAT     H191151   3.520   5.069   5.784
30303WAT     H291152   3.556   5.018   5.633
30304WAT      O91153   0.625   3.723   9.318
30304WAT     H191154   0.589   3.695   9.407
30304WAT     H291155   0.612   3.822   9.307
30305WAT      O91156   7.612   5.602   9.765
30305WAT     H191157   7.666   5.597   9.681
30305WAT     H291158   7.591   5.698   9.786
30306WAT      O91159   3.744   8.825   3.943
30306WAT     H191160   3.704   8.749   3.995
30306WAT     H291161   3.790   8.887   4.006
30307WAT      O91162   5.883   7.006   2.887
30307WAT     H191163   5.958   7.031   2.826
30307WAT     H291164   5.804   6.978   2.832
30308WAT      O91165   4.565   8.211   9.434
30308WAT     H191166   4.527   8.119   9.440
30308WAT     H291167   4.498   8.272   9.391
30309WAT      O91168   5.709   7.345   1.919
30309WAT     H191169   5.783   7.409   1.939
30309WAT     H291170   5.637   7.391   1.867
30310WAT      O91171   8.016   1.094   1.490
30310WAT     H191172   7.942   1.158   1.508
30310WAT     H291173   7.981   1.014   1.443
30311WAT      O91174   6.338   0.222   3.996
30311WAT     H191175   6.305   0.149   3.936
30311WAT     H291176   6.434   0.206   4.018
30312WAT      O91177   1.097   7.331   8.211
30312WAT     H191178   1.157   7.410   8.220
30312WAT     H291179   1.141   7.251   8.252
30313WAT      O91180   3.840   1.581   7.049
30313WAT     H191181   3.887   1.618   6.969
30313WAT     H291182   3.867   1.633   7.131
30314WAT      O91183   4.699   9.837   7.247
30314WAT     H191184   4.737   9.755   7.205
30314WAT     H291185   4.732   9.918   7.199
30315WAT      O91186   1.401   2.966   9.813
30315WAT     H191187   1.312   2.952   9.769
30315WAT     H291188   1.404   2.915   9.899
30316WAT      O91189   9.442   7.178   7.873
30316WAT     H191190   9.524   7.157   7.927
30316WAT     H291191   9.440   7.119   7.792
30317WAT      O91192   9.367   7.985   1.344
30317WAT     H191193   9.299   7.954   1.278
30317WAT     H291194   9.325   7.997   1.434
30318WAT      O91195   4.064   3.723   2.668
30318WAT     H191196   4.031   3.636   2.632
30318WAT     H291197   3.996   3.760   2.732
30319WAT      O91198   5.397   7.262   8.277
30319WAT     H191199   5.454   7.232   8.200
30319WAT     H291200   5.399   7.192   8.349
30320WAT      O91201   5.564   0.931   6.781
30320WAT     H191202   5.480   0.888   6.814
30320WAT     H291203   5.624   0.951   6.858
30321WAT      O91204   0.986   1.673   4.427
30321WAT     H191205   0.919   1.621   4.374
30321WAT     H291206   1.078   1.646   4.401
30322WAT      O91207   2.955   2.328   5.348
30322WAT     H191208   3.010   2.384   5.410
30322WAT     H291209   3.009   2.304   5.267
30323WAT      O91210   0.565   6.888   2.002
30323WAT     H191211   0.535   6.911   1.910
30323WAT     H291212   0.489   6.899   2.066
30324WAT      O91213   3.891   4.919   0.172
30324WAT     H191214   3.982   4.929   0.211
30324WAT     H291215   3.823   4.919   0.246
30325WAT      O91216   1.637   6.212   2.210
30325WAT     H191217   1.592   6.294   2.175
30325WAT     H291218   1.705   6.238   2.279
30326WAT      O91219   4.246   8.746   0.018
30326WAT     H191220   4.283   8.806   0.089
30326WAT     H291221   4.262   8.651   0.043
30327WAT      O91222   7.432   7.182   7.290
30327WAT     H191223   7.395   7.233   7.366
30327WAT     H291224   7.520   7.142   7.316
30328WAT      O91225   7.887   0.884   6.498
30328WAT     H191226   7.808   0.945   6.509
30328WAT     H291227   7.920   0.889   6.404
30329WAT      O91228   9.607   0.554   2.782
30329WAT     H191229   9.619   0.505   2.868
30329WAT     H291230   9.530   0.515   2.732
30330WAT      O91231   7.660   5.344   4.727
30330WAT     H191232   7.681   5.275   4.657
30330WAT     H291233   7.684   5.434   4.693
30331WAT      O91234   3.490   0.866   9.285
30331WAT     H191235   3.426   0.914   9.346
30331WAT     H291236   3.454   0.775   9.265
30332WAT      O91237   3.277   2.697   3.358
30332WAT     H191238   3.196   2.640   3.365
30332WAT     H291239   3.304   2.730   3.449
30333WAT      O91240   9.157   9.536   4.174
30333WAT     H191241   9.102   9.564   4.095
30333WAT     H291242   9.137   9.596   4.251
30334WAT      O91243   8.746   4.893   6.625
30334WAT     H191244   8.660   4.853   6.593
30334WAT     H291245   8.814   4.821   6.638
30335WAT      O91246   7.451   3.526   2.377
30335WAT     H191247   7.444   3.529   2.477
30335WAT     H291248   7.436   3.618   2.340
30336WAT      O91249   2.390   7.364   9.065
30336WAT     H191250   2.455   7.342   9.139
30336WAT     H291251   2.395   7.293   8.995
30337WAT      O91252   1.843   4.120   5.171
30337WAT     H191253   1.921   4.060   5.187
30337WAT     H291254   1.788   4.084   5.096
30338WAT      O91255   9.199   1.260   0.703
30338WAT     H191256   9.155   1.264   0.793
30338WAT     H291257   9.227   1.166   0.684
30339WAT      O91258   9.645   8.524   5.436
30339WAT     H191259   9.672   8.593   5.504
30339WAT     H291260   9.727   8.476   5.405
30340WAT      O91261   6.269   8.994   6.302
30340WAT     H191262   6.249   9.027   6.210
30340WAT     H291263   6.198   8.928   6.329
30341WAT      O91264   7.597   7.607   8.969
30341WAT     H191265   7.585   7.518   9.012
30341WAT     H291266   7.658   7.663   9.024
30342WAT      O91267   2.876   3.932   7.974
30342WAT     H191268   2.918   3.878   8.048
30342WAT     H291269   2.798   3.882   7.937
30343WAT      O91270   5.254   6.858   6.878
30343WAT     H191271   5.343   6.817   6.898
30343WAT     H291272   5.237   6.933   6.942
30344WAT      O91273   5.248   0.846   5.330
30344WAT     H191274   5.219   0.936   5.297
30344WAT     H291275   5.348   0.839   5.322
30345WAT      O91276   5.201   6.959   1.622
30345WAT     H191277   5.213   6.871   1.575
30345WAT     H291278   5.113   6.959   1.671
30346WAT      O91279   0.514   6.070   6.910
30346WAT     H191280   0.591   6.130   6.930
30346WAT     H291281   0.525   6.032   6.818
30347WAT      O91282   7.354   3.655   9.799
30347WAT     H191283   7.285   3.712   9.754
30347WAT     H291284   7.404   3.710   9.866
30348WAT      O91285   6.622   2.652   1.690
30348WAT     H191286   6.612   2.635   1.788
30348WAT     H291287   6.713   2.689   1.671
30349WAT      O91288   4.665   2.535   8.439
30349WAT     H191289   4.594   2.553   8.507
30349WAT     H291290   4.623   2.530   8.348
30350WAT      O91291   0.193   7.491   1.077
30350WAT     H191292   0.100   7.524   1.093
30350WAT     H291293   0.255   7.569   1.068
30351WAT      O91294   1.016   1.407   4.526
30351WAT     H191295   0.972   1.343   4.589
30351WAT     H291296   1.006   1.500   4.561
30352WAT      O91297   2.020   3.602   9.522
30352WAT     H191298   1.975   3.543   9.589
30352WAT     H291299   1.970   3.689   9.516
30353WAT      O91300   2.827   7.079   0.909
30353WAT     H191301   2.800   7.167   0.870
30353WAT     H291302   2.849   7.090   1.006
30354WAT      O91303   6.098   3.789   5.880
30354WAT     H191304   6.096   3.783   5.780
30354WAT     H291305   6.185   3.828   5.909
30355WAT      O91306   0.720   3.126   2.460
30355WAT     H191307   0.723   3.067   2.380
30355WAT     H291308   0.813   3.141   2.493
30356WAT      O91309   5.544   5.660   1.991
30356WAT     H191310   5.606   5.605   2.047
30356WAT     H291311   5.586   5.749   1.972
30357WAT      O91312   7.665   4.897   3.460
30357WAT     H191313   7.737   4.923   3.395
30357WAT     H291314   7.582   4.873   3.410
30358WAT      O91315   2.450   9.297   5.674
30358WAT     H191316   2.453   9.234   5.752
30358WAT     H291317   2.485   9.386   5.702
30359WAT      O91318   5.220   0.647   0.489
30359WAT     H191319   5.229   0.559   0.442
30359WAT     H291320   5.131   0.688   0.466
30360WAT      O91321   3.578   7.043   5.587
30360WAT     H191322   3.524   6.976   5.638
30360WAT     H291323   3.605   7.118   5.647
30361WAT      O91324   1.544   6.595   9.825
30361WAT     H191325   1.622   6.614   9.765
30361WAT     H291326   1.471   6.661   9.808
30362WAT      O91327   7.989   8.694   3.714
30362WAT     H191328   8.049   8.768   3.684
30362WAT     H291329   8.028   8.606   3.686
30363WAT      O91330   9.269   6.053   4.596
30363WAT     H191331   9.313   6.132   4.555
30363WAT     H291332   9.268   6.062   4.695
30364WAT      O91333   5.471   0.370   6.221
30364WAT     H191334   5.542   0.421   6.173
30364WAT     H291335   5.499   0.357   6.316
30365WAT      O91336   5.575   7.873   5.789
30365WAT     H191337   5.600   7.793   5.734
30365WAT     H291338   5.477   7.872   5.807
30366WAT      O91339   7.703   3.526   6.077
30366WAT     H191340   7.678   3.568   6.164
30366WAT     H291341   7.801   3.538   6.061
30367WAT      O91342   1.142   5.690   0.631
30367WAT     H191343   1.100   5.750   0.699
30367WAT     H291344   1.235   5.668   0.658
30368WAT      O91345   0.449   2.720   9.028
30368WAT     H191346   0.388   2.792   9.063
30368WAT     H291347   0.422   2.696   8.935
30369WAT      O91348   5.895   7.419   0.926
30369WAT     H191349   5.912   7.517   0.923
30369WAT     H291350   5.947   7.378   1.001
30370WAT      O91351   8.636   0.498   5.382
30370WAT     H191352   8.564   0.478   5.449
30370WAT     H291353   8.595   0.509   5.292
30371WAT      O91354   5.262   7.142   3.410
30371WAT     H191355   5.255   7.219   3.347
30371WAT     H291356   5.275   7.057   3.358
30372WAT      O91357   7.084   2.190   7.813
30372WAT     H191358   7.015   2.233   7.755
30372WAT     H291359   7.058   2.096   7.832
30373WAT      O91360   6.726   9.614   8.238
30373WAT     H191361   6.725   9.663   8.325
30373WAT     H291362   6.659   9.541   8.240
30374WAT      O91363   4.222   0.879   1.522
30374WAT     H191364   4.273   0.900   1.439
30374WAT     H291365   4.222   0.780   1.538
30375WAT      O91366   1.598   8.437   4.562
30375WAT     H191367   1.690   8.409   4.591
30375WAT     H291368   1.599   8.534   4.538
30376WAT      O91369   7.908   0.923   7.000
30376WAT     H191370   7.823   0.874   6.980
30376WAT     H291371   7.955   0.944   6.915
30377WAT      O91372   9.339   2.319   0.646
30377WAT     H191373   9.427   2.366   0.641
30377WAT     H291374   9.354   2.221   0.660
30378WAT      O91375   4.491   1.984   4.096
30378WAT     H191376   4.465   1.962   4.190
30378WAT     H291377   4.493   1.900   4.041
30379WAT      O91378   9.122   0.899   4.317
30379WAT     H191379   9.205   0.923   4.366
30379WAT     H291380   9.145   0.846   4.236
30380WAT      O91381   2.276   0.936   2.397
30380WAT     H191382   2.355   0.996   2.408
30380WAT     H291383   2.300   0.844   2.426
30381WAT      O91384   7.060   4.069   4.702
30381WAT     H191385   7.050   4.167   4.718
30381WAT     H291386   6.969   4.029   4.686
30382WAT      O91387   3.161   7.093   3.737
30382WAT     H191388   3.184   7.005   3.697
30382WAT     H291389   3.212   7.105   3.822
30383WAT      O91390   3.308   5.144   8.794
30383WAT     H191391   3.391   5.102   8.757
30383WAT     H291392   3.332   5.208   8.867
30384WAT      O91393   2.557   5.991   5.070
30384WAT     H191394   2.508   5.913   5.030
30384WAT     H291395   2.549   6.070   5.009
30385WAT      O91396   8.744   4.358   7.208
30385WAT     H191397   8.835   4.397   7.202
30385WAT     H291398   8.727   4.328   7.302
30386WAT      O91399   0.224   1.426   1.912
30386WAT     H191400   0.242   1.338   1.956
30386WAT     H291401   0.269   1.498   1.965
30387WAT      O91402   5.863   0.480   5.742
30387WAT     H191403   5.769   0.458   5.716
30387WAT     H291404   5.880   0.577   5.723
30388WAT      O91405   4.570   6.761   3.191
30388WAT     H191406   4.555   6.816   3.108
30388WAT     H291407   4.587   6.666   3.165
30389WAT      O91408   6.021   5.370   7.542
30389WAT     H191409   5.935   5.323   7.558
30389WAT     H291410   6.009   5.435   7.467
30390WAT      O91411   3.229   6.879   5.070
30390WAT     H191412   3.288   6.948   5.028
30390WAT     H291413   3.150   6.862   5.011
30391WAT      O91414   9.427   4.071   6.831
30391WAT     H191415   9.489   4.137   6.789
30391WAT     H291416   9.481   3.999   6.876
30392WAT      O91417   1.159   7.527   0.472
30392WAT     H191418   1.200   7.617   0.486
30392WAT     H291419   1.061   7.532   0.495
30393WAT      O91420   9.795   8.229   8.473
30393WAT     H191421   9.777   8.194   8.565
30393WAT     H291422   9.708   8.240   8.424
30394WAT      O91423   4.679   2.438   8.109
30394WAT     H191424   4.760   2.395   8.149
30394WAT     H291425   4.699   2.466   8.015
30395WAT      O91426   5.299   5.999   2.839
30395WAT     H191427   5.365   5.924   2.833
30395WAT     H291428   5.325   6.072   2.776
30396WAT      O91429   0.795   1.453   3.897
30396WAT     H191430   0.704   1.423   3.925
30396WAT     H291431   0.864   1.414   3.958
30397WAT      O91432   6.687   4.565   0.426
30397WAT     H191433   6.766   4.508   0.451
30397WAT     H291434   6.642   4.598   0.509
30398WAT      O91435   2.705   9.010   5.745
30398WAT     H191436   2.760   8.947   5.799
30398WAT     H291437   2.754   9.034   5.661
30399WAT      O91438   4.049   0.855   5.349
30399WAT     H191439   4.002   0.869   5.436
30399WAT     H291440   4.048   0.940   5.296
30400WAT      O91441   1.105   1.938   0.127
30400WAT     H191442   1.112   1.887   0.041
30400WAT     H291443   1.184   1.999   0.136
30401WAT      O91444   1.370   1.219   8.255
30401WAT     H191445   1.349   1.122   8.243
30401WAT     H291446   1.323   1.253   8.337
30402WAT      O91447   8.947   9.270   2.813
30402WAT     H191448   8.992   9.204   2.874
30402WAT     H291449   8.861   9.299   2.854
30403WAT      O91450   2.729   0.094   2.377
30403WAT     H191451   2.720  -0.004   2.360
30403WAT     H291452   2.638   0.132   2.398
30404WAT      O91453   8.985   1.488   2.811
30404WAT     H191454   8.971   1.579   2.772
30404WAT     H291455   8.899   1.436   2.804
30405WAT      O91456   9.219   7.092   2.707
30405WAT     H191457   9.189   7.173   2.658
30405WAT     H291458   9.236   7.018   2.642
30406WAT      O91459   6.616   8.023   9.689
30406WAT     H191460   6.624   8.025   9.590
30406WAT     H291461   6.684   8.085   9.729
30407WAT      O91462   8.710   4.858   3.549
30407WAT     H191463   8.670   4.780   3.598
30407WAT     H291464   8.654   4.939   3.565
30408WAT      O91465   6.628   4.602   2.867
30408WAT     H191466   6.605   4.698   2.851
30408WAT     H291467   6.598   4.576   2.959
30409WAT      O91468   7.165   2.538   3.211
30409WAT     H191469   7.227   2.524   3.288
30409WAT     H291470   7.216   2.529   3.125
30410WAT      O91471   3.667   7.484   2.900
30410WAT     H191472   3.617   7.465   2.815
30410WAT     H291473   3.670   7.583   2.915
30411WAT      O91474   8.925   0.676   7.861
30411WAT     H191475   8.982   0.600   7.893
30411WAT     H291476   8.983   0.743   7.814
30412WAT      O91477   8.501   4.477   7.306
30412WAT     H191478   8.430   4.417   7.341
30412WAT     H291479   8.578   4.422   7.272
30413WAT      O91480   1.818   7.408   5.443
30413WAT     H191481   1.864   7.397   5.531
30413WAT     H291482   1.885   7.419   5.370
30414WAT      O91483   6.586   8.542   3.526
30414WAT     H191484   6.629   8.624   3.563
30414WAT     H291485   6.488   8.558   3.515
30415WAT      O91486   2.123   5.882   2.725
30415WAT     H191487   2.173   5.949   2.780
30415WAT     H291488   2.169   5.872   2.636
30416WAT      O91489   1.854   4.839   7.195
30416WAT     H191490   1.824   4.890   7.114
30416WAT     H291491   1.835   4.893   7.277
30417WAT      O91492   2.850   6.825   7.738
30417WAT     H191493   2.937   6.781   7.761
30417WAT     H291494   2.838   6.907   7.794
30418WAT      O91495   5.043   0.582   6.427
30418WAT     H191496   5.128   0.612   6.385
30418WAT     H291497   5.060   0.501   6.484
30419WAT      O91498   3.188   7.187   1.204
30419WAT     H191499   3.236   7.168   1.289
30419WAT     H291500   3.128   7.266   1.216
30420WAT      O91501   0.739   0.333   4.936
30420WAT     H191502   0.682   0.278   4.997
30420WAT     H291503   0.765   0.279   4.856
30421WAT      O91504   4.396   1.711   6.559
30421WAT     H191505   4.462   1.665   6.499
30421WAT     H291506   4.341   1.642   6.607
30422WAT      O91507   5.759   6.940   8.723
30422WAT     H191508   5.743   6.842   8.710
30422WAT     H291509   5.700   6.992   8.661
30423WAT      O91510   5.938   1.181   5.510
30423WAT     H191511   5.848   1.215   5.483
30423WAT     H291512   5.952   1.090   5.470
30424WAT      O91513   6.432   0.699   1.403
30424WAT     H191514   6.382   0.716   1.318
30424WAT     H291515   6.522   0.661   1.382
30425WAT      O91516   0.210   3.642   2.551
30425WAT     H191517   0.156   3.684   2.478
30425WAT     H291518   0.192   3.544   2.555
30426WAT      O91519   3.590   0.076   8.756
30426WAT     H191520   3.576   0.050   8.851
30426WAT     H291521   3.540   0.013   8.696
30427WAT      O91522   8.216   7.655   4.590
30427WAT     H191523   8.293   7.592   4.598
30427WAT     H291524   8.240   7.729   4.526
30428WAT      O91525   4.649   0.923   9.372
30428WAT     H191526   4.556   0.960   9.379
30428WAT     H291527   4.658   0.872   9.286
30429WAT      O91528   1.306   2.118   2.259
30429WAT     H191529   1.308   2.207   2.213
30429WAT     H291530   1.335   2.130   2.354
30430WAT      O91531   8.821   0.935   6.727
30430WAT     H191532   8.905   0.981   6.696
30430WAT     H291533   8.756   1.004   6.760
30431WAT      O91534   9.737   5.169   9.646
30431WAT     H191535   9.654   5.115   9.664
30431WAT     H291536   9.814   5.128   9.696
30432WAT      O91537   1.596   5.365   5.359
30432WAT     H191538   1.545   5.332   5.279
30432WAT     H291539   1.642   5.451   5.336
30433WAT      O91540   1.657   9.157   6.630
30433WAT     H191541   1.588   9.153   6.557
30433WAT     H291542   1.616   9.130   6.717
30434WAT      O91543   6.647   2.477   9.747
30434WAT     H191544   6.656   2.384   9.783
30434WAT     H291545   6.555   2.490   9.711
30435WAT      O91546   8.457   4.220   9.511
30435WAT     H191547   8.541   4.190   9.557
30435WAT     H291548   8.378   4.199   9.569
30436WAT      O91549   9.210   2.884   4.031
30436WAT     H191550   9.212   2.975   4.072
30436WAT     H291551   9.196   2.815   4.102
30437WAT      O91552   7.075   9.385   9.773
30437WAT     H191553   7.146   9.336   9.723
30437WAT     H291554   7.074   9.481   9.745
30438WAT      O91555   2.690   5.430   7.027
30438WAT     H191556   2.684   5.501   7.098
30438WAT     H291557   2.764   5.367   7.050
30439WAT      O91558   6.960   8.633   7.182
30439WAT     H191559   7.030   8.598   7.120
30439WAT     H291560   6.955   8.576   7.263
30440WAT      O91561   7.402   9.111   7.214
30440WAT     H191562   7.429   9.117   7.117
30440WAT     H291563   7.372   9.201   7.246
30441WAT      O91564   6.485   7.740   9.260
30441WAT     H191565   6.531   7.745   9.349
30441WAT     H291566   6.474   7.644   9.234
30442WAT      O91567   1.309   2.477   7.414
30442WAT     H191568   1.350   2.387   7.398
30442WAT     H291569   1.279   2.484   7.509
30443WAT      O91570   7.594   6.893   0.555
30443WAT     H191571   7.503   6.880   0.594
30443WAT     H291572   7.663   6.882   0.626
30444WAT      O91573   0.844   0.903   1.098
30444WAT     H191574   0.928   0.955   1.114
30444WAT     H291575   0.793   0.895   1.184
30445WAT      O91576   1.368   8.344   6.077
30445WAT     H191577   1.446   8.327   6.137
30445WAT     H291578   1.283   8.331   6.129
30446WAT      O91579   6.168   3.942   8.288
30446WAT     H191580   6.203   3.984   8.372
30446WAT     H291581   6.208   3.988   8.208
30447WAT      O91582   2.861   1.810   1.126
30447WAT     H191583   2.787   1.752   1.160
30447WAT     H291584   2.843   1.905   1.151
30448WAT      O91585   0.423   5.531   5.025
30448WAT     H191586   0.372   5.617   5.016
30448WAT     H291587   0.508   5.538   4.974
30449WAT      O91588   8.827   2.394   7.535
30449WAT     H191589   8.805   2.303   7.501
30449WAT     H291590   8.921   2.417   7.511
30450WAT      O91591   8.247   0.458   7.401
30450WAT     H191592   8.172   0.474   7.465
30450WAT     H291593   8.330   0.502   7.434
30451WAT      O91594   7.198   9.755   2.215
30451WAT     H191595   7.251   9.670   2.218
30451WAT     H291596   7.113   9.742   2.266
30452WAT      O91597   8.031   4.500   3.304
30452WAT     H191598   8.128   4.499   3.325
30452WAT     H291599   7.979   4.516   3.388
30453WAT      O91600   8.805   0.487   1.799
30453WAT     H191601   8.745   0.453   1.727
30453WAT     H291602   8.866   0.557   1.760
30454WAT      O91603   8.440   7.898   0.685
30454WAT     H191604   8.394   7.810   0.675
30454WAT     H291605   8.440   7.946   0.598
30455WAT      O91606   8.361   0.114   8.549
30455WAT     H191607   8.391   0.091   8.457
30455WAT     H291608   8.440   0.118   8.610
30456WAT      O91609   4.034   6.408   9.236
30456WAT     H191610   3.945   6.443   9.265
30456WAT     H291611   4.105   6.444   9.297
30457WAT      O91612   2.746   8.971   0.945
30457WAT     H191613   2.662   8.974   0.892
30457WAT     H291614   2.723   8.963   1.042
30458WAT      O91615   0.694   4.401   5.784
30458WAT     H191616   0.702   4.467   5.859
30458WAT     H291617   0.599   4.397   5.753
30459WAT      O91618   4.463   9.088   8.530
30459WAT     H191619   4.409   9.058   8.451
30459WAT     H291620   4.482   9.185   8.522
30460WAT      O91621   9.367   0.565   8.860
30460WAT     H191622   9.426   0.567   8.779
30460WAT     H291623   9.278   0.527   8.835
30461WAT      O91624   3.959   5.924   6.480
30461WAT     H191625   4.017   5.916   6.561
30461WAT     H291626   4.014   5.906   6.398
30462WAT      O91627   2.394   7.224   5.836
30462WAT     H191628   2.455   7.300   5.859
30462WAT     H291629   2.437   7.138   5.862
30463WAT      O91630   0.466   4.471   2.880
30463WAT     H191631   0.505   4.561   2.861
30463WAT     H291632   0.391   4.481   2.946
30464WAT      O91633   5.861   8.129   1.038
30464WAT     H191634   5.955   8.155   1.018
30464WAT     H291635   5.798   8.194   0.995
30465WAT      O91636   3.009   3.239   4.563
30465WAT     H191637   2.966   3.325   4.536
30465WAT     H291638   3.091   3.225   4.508
30466WAT      O91639   6.879   7.567   5.090
30466WAT     H191640   6.804   7.570   5.024
30466WAT     H291641   6.935   7.649   5.081
30467WAT      O91642   4.398   3.142   5.350
30467WAT     H191643   4.335   3.201   5.401
30467WAT     H291644   4.491   3.175   5.360
30468WAT      O91645   0.356   0.526   7.240
30468WAT     H191646   0.433   0.467   7.214
30468WAT     H291647   0.318   0.570   7.159
30469WAT      O91648   8.735   3.924   9.807
30469WAT     H191649   8.655   3.946   9.862
30469WAT     H291650   8.715   3.847   9.748
30470WAT      O91651   9.536   3.502   5.548
30470WAT     H191652   9.618   3.552   5.519
30470WAT     H291653   9.516   3.431   5.480
30471WAT      O91654   8.921   4.426   2.392
30471WAT     H191655   8.839   4.478   2.369
30471WAT     H291656   9.002   4.483   2.376
30472WAT      O91657   4.688   1.898   8.172
30472WAT     H191658   4.729   1.807   8.180
30472WAT     H291659   4.750   1.958   8.121
30473WAT      O91660   2.662   7.402   7.620
30473WAT     H191661   2.564   7.382   7.630
30473WAT     H291662   2.691   7.466   7.691
30474WAT      O91663   6.553   4.375   1.694
30474WAT     H191664   6.649   4.358   1.673
30474WAT     H291665   6.514   4.295   1.740
30475WAT      O91666   4.311   8.987   6.526
30475WAT     H191667   4.410   9.005   6.524
30475WAT     H291668   4.269   9.020   6.442
30476WAT      O91669   9.232   2.245   4.896
30476WAT     H191670   9.213   2.340   4.921
30476WAT     H291671   9.317   2.216   4.940
30477WAT      O91672   0.644   1.425   5.355
30477WAT     H191673   0.630   1.407   5.258
30477WAT     H291674   0.736   1.396   5.382
30478WAT      O91675   1.306   4.980   5.631
30478WAT     H191676   1.298   4.975   5.731
30478WAT     H291677   1.239   5.044   5.595
30479WAT      O91678   5.153   4.968   1.146
30479WAT     H191679   5.186   5.056   1.112
30479WAT     H291680   5.148   4.903   1.070
30480WAT      O91681   4.693   5.323   4.305
30480WAT     H191682   4.737   5.375   4.231
30480WAT     H291683   4.690   5.226   4.281
30481WAT      O91684   1.385   9.136   3.280
30481WAT     H191685   1.479   9.157   3.255
30481WAT     H291686   1.323   9.169   3.208
30482WAT      O91687   7.649   5.632   2.016
30482WAT     H191688   7.741   5.597   2.033
30482WAT     H291689   7.647   5.730   2.034
30483WAT      O91690   6.593   2.522   1.108
30483WAT     H191691   6.648   2.439   1.124
30483WAT     H291692   6.513   2.520   1.168
30484WAT      O91693   9.223   5.254   0.093
30484WAT     H191694   9.181   5.264   0.183
30484WAT     H291695   9.182   5.320   0.030
30485WAT      O91696   4.018   3.192   4.624
30485WAT     H191697   4.084   3.164   4.694
30485WAT     H291698   3.957   3.262   4.662
30486WAT      O91699   3.640   9.796   5.625
30486WAT     H191700   3.637   9.853   5.543
30486WAT     H291701   3.663   9.702   5.600
30487WAT      O91702   3.088   3.496   9.831
30487WAT     H191703   3.001   3.546   9.839
30487WAT     H291704   3.114   3.491   9.735
30488WAT      O91705   4.709   1.400   8.942
30488WAT     H191706   4.643   1.346   8.993
30488WAT     H291707   4.747   1.345   8.868
30489WAT      O91708   0.962   1.260   8.082
30489WAT     H191709   1.014   1.305   8.154
30489WAT     H291710   0.951   1.163   8.103
30490WAT      O91711   3.055   0.488   0.233
30490WAT     H191712   3.060   0.560   0.303
30490WAT     H291713   3.147   0.457   0.210
30491WAT      O91714   8.579   4.234   0.003
30491WAT     H191715   8.613   4.235  -0.091
30491WAT     H291716   8.604   4.148   0.047
30492WAT      O91717   5.850   2.782   9.159
30492WAT     H191718   5.769   2.825   9.118
30492WAT     H291719   5.931   2.811   9.109
30493WAT      O91720   6.809   5.113   8.165
30493WAT     H191721   6.713   5.085   8.164
30493WAT     H291722   6.860   5.056   8.229
30494WAT      O91723   1.171   6.128   8.231
30494WAT     H191724   1.185   6.035   8.268
30494WAT     H291725   1.077   6.156   8.248
30495WAT      O91726   9.880   9.839   1.092
30495WAT     H191727   9.828   9.789   1.023
30495WAT     H291728   9.978   9.836   1.069
30496WAT      O91729   6.567   3.818   0.112
30496WAT     H191730   6.547   3.827   0.014
30496WAT     H291731   6.580   3.909   0.152
30497WAT      O91732   7.951   4.261   4.249
30497WAT     H191733   8.050   4.273   4.252
30497WAT     H291734   7.906   4.344   4.283
30498WAT      O91735   1.614   9.523   8.554
30498WAT     H191736   1.557   9.474   8.488
30498WAT     H291737   1.596   9.489   8.646
30499WAT      O91738   5.688   3.378   6.541
30499WAT     H191739   5.714   3.378   6.445
30499WAT     H291740   5.628   3.300   6.559
30500WAT      O91741   7.874   4.950   1.613
30500WAT     H191742   7.813   4.935   1.535
30500WAT     H291743   7.948   5.012   1.585
30501WAT      O91744   4.838   5.880   3.651
30501WAT     H191745   4.773   5.956   3.657
30501WAT     H291746   4.904   5.899   3.578
30502WAT      O91747   6.902   7.329   3.009
30502WAT     H191748   6.980   7.349   2.949
30502WAT     H291749   6.831   7.399   2.995
30503WAT      O91750   3.554   8.060   6.946
30503WAT     H191751   3.476   8.028   6.892
30503WAT     H291752   3.636   8.057   6.891
30504WAT      O91753   4.858   5.910   0.057
30504WAT     H191754   4.792   5.861   0.001
30504WAT     H291755   4.941   5.855   0.067
30505WAT      O91756   0.985   3.419   2.236
30505WAT     H191757   1.062   3.482   2.248
30505WAT     H291758   0.979   3.392   2.140
30506WAT      O91759   8.623   6.025   2.117
30506WAT     H191760   8.535   6.042   2.161
30506WAT     H291761   8.671   6.112   2.106
30507WAT      O91762   8.078   0.952   0.478
30507WAT     H191763   8.162   0.904   0.505
30507WAT     H291764   7.999   0.902   0.510
30508WAT      O91765   8.152   9.633   9.010
30508WAT     H191766   8.093   9.710   9.033
30508WAT     H291767   8.097   9.558   8.972
30509WAT      O91768   2.291   8.617   0.755
30509WAT     H191769   2.316   8.622   0.658
30509WAT     H291770   2.286   8.709   0.793
30510WAT      O91771   4.658   9.337   2.942
30510WAT     H191772   4.681   9.241   2.960
30510WAT     H291773   4.562   9.344   2.916
30511WAT      O91774   0.581   0.942   1.900
30511WAT     H191775   0.580   0.906   1.993
30511WAT     H291776   0.546   1.036   1.900
30512WAT      O91777   7.668   2.043   4.975
30512WAT     H191778   7.767   2.038   4.993
30512WAT     H291779   7.653   2.048   4.876
30513WAT      O91780   8.202   4.768   7.406
30513WAT     H191781   8.209   4.746   7.308
30513WAT     H291782   8.108   4.755   7.436
30514WAT      O91783   5.927   3.689   5.119
30514WAT     H191784   5.971   3.771   5.083
30514WAT     H291785   5.855   3.659   5.056
30515WAT      O91786   5.066   3.970   6.019
30515WAT     H191787   5.099   4.058   6.053
30515WAT     H291788   5.100   3.955   5.927
30516WAT      O91789   0.173   0.150   1.307
30516WAT     H191790   0.090   0.195   1.274
30516WAT     H291791   0.246   0.162   1.239
30517WAT      O91792   3.404   3.246   7.472
30517WAT     H191793   3.328   3.258   7.536
30517WAT     H291794   3.380   3.287   7.384
30518WAT      O91795   2.022   6.637   2.256
30518WAT     H191796   1.931   6.677   2.243
30518WAT     H291797   2.046   6.584   2.175
30519WAT      O91798   5.449   9.373   8.784
30519WAT     H191799   5.539   9.330   8.792
30519WAT     H291800   5.388   9.336   8.855
30520WAT      O91801   0.446   1.178   5.174
30520WAT     H191802   0.525   1.228   5.139
30520WAT     H291803   0.452   1.082   5.145
30521WAT      O91804   7.521   7.316   6.202
30521WAT     H191805   7.447   7.251   6.218
30521WAT     H291806   7.523   7.342   6.106
30522WAT      O91807   4.275   8.313   9.481
30522WAT     H191808   4.346   8.361   9.430
30522WAT     H291809   4.195   8.299   9.421
30523WAT      O91810   9.209   3.105   0.352
30523WAT     H191811   9.142   3.080   0.282
30523WAT     H291812   9.297   3.061   0.331
30524WAT      O91813   8.943   5.761   5.412
30524WAT     H191814   8.853   5.805   5.420
30524WAT     H291815   8.941   5.694   5.338
30525WAT      O91816   0.602   6.718   9.365
30525WAT     H191817   0.564   6.792   9.309
30525WAT     H291818   0.596   6.632   9.314
30526WAT      O91819   1.750   7.250   5.103
30526WAT     H191820   1.795   7.263   5.015
30526WAT     H291821   1.701   7.334   5.128
30527WAT      O91822   3.324   7.489   3.927
30527WAT     H191823   3.310   7.511   3.830
30527WAT     H291824   3.235   7.480   3.971
30528WAT      O91825   0.418   2.369   8.872
30528WAT     H191826   0.518   2.360   8.880
30528WAT     H291827   0.396   2.463   8.848
30529WAT      O91828   0.744   9.003   5.580
30529WAT     H191829   0.701   9.046   5.660
30529WAT     H291830   0.831   9.049   5.561
30530WAT      O91831   7.176   5.443   1.237
30530WAT     H191832   7.173   5.402   1.145
30530WAT     H291833   7.156   5.372   1.305
30531WAT      O91834   7.878   4.228   3.372
30531WAT     H191835   7.961   4.221   3.317
30531WAT     H291836   7.800   4.195   3.320
30532WAT      O91837   5.744   2.193   2.038
30532WAT     H191838   5.827   2.155   2.080
30532WAT     H291839   5.680   2.119   2.017
30533WAT      O91840   2.367   1.992   3.379
30533WAT     H191841   2.353   1.983   3.477
30533WAT     H291842   2.383   1.902   3.339
30534WAT      O91843   2.217   9.582   1.862
30534WAT     H191844   2.317   9.579   1.853
30534WAT     H291845   2.178   9.500   1.820
30535WAT      O91846   1.386   5.731   7.383
30535WAT     H191847   1.405   5.758   7.478
30535WAT     H291848   1.407   5.634   7.371
30536WAT      O91849   1.768   5.153   2.299
30536WAT     H191850   1.816   5.120   2.379
30536WAT     H291851   1.756   5.079   2.233
30537WAT      O91852   7.874   4.822   5.433
30537WAT     H191853   7.839   4.915   5.448
30537WAT     H291854   7.848   4.791   5.341
30538WAT      O91855   7.079   0.497   0.797
30538WAT     H191856   7.122   0.411   0.767
30538WAT     H291857   7.005   0.477   0.861
30539WAT      O91858   0.076   2.083   5.902
30539WAT     H191859   0.007   2.119   5.839
30539WAT     H291860   0.079   1.983   5.894
30540WAT      O91861   8.341   9.655   0.775
30540WAT     H191862   8.275   9.729   0.768
30540WAT     H291863   8.293   9.568   0.785
30541WAT      O91864   1.644   2.112   9.484
30541WAT     H191865   1.709   2.061   9.541
30541WAT     H291866   1.655   2.210   9.500
30542WAT      O91867   6.207   2.730   7.317
30542WAT     H191868   6.129   2.725   7.379
30542WAT     H291869   6.190   2.801   7.248
30543WAT      O91870   0.836   4.639   0.867
30543WAT     H191871   0.831   4.544   0.895
30543WAT     H291872   0.890   4.691   0.934
30544WAT      O91873   3.262   9.212   1.143
30544WAT     H191874   3.351   9.173   1.117
30544WAT     H291875   3.273   9.310   1.160
30545WAT      O91876   7.637   5.249   4.129
30545WAT     H191877   7.676   5.169   4.176
30545WAT     H291878   7.556   5.280   4.178
30546WAT      O91879   0.933   0.162   8.548
30546WAT     H191880   0.985   0.232   8.498
30546WAT     H291881   0.870   0.207   8.612
30547WAT      O91882   5.851   2.598   6.220
30547WAT     H191883   5.830   2.522   6.281
30547WAT     H291884   5.817   2.578   6.128
30548WAT      O91885   8.660   5.812   1.000
30548WAT     H191886   8.561   5.827   1.000
30548WAT     H291887   8.694   5.813   0.906
30549WAT      O91888   3.483   2.425   6.610
30549WAT     H191889   3.483   2.515   6.566
30549WAT     H291890   3.391   2.402   6.641
30550WAT      O91891   3.246   1.537   8.369
30550WAT     H191892   3.170   1.561   8.429
30550WAT     H291893   3.287   1.451   8.399
30551WAT      O91894   7.665   8.368   8.827
30551WAT     H191895   7.625   8.277   8.835
30551WAT     H291896   7.764   8.362   8.834
30552WAT      O91897   2.700   0.078   2.979
30552WAT     H191898   2.628   0.144   3.001
30552WAT     H291899   2.790   0.119   2.998
30553WAT      O91900   1.142   9.171   1.440
30553WAT     H191901   1.147   9.214   1.530
30553WAT     H291902   1.214   9.102   1.432
30554WAT      O91903   6.625   3.119   4.153
30554WAT     H191904   6.563   3.151   4.224
30554WAT     H291905   6.671   3.197   4.110
30555WAT      O91906   7.486   6.269   9.598
30555WAT     H191907   7.585   6.256   9.594
30555WAT     H291908   7.442   6.182   9.620
30556WAT      O91909   1.091   9.366   1.621
30556WAT     H191910   1.041   9.368   1.708
30556WAT     H291911   1.180   9.410   1.634
30557WAT      O91912   2.774   1.841   6.916
30557WAT     H191913   2.867   1.869   6.894
30557WAT     H291914   2.749   1.877   7.006
30558WAT      O91915   4.028   7.050   3.181
30558WAT     H191916   4.038   7.118   3.109
30558WAT     H291917   4.090   7.071   3.256
30559WAT      O91918   8.381   1.766   7.248
30559WAT     H191919   8.480   1.753   7.252
30559WAT     H291920   8.342   1.701   7.184
30560WAT      O91921   8.056   5.609   6.563
30560WAT     H191922   7.994   5.656   6.627
30560WAT     H291923   8.139   5.583   6.611
30561WAT      O91924   3.996   3.662   9.261
30561WAT     H191925   4.051   3.745   9.256
30561WAT     H291926   3.977   3.641   9.357
30562WAT      O91927   4.837   2.285   4.542
30562WAT     H191928   4.841   2.205   4.602
30562WAT     H291929   4.852   2.368   4.596
30563WAT      O91930   9.345   8.188   2.959
30563WAT     H191931   9.274   8.173   3.027
30563WAT     H291932   9.413   8.252   2.997
30564WAT      O91933   6.256   2.490   0.212
30564WAT     H191934   6.303   2.471   0.298
30564WAT     H291935   6.184   2.423   0.198
30565WAT      O91936   3.598   5.703   5.430
30565WAT     H191937   3.555   5.639   5.494
30565WAT     H291938   3.537   5.718   5.352
30566WAT      O91939   5.468   0.635   1.735
30566WAT     H191940   5.448   0.708   1.800
30566WAT     H291941   5.560   0.600   1.752
30567WAT      O91942   9.259   7.579   5.814
30567WAT     H191943   9.215   7.669   5.816
30567WAT     H291944   9.230   7.526   5.894
30568WAT      O91945   2.492   8.648   9.128
30568WAT     H191946   2.557   8.647   9.052
30568WAT     H291947   2.431   8.569   9.121
30569WAT      O91948   1.917   2.438   9.006
30569WAT     H191949   1.934   2.435   9.105
30569WAT     H291950   1.821   2.457   8.989
30570WAT      O91951   4.762   2.105   0.684
30570WAT     H191952   4.816   2.180   0.643
30570WAT     H291953   4.788   2.093   0.779
30571WAT      O91954   0.130   5.193   1.038
30571WAT     H191955   0.047   5.173   1.089
30571WAT     H291956   0.107   5.209   0.942
30572WAT      O91957   2.688   4.032   9.343
30572WAT     H191958   2.781   4.068   9.341
30572WAT     H291959   2.675   3.977   9.426
30573WAT      O91960   2.807   2.852   4.716
30573WAT     H191961   2.848   2.889   4.633
30573WAT     H291962   2.876   2.802   4.768
30574WAT      O91963   7.185   6.597   7.215
30574WAT     H191964   7.237   6.536   7.276
30574WAT     H291965   7.219   6.587   7.122
30575WAT      O91966   1.471   1.087   9.767
30575WAT     H191967   1.408   1.027   9.817
30575WAT     H291968   1.436   1.104   9.675
30576WAT      O91969   6.382   8.229   4.828
30576WAT     H191970   6.390   8.286   4.910
30576WAT     H291971   6.395   8.133   4.854
30577WAT      O91972   2.014   9.335   6.243
30577WAT     H191973   1.944   9.288   6.297
30577WAT     H291974   2.100   9.285   6.249
30578WAT      O91975   5.928   2.939   8.545
30578WAT     H191976   5.981   2.855   8.537
30578WAT     H291977   5.990   3.017   8.551
30579WAT      O91978   5.761   4.876   3.581
30579WAT     H191979   5.838   4.884   3.644
30579WAT     H291980   5.717   4.965   3.572
30580WAT      O91981   4.255   1.343   8.580
30580WAT     H191982   4.175   1.307   8.629
30580WAT     H291983   4.266   1.440   8.599
30581WAT      O91984   5.019   6.357   4.655
30581WAT     H191985   5.047   6.328   4.563
30581WAT     H291986   4.929   6.318   4.676
30582WAT      O91987   1.993   3.014   8.901
30582WAT     H191988   2.005   2.933   8.958
30582WAT     H291989   2.080   3.063   8.893
30583WAT      O91990   5.412   5.699   4.925
30583WAT     H191991   5.496   5.656   4.894
30583WAT     H291992   5.360   5.634   4.980
30584WAT      O91993   2.121   7.415   6.367
30584WAT     H191994   2.220   7.411   6.380
30584WAT     H291995   2.101   7.438   6.272
30585WAT      O91996   2.320   4.873   7.948
30585WAT     H191997   2.230   4.848   7.983
30585WAT     H291998   2.385   4.879   8.023
30586WAT      O91999   3.041   2.825   5.653
30586WAT     H192000   3.129   2.820   5.606
30586WAT     H292001   2.994   2.737   5.645
30587WAT      O92002   6.407   0.281   6.594
30587WAT     H192003   6.489   0.263   6.648
30587WAT     H292004   6.353   0.198   6.586
30588WAT      O92005   0.057   1.917   0.363
30588WAT     H192006   0.043   1.895   0.266
30588WAT     H292007   0.030   1.838   0.418
30589WAT      O92008   7.522   3.288   0.890
30589WAT     H192009   7.592   3.333   0.945
30589WAT     H292010   7.453   3.247   0.950
30590WAT      O92011   8.123   7.144   9.572
30590WAT     H192012   8.162   7.052   9.582
30590WAT     H292013   8.065   7.146   9.491
30591WAT      O92014   6.287   5.892   2.501
30591WAT     H192015   6.298   5.808   2.447
30591WAT     H292016   6.216   5.949   2.460
30592WAT      O92017   0.747   6.207   1.523
30592WAT     H192018   0.823   6.268   1.548
30592WAT     H292019   0.699   6.245   1.444
30593WAT      O92020   6.567   5.787   8.670
30593WAT     H192021   6.640   5.853   8.688
30593WAT     H292022   6.531   5.801   8.578
30594WAT      O92023   0.669   7.026   8.711
30594WAT     H192024   0.686   6.987   8.621
30594WAT     H292025   0.573   7.056   8.717
30595WAT      O92026   3.152   0.302   7.403
30595WAT     H192027   3.125   0.398   7.406
30595WAT     H292028   3.247   0.293   7.433
30596WAT      O92029   3.161   1.617   6.229
30596WAT     H192030   3.122   1.535   6.270
30596WAT     H292031   3.211   1.593   6.146
30597WAT      O92032   0.396   7.754   3.300
30597WAT     H192033   0.477   7.695   3.304
30597WAT     H292034   0.335   7.721   3.229
30598WAT      O92035   2.256   1.793   0.434
30598WAT     H192036   2.195   1.758   0.505
30598WAT     H292037   2.263   1.892   0.442
30599WAT      O92038   2.740   0.453   6.980
30599WAT     H192039   2.725   0.531   6.919
30599WAT     H292040   2.671   0.382   6.961
30600WAT      O92041   6.869   2.302   2.187
30600WAT     H192042   6.851   2.232   2.256
30600WAT     H292043   6.794   2.367   2.185
30601WAT      O92044   1.451   9.427   6.460
30601WAT     H192045   1.530   9.478   6.493
30601WAT     H292046   1.481   9.349   6.405
30602WAT      O92047   5.997   4.974   4.181
30602WAT     H192048   5.983   4.994   4.084
30602WAT     H292049   5.981   5.057   4.235
30603WAT      O92050   1.035   3.895   6.738
30603WAT     H192051   1.038   3.995   6.746
30603WAT     H292052   1.025   3.856   6.830
30604WAT      O92053   7.991   9.029   2.160
30604WAT     H192054   8.003   9.112   2.215
30604WAT     H292055   8.040   8.953   2.203
30605WAT      O92056   4.154   7.194   0.903
30605WAT     H192057   4.104   7.251   0.968
30605WAT     H292058   4.089   7.135   0.855
30606WAT      O92059   1.145   4.779   2.645
30606WAT     H192060   1.158   4.698   2.702
30606WAT     H292061   1.232   4.828   2.637
30607WAT      O92062   6.004   8.528   2.116
30607WAT     H192063   6.047   8.579   2.191
30607WAT     H292064   6.073   8.505   2.047
30608WAT      O92065   3.358   3.624   0.312
30608WAT     H192066   3.322   3.657   0.225
30608WAT     H292067   3.341   3.692   0.384
30609WAT      O92068   1.363   1.344   0.367
30609WAT     H192069   1.289   1.397   0.325
30609WAT     H292070   1.369   1.367   0.464
30610WAT      O92071   2.450   1.343   2.493
30610WAT     H192072   2.469   1.371   2.587
30610WAT     H292073   2.352   1.347   2.476
30611WAT      O92074   2.518   9.572   3.361
30611WAT     H192075   2.450   9.643   3.378
30611WAT     H292076   2.526   9.513   3.441
30612WAT      O92077   1.558   9.238   6.174
30612WAT     H192078   1.565   9.171   6.099
30612WAT     H292079   1.553   9.330   6.136
30613WAT      O92080   8.451   8.461   2.624
30613WAT     H192081   8.371   8.403   2.609
30613WAT     H292082   8.434   8.552   2.586
30614WAT      O92083   9.504   2.748   4.428
30614WAT     H192084   9.563   2.811   4.377
30614WAT     H292085   9.428   2.718   4.369
30615WAT      O92086   6.934   3.137   7.337
30615WAT     H192087   6.921   3.042   7.365
30615WAT     H292088   6.848   3.187   7.342
30616WAT      O92089   7.716   9.224   8.096
30616WAT     H192090   7.739   9.153   8.030
30616WAT     H292091   7.794   9.242   8.156
30617WAT      O92092   0.579   2.472   1.723
30617WAT     H192093   0.603   2.553   1.670
30617WAT     H292094   0.577   2.496   1.821
30618WAT      O92095   9.720   2.699   9.676
30618WAT     H192096   9.744   2.605   9.697
30618WAT     H292097   9.668   2.739   9.752
30619WAT      O92098   1.410   5.542   8.102
30619WAT     H192099   1.407   5.579   8.195
30619WAT     H292100   1.339   5.585   8.046
30620WAT      O92101   3.596   3.541   0.410
30620WAT     H192102   3.558   3.544   0.502
30620WAT     H292103   3.523   3.560   0.344
30621WAT      O92104   3.449   0.617   7.341
30621WAT     H192105   3.524   0.672   7.306
30621WAT     H292106   3.363   0.649   7.302
30622WAT      O92107   1.260   1.308   5.962
30622WAT     H192108   1.232   1.363   6.041
30622WAT     H292109   1.245   1.361   5.878
30623WAT      O92110   0.357   4.039   8.681
30623WAT     H192111   0.394   4.130   8.699
30623WAT     H292112   0.266   4.047   8.641
30624WAT      O92113   4.395   5.503   2.501
30624WAT     H192114   4.297   5.489   2.518
30624WAT     H292115   4.445   5.419   2.524
30625WAT      O92116   1.927   3.779   2.926
30625WAT     H192117   1.841   3.830   2.935
30625WAT     H292118   1.922   3.695   2.979
30626WAT      O92119   7.664   1.978   9.223
30626WAT     H192120   7.577   2.000   9.178
30626WAT     H292121   7.734   1.959   9.153
30627WAT      O92122   6.754   2.952   9.734
30627WAT     H192123   6.828   3.015   9.712
30627WAT     H292124   6.754   2.932   9.832
30628WAT      O92125   8.992   9.159   6.953
30628WAT     H192126   8.973   9.121   7.044
30628WAT     H292127   9.087   9.138   6.929
30629WAT      O92128   1.197   7.652   9.260
30629WAT     H192129   1.278   7.704   9.231
30629WAT     H292130   1.138   7.636   9.181
30630WAT      O92131   7.528   1.407   9.711
30630WAT     H192132   7.565   1.378   9.623
30630WAT     H292133   7.569   1.494   9.737
30631WAT      O92134   2.911   7.255   2.743
30631WAT     H192135   2.916   7.345   2.698
30631WAT     H292136   2.839   7.200   2.700
30632WAT      O92137   2.813   1.142   5.428
30632WAT     H192138   2.797   1.084   5.348
30632WAT     H292139   2.822   1.084   5.509
30633WAT      O92140   3.374   9.014   4.812
30633WAT     H192141   3.349   9.019   4.716
30633WAT     H292142   3.300   9.053   4.868
30634WAT      O92143   1.798   8.925   1.570
30634WAT     H192144   1.879   8.939   1.514
30634WAT     H292145   1.824   8.886   1.658
30635WAT      O92146   0.728   4.764   4.761
30635WAT     H192147   0.773   4.792   4.846
30635WAT     H292148   0.797   4.738   4.694
30636WAT      O92149   8.199   7.173   0.769
30636WAT     H192150   8.187   7.076   0.792
30636WAT     H292151   8.293   7.201   0.787
30637WAT      O92152   1.813   3.568   0.429
30637WAT     H192153   1.858   3.497   0.483
30637WAT     H292154   1.855   3.656   0.448
30638WAT      O92155   2.664   5.080   3.737
30638WAT     H192156   2.751   5.092   3.689
30638WAT     H292157   2.625   4.990   3.716
30639WAT      O92158   5.170   6.557   3.395
30639WAT     H192159   5.223   6.598   3.469
30639WAT     H292160   5.114   6.482   3.433
30640WAT      O92161   0.669   9.095   6.785
30640WAT     H192162   0.630   9.061   6.871
30640WAT     H292163   0.701   9.018   6.730
30641WAT      O92164   7.615   3.992   7.263
30641WAT     H192165   7.574   3.978   7.354
30641WAT     H292166   7.708   4.027   7.273
30642WAT      O92167   6.584   5.734   3.125
30642WAT     H192168   6.555   5.668   3.195
30642WAT     H292169   6.621   5.815   3.169
30643WAT      O92170   4.134   1.181   4.955
30643WAT     H192171   4.059   1.152   4.895
30643WAT     H292172   4.116   1.273   4.990
30644WAT      O92173   9.211   0.187   0.463
30644WAT     H192174   9.281   0.121   0.434
30644WAT     H292175   9.217   0.269   0.406
30645WAT      O92176   9.624   2.497   7.619
30645WAT     H192177   9.705   2.489   7.561
30645WAT     H292178   9.543   2.472   7.567
30646WAT      O92179   4.943   3.002   8.227
30646WAT     H192180   4.904   2.911   8.211
30646WAT     H292181   4.895   3.069   8.171
30647WAT      O92182   7.517   3.681   0.743
30647WAT     H192183   7.561   3.605   0.694
30647WAT     H292184   7.420   3.662   0.753
30648WAT      O92185   0.789   0.576   9.061
30648WAT     H192186   0.729   0.645   9.019
30648WAT     H292187   0.821   0.512   8.990
30649WAT      O92188   1.911   7.146   5.320
30649WAT     H192189   1.842   7.111   5.384
30649WAT     H292190   1.867   7.167   5.233
30650WAT      O92191   3.049   0.343   6.098
30650WAT     H192192   3.119   0.413   6.081
30650WAT     H292193   2.963   0.388   6.121
30651WAT      O92194   1.612   6.224   1.412
30651WAT     H192195   1.629   6.306   1.357
30651WAT     H292196   1.681   6.216   1.483
30652WAT      O92197   3.491   4.008   6.373
30652WAT     H192198   3.464   3.998   6.469
30652WAT     H292199   3.455   3.932   6.320
30653WAT      O92200   7.153   2.803   2.007
30653WAT     H192201   7.152   2.781   2.105
30653WAT     H292202   7.093   2.880   1.989
30654WAT      O92203   6.437   5.391   4.767
30654WAT     H192204   6.371   5.317   4.755
30654WAT     H292205   6.439   5.447   4.684
30655WAT      O92206   4.744   4.832   9.832
30655WAT     H192207   4.776   4.841   9.738
30655WAT     H292208   4.820   4.803   9.890
30656WAT      O92209   8.981   9.357   2.357
30656WAT     H192210   9.058   9.295   2.341
30656WAT     H292211   9.013   9.440   2.402
30657WAT      O92212   3.711   3.131   5.142
30657WAT     H192213   3.739   3.227   5.138
30657WAT     H292214   3.664   3.114   5.228
30658WAT      O92215   8.349   0.775   9.081
30658WAT     H192216   8.271   0.837   9.070
30658WAT     H292217   8.420   0.800   9.015
30659WAT      O92218   3.319   8.052   6.782
30659WAT     H192219   3.317   7.959   6.745
30659WAT     H292220   3.278   8.115   6.716
30660WAT      O92221   5.102   6.560   2.189
30660WAT     H192222   5.189   6.535   2.231
30660WAT     H292223   5.065   6.641   2.234
30661WAT      O92224   8.741   6.272   2.146
30661WAT     H192225   8.683   6.295   2.224
30661WAT     H292226   8.693   6.294   2.061
30662WAT      O92227   8.913   0.216   0.714
30662WAT     H192228   8.991   0.277   0.721
30662WAT     H292229   8.907   0.179   0.621
30663WAT      O92230   0.695   9.586   0.171
30663WAT     H192231   0.708   9.681   0.201
30663WAT     H292232   0.783   9.548   0.142
30664WAT      O92233   7.577   1.176   5.650
30664WAT     H192234   7.604   1.176   5.554
30664WAT     H292235   7.648   1.223   5.704
30665WAT      O92236   8.367   6.286   7.998
30665WAT     H192237   8.423   6.329   8.069
30665WAT     H292238   8.337   6.356   7.933
30666WAT      O92239   8.038   5.333   6.145
30666WAT     H192240   8.102   5.375   6.080
30666WAT     H292241   7.997   5.405   6.202
30667WAT      O92242   4.401   7.528   5.538
30667WAT     H192243   4.449   7.445   5.509
30667WAT     H292244   4.439   7.607   5.490
30668WAT      O92245   8.826   7.518   9.117
30668WAT     H192246   8.911   7.476   9.086
30668WAT     H292247   8.820   7.511   9.217
30669WAT      O92248   7.115   6.295   5.530
30669WAT     H192249   7.047   6.236   5.574
30669WAT     H292250   7.204   6.280   5.572
30670WAT      O92251   4.976   2.548   1.396
30670WAT     H192252   4.906   2.479   1.414
30670WAT     H292253   5.011   2.536   1.303
30671WAT      O92254   6.225   4.917   4.052
30671WAT     H192255   6.159   4.963   4.112
30671WAT     H292256   6.184   4.832   4.018
30672WAT      O92257   5.888   4.360   6.102
30672WAT     H192258   5.824   4.433   6.081
30672WAT     H292259   5.961   4.359   6.033
30673WAT      O92260   8.775   8.881   1.691
30673WAT     H192261   8.864   8.841   1.714
30673WAT     H292262   8.739   8.836   1.609
30674WAT      O92263   7.124   6.676   8.577
30674WAT     H192264   7.115   6.765   8.623
30674WAT     H292265   7.140   6.605   8.646
30675WAT      O92266   8.571   2.836   1.014
30675WAT     H192267   8.567   2.894   0.933
30675WAT     H292268   8.549   2.741   0.988
30676WAT      O92269   6.640   2.193   6.473
30676WAT     H192270   6.698   2.119   6.440
30676WAT     H292271   6.696   2.275   6.489
30677WAT      O92272   8.575   0.283   1.947
30677WAT     H192273   8.596   0.377   1.973
30677WAT     H292274   8.607   0.221   2.018
30678WAT      O92275   5.148   5.897   3.786
30678WAT     H192276   5.099   5.827   3.837
30678WAT     H292277   5.228   5.857   3.741
30679WAT      O92278   0.050   8.680   2.838
30679WAT     H192279   0.136   8.636   2.865
30679WAT     H292280  -0.014   8.677   2.915
30680WAT      O92281   7.952   7.811   8.779
30680WAT     H192282   7.993   7.828   8.869
30680WAT     H292283   7.886   7.883   8.758
30681WAT      O92284   2.601   3.101   2.388
30681WAT     H192285   2.635   3.008   2.373
30681WAT     H292286   2.661   3.166   2.340
30682WAT      O92287   4.323   9.018   7.497
30682WAT     H192288   4.267   8.960   7.557
30682WAT     H292289   4.317   8.984   7.403
30683WAT      O92290   8.089   6.377   2.815
30683WAT     H192291   8.159   6.318   2.855
30683WAT     H292292   8.097   6.469   2.853
30684WAT      O92293   6.854   1.372   9.300
30684WAT     H192294   6.781   1.427   9.339
30684WAT     H292295   6.895   1.315   9.371
30685WAT      O92296   5.159   0.311   2.430
30685WAT     H192297   5.215   0.236   2.466
30685WAT     H292298   5.168   0.391   2.490
30686WAT      O92299   0.001   7.928   5.942
30686WAT     H192300   0.046   7.844   5.971
30686WAT     H292301   0.064   7.982   5.886
30687WAT      O92302   6.167   2.611   8.756
30687WAT     H192303   6.142   2.671   8.679
30687WAT     H292304   6.242   2.551   8.728
30688WAT      O92305   7.418   6.862   8.178
30688WAT     H192306   7.371   6.837   8.093
30688WAT     H292307   7.365   6.829   8.256
30689WAT      O92308   2.149   6.856   0.503
30689WAT     H192309   2.163   6.869   0.601
30689WAT     H292310   2.203   6.923   0.452
30690WAT      O92311   0.020   7.222   7.375
30690WAT     H192312   0.098   7.258   7.428
30690WAT     H292313   0.053   7.183   7.290
30691WAT      O92314   9.169   0.823   0.298
30691WAT     H192315   9.121   0.905   0.266
30691WAT     H292316   9.214   0.779   0.221
30692WAT      O92317   9.775   4.547   9.289
30692WAT     H192318   9.710   4.471   9.288
30692WAT     H292319   9.778   4.589   9.199
30693WAT      O92320   0.607   0.267   0.344
30693WAT     H192321   0.616   0.287   0.441
30693WAT     H292322   0.604   0.168   0.330
30694WAT      O92323   2.711   6.929   8.922
30694WAT     H192324   2.775   6.857   8.895
30694WAT     H292325   2.745   7.018   8.891
30695WAT      O92326   4.618   8.774   3.259
30695WAT     H192327   4.592   8.868   3.237
30695WAT     H292328   4.596   8.714   3.182
30696WAT      O92329   8.318   4.201   6.772
30696WAT     H192330   8.402   4.147   6.768
30696WAT     H292331   8.339   4.292   6.809
30697WAT      O92332   1.471   4.380   5.291
30697WAT     H192333   1.451   4.341   5.201
30697WAT     H292334   1.450   4.478   5.291
30698WAT      O92335   3.374   2.457   2.477
30698WAT     H192336   3.321   2.383   2.435
30698WAT     H292337   3.354   2.461   2.575
30699WAT      O92338   9.258   7.163   2.963
30699WAT     H192339   9.177   7.220   2.973
30699WAT     H292340   9.267   7.134   2.868
30700WAT      O92341   7.218   0.524   0.098
30700WAT     H192342   7.245   0.573   0.015
30700WAT     H292343   7.122   0.543   0.118
30701WAT      O92344   1.416   9.413   1.245
30701WAT     H192345   1.448   9.367   1.162
30701WAT     H292346   1.330   9.461   1.225
30702WAT      O92347   7.654   9.235   9.327
30702WAT     H192348   7.596   9.168   9.373
30702WAT     H292349   7.742   9.240   9.374
30703WAT      O92350   5.907   0.443   3.955
30703WAT     H192351   5.952   0.388   4.025
30703WAT     H292352   5.893   0.387   3.873
30704WAT      O92353   3.948   7.130   8.953
30704WAT     H192354   3.922   7.220   8.915
30704WAT     H292355   3.896   7.114   9.037
30705WAT      O92356   6.077   5.156   2.931
30705WAT     H192357   6.076   5.151   3.030
30705WAT     H292358   6.096   5.250   2.902
30706WAT      O92359   6.470   3.163   2.289
30706WAT     H192360   6.371   3.147   2.288
30706WAT     H292361   6.506   3.150   2.197
30707WAT      O92362   0.701   1.144   0.943
30707WAT     H192363   0.645   1.108   1.017
30707WAT     H292364   0.758   1.219   0.979
30708WAT      O92365   1.224   0.502   6.577
30708WAT     H192366   1.283   0.453   6.513
30708WAT     H292367   1.147   0.542   6.528
30709WAT      O92368   9.401   9.168   8.700
30709WAT     H192369   9.339   9.093   8.720
30709WAT     H292370   9.424   9.167   8.603
30710WAT      O92371   0.358   3.754   1.834
30710WAT     H192372   0.407   3.823   1.887
30710WAT     H292373   0.391   3.663   1.860
30711WAT      O92374   1.422   2.770   6.332
30711WAT     H192375   1.470   2.750   6.247
30711WAT     H292376   1.478   2.743   6.410
30712WAT      O92377   0.193   8.987   0.167
30712WAT     H192378   0.267   8.929   0.132
30712WAT     H292379   0.138   8.934   0.232
30713WAT      O92380   6.912   6.357   3.158
30713WAT     H192381   7.004   6.317   3.157
30713WAT     H292382   6.853   6.307   3.095
30714WAT      O92383   3.121   6.609   8.061
30714WAT     H192384   3.200   6.549   8.073
30714WAT     H292385   3.039   6.563   8.094
30715WAT      O92386   9.166   8.910   1.294
30715WAT     H192387   9.254   8.899   1.248
30715WAT     H292388   9.092   8.903   1.228
30716WAT      O92389   6.739   3.673   8.198
30716WAT     H192390   6.830   3.662   8.238
30716WAT     H292391   6.745   3.732   8.117
30717WAT      O92392   4.787   1.589   3.418
30717WAT     H192393   4.797   1.532   3.337
30717WAT     H292394   4.871   1.641   3.433
30718WAT      O92395   6.149   3.237   8.881
30718WAT     H192396   6.235   3.203   8.844
30718WAT     H292397   6.163   3.326   8.924
30719WAT      O92398   1.758   6.974   3.480
30719WAT     H192399   1.699   7.033   3.424
30719WAT     H292400   1.711   6.888   3.499
30720WAT      O92401   6.589   0.131   4.073
30720WAT     H192402   6.622   0.150   3.981
30720WAT     H292403   6.666   0.127   4.136
30721WAT      O92404   9.317   3.695   1.951
30721WAT     H192405   9.387   3.636   1.911
30721WAT     H292406   9.291   3.765   1.884
30722WAT      O92407   9.716   4.868   9.889
30722WAT     H192408   9.749   4.940   9.827
30722WAT     H292409   9.794   4.817   9.926
30723WAT      O92410   9.469   4.773   4.311
30723WAT     H192411   9.460   4.683   4.268
30723WAT     H292412   9.540   4.825   4.265
30724WAT      O92413   0.078   7.313   8.066
30724WAT     H192414   0.080   7.349   8.159
30724WAT     H292415   0.001   7.354   8.016
30725WAT      O92416   7.767   3.136   3.143
30725WAT     H192417   7.690   3.118   3.081
30725WAT     H292418   7.732   3.164   3.232
30726WAT      O92419   5.268   3.107   6.576
30726WAT     H192420   5.241   3.105   6.480
30726WAT     H292421   5.219   3.035   6.626
30727WAT      O92422   4.175   1.981   0.986
30727WAT     H192423   4.105   1.970   1.056
30727WAT     H292424   4.236   1.901   0.987
30728WAT      O92425   9.795   1.707   1.814
30728WAT     H192426   9.704   1.698   1.774
30728WAT     H292427   9.788   1.754   1.902
30729WAT      O92428   3.893   6.771   2.140
30729WAT     H192429   3.824   6.750   2.071
30729WAT     H292430   3.970   6.708   2.131
30730WAT      O92431   5.894   9.045   3.751
30730WAT     H192432   5.921   9.011   3.842
30730WAT     H292433   5.820   9.111   3.762
30731WAT      O92434   9.631   3.701   2.669
30731WAT     H192435   9.546   3.723   2.716
30731WAT     H292436   9.694   3.657   2.734
30732WAT      O92437   2.465   1.332   9.792
30732WAT     H192438   2.531   1.268   9.831
30732WAT     H292439   2.395   1.282   9.741
30733WAT      O92440   2.958   9.826   9.512
30733WAT     H192441   2.930   9.900   9.572
30733WAT     H292442   3.048   9.846   9.474
30734WAT      O92443   7.115   3.955   9.436
30734WAT     H192444   7.043   3.975   9.502
30734WAT     H292445   7.144   4.040   9.392
30735WAT      O92446   3.178   5.831   0.957
30735WAT     H192447   3.209   5.777   0.878
30735WAT     H292448   3.217   5.794   1.041
30736WAT      O92449   7.095   5.939   9.411
30736WAT     H192450   7.046   5.852   9.421
30736WAT     H292451   7.073   5.980   9.323
30737WAT      O92452   5.344   9.829   4.434
30737WAT     H192453   5.409   9.754   4.423
30737WAT     H292454   5.371   9.905   4.376
30738WAT      O92455   5.180   4.974   7.220
30738WAT     H192456   5.080   4.967   7.219
30738WAT     H292457   5.207   5.061   7.179
30739WAT      O92458   1.802   2.669   4.340
30739WAT     H192459   1.725   2.608   4.320
30739WAT     H292460   1.789   2.756   4.293
30740WAT      O92461   5.965   5.152   7.284
30740WAT     H192462   5.997   5.133   7.191
30740WAT     H292463   6.031   5.116   7.350
30741WAT      O92464   0.941   7.484   2.661
30741WAT     H192465   0.936   7.403   2.718
30741WAT     H292466   0.933   7.458   2.565
30742WAT      O92467   0.697   0.483   3.696
30742WAT     H192468   0.639   0.422   3.751
30742WAT     H292469   0.641   0.558   3.661
30743WAT      O92470   0.266   4.094   7.584
30743WAT     H192471   0.287   4.044   7.501
30743WAT     H292472   0.313   4.052   7.662
30744WAT      O92473   6.029   0.814   3.525
30744WAT     H192474   6.079   0.891   3.565
30744WAT     H292475   6.072   0.788   3.439
30745WAT      O92476   1.863   0.266   0.406
30745WAT     H192477   1.864   0.168   0.427
30745WAT     H292478   1.946   0.290   0.356
30746WAT      O92479   7.878   1.906   2.430
30746WAT     H192480   7.850   1.944   2.342
30746WAT     H292481   7.945   1.967   2.473
30747WAT      O92482   6.978   5.489   7.660
30747WAT     H192483   7.067   5.487   7.705
30747WAT     H292484   6.940   5.396   7.658
30748WAT      O92485   2.742   4.524   0.963
30748WAT     H192486   2.717   4.620   0.947
30748WAT     H292487   2.693   4.466   0.898
30749WAT      O92488   3.143   5.707   2.513
30749WAT     H192489   3.187   5.789   2.476
30749WAT     H292490   3.121   5.645   2.438
30750WAT      O92491   8.959   0.780   7.254
30750WAT     H192492   8.900   0.770   7.174
30750WAT     H292493   9.026   0.852   7.237
30751WAT      O92494   4.908   5.525   6.660
30751WAT     H192495   4.873   5.432   6.654
30751WAT     H292496   4.993   5.533   6.607
30752WAT      O92497   9.497   0.307   1.458
30752WAT     H192498   9.458   0.227   1.412
30752WAT     H292499   9.423   0.360   1.501
30753WAT      O92500   1.575   5.442   6.508
30753WAT     H192501   1.576   5.411   6.413
30753WAT     H292502   1.529   5.373   6.565
30754WAT      O92503   5.866   7.454   7.917
30754WAT     H192504   5.950   7.441   7.970
30754WAT     H292505   5.888   7.463   7.820
30755WAT      O92506   1.127   2.526   9.061
30755WAT     H192507   1.211   2.486   9.025
30755WAT     H292508   1.081   2.577   8.988
30756WAT      O92509   4.294   3.458   0.806
30756WAT     H192510   4.343   3.542   0.782
30756WAT     H292511   4.351   3.379   0.784
30757WAT      O92512   3.366   2.812   9.798
30757WAT     H192513   3.305   2.771   9.731
30757WAT     H292514   3.315   2.833   9.881
30758WAT      O92515   4.852   9.466   2.072
30758WAT     H192516   4.926   9.514   2.120
30758WAT     H292517   4.768   9.519   2.080
30759WAT      O92518   9.605   6.658   1.781
30759WAT     H192519   9.570   6.565   1.765
30759WAT     H292520   9.546   6.704   1.848
30760WAT      O92521   5.975   3.066   5.290
30760WAT     H192522   5.998   3.006   5.213
30760WAT     H292523   5.899   3.126   5.264
30761WAT      O92524   0.596   1.383   9.720
30761WAT     H192525   0.632   1.299   9.760
30761WAT     H292526   0.497   1.386   9.733
30762WAT      O92527   2.430   3.038   6.755
30762WAT     H192528   2.420   3.048   6.656
30762WAT     H292529   2.343   3.058   6.799
30763WAT      O92530   2.716   2.596   8.316
30763WAT     H192531   2.805   2.615   8.358
30763WAT     H292532   2.730   2.553   8.227
30764WAT      O92533   6.466   4.002   0.266
30764WAT     H192534   6.499   4.027   0.357
30764WAT     H292535   6.427   4.082   0.221
30765WAT      O92536   7.284   2.641   4.546
30765WAT     H192537   7.343   2.576   4.498
30765WAT     H292538   7.298   2.633   4.645
30766WAT      O92539   2.102   3.393   4.784
30766WAT     H192540   2.024   3.455   4.771
30766WAT     H292541   2.072   3.298   4.771
30767WAT      O92542   5.965   6.454   5.421
30767WAT     H192543   5.993   6.546   5.394
30767WAT     H292544   6.038   6.411   5.473
30768WAT      O92545   0.354   2.897   5.988
30768WAT     H192546   0.426   2.924   6.053
30768WAT     H292547   0.379   2.928   5.896
30769WAT      O92548   9.271   0.458   6.490
30769WAT     H192549   9.218   0.543   6.481
30769WAT     H292550   9.211   0.380   6.479
30770WAT      O92551   0.894   4.761   7.069
30770WAT     H192552   0.965   4.716   7.015
30770WAT     H292553   0.806   4.751   7.024
30771WAT      O92554   0.079   0.250   3.727
30771WAT     H192555   0.008   0.184   3.702
30771WAT     H292556   0.165   0.225   3.681
30772WAT      O92557   2.572   7.864   7.813
30772WAT     H192558   2.658   7.886   7.858
30772WAT     H292559   2.496   7.905   7.864
30773WAT      O92560   7.942   9.160   5.223
30773WAT     H192561   7.906   9.159   5.317
30773WAT     H292562   8.040   9.142   5.225
30774WAT      O92563   5.467   4.497   5.952
30774WAT     H192564   5.469   4.480   6.050
30774WAT     H292565   5.561   4.502   5.917
30775WAT      O92566   9.670   6.220   1.489
30775WAT     H192567   9.722   6.136   1.504
30775WAT     H292568   9.681   6.249   1.393
30776WAT      O92569   1.438   9.810   9.332
30776WAT     H192570   1.441   9.778   9.237
30776WAT     H292571   1.464   9.734   9.393
30777WAT      O92572   4.546   7.207   3.054
30777WAT     H192573   4.493   7.131   3.017
30777WAT     H292574   4.643   7.180   3.059
30778WAT      O92575   0.150   3.855   9.596
30778WAT     H192576   0.108   3.945   9.582
30778WAT     H292577   0.079   3.788   9.618
30779WAT      O92578   8.816   0.594   2.921
30779WAT     H192579   8.800   0.693   2.930
30779WAT     H292580   8.809   0.568   2.824
30780WAT      O92581   3.194   9.557   6.735
30780WAT     H192582   3.138   9.474   6.733
30780WAT     H292583   3.135   9.637   6.742
30781WAT      O92584   6.325   5.303   3.242
30781WAT     H192585   6.384   5.297   3.323
30781WAT     H292586   6.302   5.211   3.210
30782WAT      O92587   8.721   7.817   7.793
30782WAT     H192588   8.655   7.742   7.796
30782WAT     H292589   8.810   7.784   7.823
30783WAT      O92590   8.945   8.761   0.279
30783WAT     H192591   8.968   8.814   0.361
30783WAT     H292592   8.919   8.668   0.305
30784WAT      O92593   5.709   2.495   8.906
30784WAT     H192594   5.700   2.395   8.908
30784WAT     H292595   5.699   2.531   8.999
30785WAT      O92596   5.092   9.300   3.270
30785WAT     H192597   5.121   9.274   3.178
30785WAT     H292598   5.125   9.392   3.290
30786WAT      O92599   7.050   8.021   9.681
30786WAT     H192600   7.135   8.040   9.731
30786WAT     H292601   7.069   8.017   9.583
30787WAT      O92602   4.698   0.166   2.814
30787WAT     H192603   4.679   0.178   2.911
30787WAT     H292604   4.633   0.219   2.760
30788WAT      O92605   9.496   1.336   1.621
30788WAT     H192606   9.558   1.289   1.684
30788WAT     H292607   9.402   1.325   1.653
30789WAT      O92608   7.334   4.065   8.004
30789WAT     H192609   7.264   4.074   7.934
30789WAT     H292610   7.330   4.144   8.065
30790WAT      O92611   0.569   8.452   1.640
30790WAT     H192612   0.565   8.476   1.737
30790WAT     H292613   0.611   8.526   1.589
30791WAT      O92614   0.040   6.513   2.212
30791WAT     H192615   0.035   6.415   2.193
30791WAT     H292616   0.114   6.554   2.158
30792WAT      O92617   6.926   4.219   6.193
30792WAT     H192618   6.827   4.226   6.199
30792WAT     H292619   6.966   4.222   6.285
30793WAT      O92620   9.176   0.299   6.078
30793WAT     H192621   9.201   0.385   6.121
30793WAT     H292622   9.085   0.271   6.109
30794WAT      O92623   5.320   7.883   5.889
30794WAT     H192624   5.383   7.886   5.967
30794WAT     H292625   5.231   7.917   5.917
30795WAT      O92626   8.056   9.189   1.802
30795WAT     H192627   8.107   9.107   1.827
30795WAT     H292628   7.967   9.164   1.766
30796WAT      O92629   7.963   0.242   4.645
30796WAT     H192630   7.986   0.174   4.716
30796WAT     H292631   7.939   0.329   4.689
30797WAT      O92632   2.401   7.410   3.513
30797WAT     H192633   2.375   7.371   3.425
30797WAT     H292634   2.489   7.458   3.504
30798WAT      O92635   7.608   0.748   6.354
30798WAT     H192636   7.671   0.788   6.288
30798WAT     H292637   7.659   0.708   6.430
30799WAT      O92638   4.897   4.565   1.534
30799WAT     H192639   4.853   4.513   1.607
30799WAT     H292640   4.965   4.508   1.489
30800WAT      O92641   1.637   9.812   2.365
30800WAT     H192642   1.636   9.895   2.420
30800WAT     H292643   1.568   9.747   2.400
30801WAT      O92644   8.936   2.106   6.689
30801WAT     H192645   8.861   2.056   6.646
30801WAT     H292646   8.969   2.054   6.768
30802WAT      O92647   0.980   5.879   0.907
30802WAT     H192648   0.930   5.913   0.827
30802WAT     H292649   1.019   5.957   0.957
30803WAT      O92650   0.254   7.974   3.898
30803WAT     H192651   0.162   7.937   3.912
30803WAT     H292652   0.287   8.015   3.983
30804WAT      O92653   5.474   1.060   2.636
30804WAT     H192654   5.450   0.963   2.630
30804WAT     H292655   5.440   1.108   2.555
30805WAT      O92656   8.437   6.434   2.626
30805WAT     H192657   8.418   6.531   2.644
30805WAT     H292658   8.390   6.406   2.542
30806WAT      O92659   4.739   5.553   0.878
30806WAT     H192660   4.737   5.608   0.795
30806WAT     H292661   4.828   5.564   0.923
30807WAT      O92662   5.108   5.775   0.473
30807WAT     H192663   5.008   5.776   0.470
30807WAT     H292664   5.143   5.754   0.381
30808WAT      O92665   2.252   3.208   9.189
30808WAT     H192666   2.311   3.152   9.247
30808WAT     H292667   2.218   3.286   9.242
30809WAT      O92668   3.675   0.371   6.455
30809WAT     H192669   3.768   0.361   6.419
30809WAT     H292670   3.615   0.405   6.382
30810WAT      O92671   6.115   0.673   4.826
30810WAT     H192672   6.040   0.693   4.889
30810WAT     H292673   6.182   0.614   4.872
30811WAT      O92674   3.374   5.038   4.804
30811WAT     H192675   3.424   5.124   4.796
30811WAT     H292676   3.339   5.011   4.715
30812WAT      O92677   2.226   8.664   6.956
30812WAT     H192678   2.302   8.723   6.930
30812WAT     H292679   2.154   8.719   6.999
30813WAT      O92680   0.476   9.627   8.541
30813WAT     H192681   0.561   9.583   8.513
30813WAT     H292682   0.496   9.717   8.580
30814WAT      O92683   3.540   8.867   9.428
30814WAT     H192684   3.636   8.848   9.404
30814WAT     H292685   3.488   8.884   9.345
30815WAT      O92686   9.876   1.637   8.028
30815WAT     H192687   9.779   1.618   8.014
30815WAT     H292688   9.905   1.596   8.115
30816WAT      O92689   9.261   4.079   3.607
30816WAT     H192690   9.169   4.065   3.570
30816WAT     H292691   9.275   4.017   3.685
30817WAT      O92692   5.858   8.343   0.296
30817WAT     H192693   5.875   8.331   0.198
30817WAT     H292694   5.784   8.282   0.324
30818WAT      O92695   9.349   6.244   2.300
30818WAT     H192696   9.327   6.249   2.202
30818WAT     H292697   9.448   6.236   2.311
30819WAT      O92698   9.372   0.139   6.881
30819WAT     H192699   9.441   0.069   6.860
30819WAT     H292700   9.399   0.188   6.964
30820WAT      O92701   9.011   5.116   5.341
30820WAT     H192702   9.063   5.161   5.413
30820WAT     H292703   9.051   5.027   5.320
30821WAT      O92704   1.810   8.439   8.269
30821WAT     H192705   1.823   8.526   8.221
30821WAT     H292706   1.729   8.445   8.327
30822WAT      O92707   9.162   1.869   2.660
30822WAT     H192708   9.129   1.960   2.686
30822WAT     H292709   9.256   1.858   2.695
30823WAT      O92710   9.148   2.722   4.672
30823WAT     H192711   9.110   2.632   4.694
30823WAT     H292712   9.082   2.775   4.619
30824WAT      O92713   4.591   6.883   2.456
30824WAT     H192714   4.569   6.786   2.471
30824WAT     H292715   4.513   6.939   2.484
30825WAT      O92716   4.743   4.669   7.738
30825WAT     H192717   4.820   4.619   7.778
30825WAT     H292718   4.763   4.767   7.741
30826WAT      O92719   3.608   4.332   8.945
30826WAT     H192720   3.552   4.393   9.002
30826WAT     H292721   3.552   4.294   8.872
30827WAT      O92722   9.694   8.702   7.451
30827WAT     H192723   9.632   8.739   7.520
30827WAT     H292724   9.761   8.643   7.496
30828WAT      O92725   1.608   5.933   9.699
30828WAT     H192726   1.551   5.877   9.759
30828WAT     H292727   1.624   6.022   9.742
30829WAT      O92728   0.471   2.934   0.747
30829WAT     H192729   0.441   2.894   0.833
30829WAT     H292730   0.570   2.948   0.748
30830WAT      O92731   4.292   9.267   7.400
30830WAT     H192732   4.232   9.281   7.321
30830WAT     H292733   4.285   9.173   7.431
30831WAT      O92734   3.045   8.889   8.583
30831WAT     H192735   3.014   8.977   8.547
30831WAT     H292736   3.082   8.902   8.675
30832WAT      O92737   4.802   1.694   8.673
30832WAT     H192738   4.773   1.785   8.644
30832WAT     H292739   4.896   1.698   8.707
30833WAT      O92740   7.974   0.582   9.239
30833WAT     H192741   8.016   0.579   9.330
30833WAT     H292742   8.034   0.630   9.176
30834WAT      O92743   9.136   1.369   8.735
30834WAT     H192744   9.070   1.301   8.703
30834WAT     H292745   9.119   1.457   8.692
30835WAT      O92746   0.836   8.216   7.931
30835WAT     H192747   0.795   8.306   7.945
30835WAT     H292748   0.776   8.145   7.969
30836WAT      O92749   8.882   4.220   1.316
30836WAT     H192750   8.980   4.241   1.309
30836WAT     H292751   8.833   4.302   1.343
30837WAT      O92752   8.028   3.762   2.842
30837WAT     H192753   8.114   3.812   2.827
30837WAT     H292754   8.041   3.667   2.816
30838WAT      O92755   7.686   3.672   3.498
30838WAT     H192756   7.715   3.733   3.571
30838WAT     H292757   7.720   3.706   3.410
30839WAT      O92758   0.800   7.614   3.630
30839WAT     H192759   0.741   7.644   3.555
30839WAT     H292760   0.861   7.542   3.597
30840WAT      O92761   1.767   1.343   3.024
30840WAT     H192762   1.759   1.244   3.012
30840WAT     H292763   1.794   1.386   2.938
30841WAT      O92764   1.223   8.194   4.563
30841WAT     H192765   1.183   8.230   4.647
30841WAT     H292766   1.279   8.264   4.520
30842WAT      O92767   2.968   7.335   9.664
30842WAT     H192768   3.006   7.307   9.752
30842WAT     H292769   2.952   7.254   9.607
30843WAT      O92770   7.058   4.393   0.123
30843WAT     H192771   7.052   4.446   0.038
30843WAT     H292772   7.090   4.452   0.197
30844WAT      O92773   6.328   6.950   4.999
30844WAT     H192774   6.256   6.990   5.057
30844WAT     H292775   6.289   6.875   4.946
30845WAT      O92776   9.042   5.287   7.137
30845WAT     H192777   8.978   5.319   7.068
30845WAT     H292778   9.131   5.332   7.123
30846WAT      O92779   8.039   8.168   6.982
30846WAT     H192780   8.033   8.261   7.020
30846WAT     H292781   8.122   8.160   6.928
30847WAT      O92782   9.800   7.707   7.096
30847WAT     H192783   9.764   7.797   7.118
30847WAT     H292784   9.786   7.645   7.173
30848WAT      O92785   4.702   3.509   6.387
30848WAT     H192786   4.627   3.486   6.448
30848WAT     H292787   4.755   3.584   6.426
30849WAT      O92788   4.278   8.464   3.494
30849WAT     H192789   4.372   8.458   3.530
30849WAT     H292790   4.220   8.510   3.560
30850WAT      O92791   0.794   2.750   4.648
30850WAT     H192792   0.730   2.687   4.604
30850WAT     H292793   0.882   2.747   4.601
30851WAT      O92794   4.700   4.835   8.366
30851WAT     H192795   4.605   4.808   8.349
30851WAT     H292796   4.723   4.914   8.309
30852WAT      O92797   5.444   4.413   5.307
30852WAT     H192798   5.418   4.440   5.215
30852WAT     H292799   5.398   4.473   5.374
30853WAT      O92800   1.653   6.523   1.539
30853WAT     H192801   1.749   6.508   1.516
30853WAT     H292802   1.609   6.576   1.466
30854WAT      O92803   6.305   3.557   7.380
30854WAT     H192804   6.402   3.538   7.394
30854WAT     H292805   6.286   3.652   7.404
30855WAT      O92806   9.666   6.770   8.749
30855WAT     H192807   9.635   6.705   8.818
30855WAT     H292808   9.593   6.783   8.681
30856WAT      O92809   2.104   9.604   1.462
30856WAT     H192810   2.138   9.679   1.405
30856WAT     H292811   2.042   9.640   1.532
30857WAT      O92812   7.933   7.279   6.806
30857WAT     H192813   7.866   7.295   6.733
30857WAT     H292814   8.018   7.246   6.766
30858WAT      O92815   4.014   8.280   9.343
30858WAT     H192816   3.984   8.296   9.249
30858WAT     H292817   3.955   8.331   9.406
30859WAT      O92818   3.105   1.817   4.697
30859WAT     H192819   3.129   1.738   4.640
30859WAT     H292820   3.006   1.821   4.709
30860WAT      O92821   7.234   6.360   7.042
30860WAT     H192822   7.273   6.442   7.000
30860WAT     H292823   7.191   6.304   6.971
30861WAT      O92824   0.668   4.789   2.545
30861WAT     H192825   0.706   4.711   2.496
30861WAT     H292826   0.738   4.829   2.604
30862WAT      O92827   3.092   8.854   0.431
30862WAT     H192828   3.177   8.847   0.482
30862WAT     H292829   3.112   8.850   0.333
30863WAT      O92830   1.167   9.197   1.164
30863WAT     H192831   1.256   9.157   1.140
30863WAT     H292832   1.170   9.230   1.258
30864WAT      O92833   3.094   1.441   1.179
30864WAT     H192834   3.121   1.510   1.113
30864WAT     H292835   2.995   1.428   1.174
30865WAT      O92836   0.265   7.087   5.841
30865WAT     H192837   0.270   7.064   5.744
30865WAT     H292838   0.173   7.122   5.861
30866WAT      O92839   9.681   7.557   2.266
30866WAT     H192840   9.605   7.596   2.318
30866WAT     H292841   9.720   7.479   2.316
30867WAT      O92842   9.399   1.203   2.584
30867WAT     H192843   9.360   1.221   2.493
30867WAT     H292844   9.402   1.288   2.636
30868WAT      O92845   2.215   3.662   2.838
30868WAT     H192846   2.130   3.714   2.850
30868WAT     H292847   2.214   3.582   2.899
30869WAT      O92848   3.963   6.693   4.647
30869WAT     H192849   4.056   6.715   4.676
30869WAT     H292850   3.917   6.641   4.720
30870WAT      O92851   9.851   3.162   8.177
30870WAT     H192852   9.817   3.119   8.094
30870WAT     H292853   9.778   3.213   8.222
30871WAT      O92854   8.521   0.520   1.171
30871WAT     H192855   8.452   0.453   1.143
30871WAT     H292856   8.522   0.595   1.105
30872WAT      O92857   8.679   7.262   3.767
30872WAT     H192858   8.720   7.208   3.840
30872WAT     H292859   8.583   7.279   3.787
30873WAT      O92860   5.827   7.865   3.849
30873WAT     H192861   5.907   7.922   3.832
30873WAT     H292862   5.745   7.923   3.851
30874WAT      O92863   2.919   4.633   7.940
30874WAT     H192864   2.907   4.545   7.986
30874WAT     H292865   2.831   4.664   7.902
30875WAT      O92866   9.706   2.385   6.241
30875WAT     H192867   9.677   2.340   6.326
30875WAT     H292868   9.791   2.344   6.209
30876WAT      O92869   5.450   0.129   0.255
30876WAT     H192870   5.490   0.164   0.340
30876WAT     H292871   5.426   0.206   0.196
30877WAT      O92872   5.593   3.876   9.683
30877WAT     H192873   5.540   3.956   9.710
30877WAT     H292874   5.596   3.870   9.584
30878WAT      O92875   9.428   3.835   6.275
30878WAT     H192876   9.466   3.871   6.190
30878WAT     H292877   9.484   3.758   6.307
30879WAT      O92878   6.689   9.814   3.407
30879WAT     H192879   6.732   9.900   3.377
30879WAT     H292880   6.708   9.800   3.504
30880WAT      O92881   1.853   8.810   8.408
30880WAT     H192882   1.947   8.836   8.386
30880WAT     H292883   1.852   8.715   8.440
30881WAT      O92884   7.727   7.440   1.164
30881WAT     H192885   7.657   7.371   1.142
30881WAT     H292886   7.813   7.394   1.186
30882WAT      O92887   7.817   0.249   1.252
30882WAT     H192888   7.742   0.267   1.189
30882WAT     H292889   7.814   0.315   1.327
30883WAT      O92890   4.808   5.277   6.617
30883WAT     H192891   4.833   5.192   6.662
30883WAT     H292892   4.710   5.294   6.631
30884WAT      O92893   5.138   4.630   3.122
30884WAT     H192894   5.184   4.551   3.082
30884WAT     H292895   5.045   4.604   3.148
30885WAT      O92896   8.671   3.078   0.262
30885WAT     H192897   8.723   3.130   0.329
30885WAT     H292898   8.583   3.122   0.247
30886WAT      O92899   3.979   9.700   6.453
30886WAT     H192900   4.026   9.758   6.386
30886WAT     H292901   3.912   9.754   6.504
30887WAT      O92902   0.461   3.481   5.445
30887WAT     H192903   0.486   3.558   5.504
30887WAT     H292904   0.522   3.479   5.366
30888WAT      O92905   1.379   3.403   2.149
30888WAT     H192906   1.323   3.476   2.189
30888WAT     H292907   1.322   3.321   2.136
30889WAT      O92908   4.360   5.595   7.657
30889WAT     H192909   4.349   5.503   7.695
30889WAT     H292910   4.451   5.605   7.618
30890WAT      O92911   4.091   4.672   8.171
30890WAT     H192912   4.023   4.744   8.158
30890WAT     H292913   4.155   4.672   8.094
30891WAT      O92914   7.692   0.246   4.807
30891WAT     H192915   7.631   0.321   4.783
30891WAT     H292916   7.681   0.171   4.742
30892WAT      O92917   9.114   5.139   3.907
30892WAT     H192918   9.188   5.106   3.966
30892WAT     H292919   9.098   5.072   3.834
30893WAT      O92920   9.340   3.873   9.195
30893WAT     H192921   9.431   3.902   9.167
30893WAT     H292922   9.280   3.952   9.201
30894WAT      O92923   4.123   6.304   1.323
30894WAT     H192924   4.146   6.281   1.229
30894WAT     H292925   4.201   6.348   1.367
30895WAT      O92926   5.153   3.787   8.505
30895WAT     H192927   5.238   3.817   8.463
30895WAT     H292928   5.166   3.775   8.604
30896WAT      O92929   4.329   8.143   0.850
30896WAT     H192930   4.298   8.057   0.810
30896WAT     H292931   4.343   8.132   0.949
30897WAT      O92932   1.535   4.902   0.824
30897WAT     H192933   1.619   4.929   0.776
30897WAT     H292934   1.558   4.844   0.902
30898WAT      O92935   2.254   9.595   8.309
30898WAT     H192936   2.280   9.503   8.337
30898WAT     H292937   2.189   9.633   8.375
30899WAT      O92938   0.681   7.999   9.676
30899WAT     H192939   0.667   8.048   9.590
30899WAT     H292940   0.776   7.968   9.681
30900WAT      O92941   6.945   4.578   3.641
30900WAT     H192942   6.944   4.675   3.665
30900WAT     H292943   7.025   4.535   3.682
30901WAT      O92944   0.270   4.518   8.959
30901WAT     H192945   0.294   4.479   8.870
30901WAT     H292946   0.183   4.567   8.951
30902WAT      O92947   8.913   7.305   2.134
30902WAT     H192948   8.913   7.265   2.226
30902WAT     H292949   8.833   7.363   2.123
30903WAT      O92950   9.697   5.555   5.961
30903WAT     H192951   9.768   5.491   5.934
30903WAT     H292952   9.617   5.543   5.902
30904WAT      O92953   0.641   6.508   5.933
30904WAT     H192954   0.738   6.488   5.920
30904WAT     H292955   0.611   6.475   6.023
30905WAT      O92956   6.291   1.654   2.825
30905WAT     H192957   6.208   1.665   2.771
30905WAT     H292958   6.355   1.594   2.777
30906WAT      O92959   9.573   5.780   5.066
30906WAT     H192960   9.564   5.829   4.980
30906WAT     H292961   9.669   5.766   5.087
30907WAT      O92962   2.666   3.502   6.319
30907WAT     H192963   2.690   3.518   6.223
30907WAT     H292964   2.732   3.439   6.359
30908WAT      O92965   1.015   7.403   3.852
30908WAT     H192966   1.060   7.459   3.782
30908WAT     H292967   0.954   7.461   3.906
30909WAT      O92968   4.795   9.155   3.579
30909WAT     H192969   4.752   9.244   3.595
30909WAT     H292970   4.836   9.122   3.664
30910WAT      O92971   7.706   4.572   8.948
30910WAT     H192972   7.672   4.484   8.915
30910WAT     H292973   7.660   4.596   9.034
30911WAT      O92974   1.971   7.987   4.147
30911WAT     H192975   1.912   7.952   4.074
30911WAT     H292976   2.003   8.078   4.123
30912WAT      O92977   4.184   9.210   3.232
30912WAT     H192978   4.250   9.285   3.240
30912WAT     H292979   4.178   9.161   3.319
30913WAT      O92980   5.892   1.952   1.071
30913WAT     H192981   5.962   1.881   1.062
30913WAT     H292982   5.832   1.931   1.148
30914WAT      O92983   3.889   5.093   1.936
30914WAT     H192984   3.887   5.012   1.995
30914WAT     H292985   3.796   5.125   1.919
30915WAT      O92986   3.828   1.927   4.274
30915WAT     H192987   3.886   1.998   4.235
30915WAT     H292988   3.808   1.858   4.204
30916WAT      O92989   5.203   3.984   9.636
30916WAT     H192990   5.239   3.901   9.678
30916WAT     H292991   5.211   4.060   9.701
30917WAT      O92992   9.146   8.780   6.325
30917WAT     H192993   9.108   8.842   6.394
30917WAT     H292994   9.232   8.818   6.290
30918WAT      O92995   5.133   9.632   1.289
30918WAT     H192996   5.169   9.540   1.271
30918WAT     H292997   5.187   9.699   1.239
30919WAT      O92998   0.452   5.079   3.121
30919WAT     H192999   0.383   5.013   3.151
30919WAT     H293000   0.451   5.159   3.181
30920WAT      O93001   6.190   0.137   3.530
30920WAT     H193002   6.224   0.123   3.437
30920WAT     H293003   6.132   0.218   3.532
30921WAT      O93004   5.648   5.154   4.023
30921WAT     H193005   5.646   5.135   4.121
30921WAT     H293006   5.742   5.148   3.990
30922WAT      O93007   2.934   5.253   0.765
30922WAT     H193008   3.029   5.231   0.744
30922WAT     H293009   2.917   5.349   0.743
30923WAT      O93010   2.666   6.015   3.858
30923WAT     H193011   2.670   6.091   3.794
30923WAT     H293012   2.698   6.044   3.948
30924WAT      O93013   2.889   1.458   2.507
30924WAT     H193014   2.863   1.380   2.450
30924WAT     H293015   2.824   1.533   2.492
30925WAT      O93016   4.092   9.707   6.766
30925WAT     H193017   4.036   9.682   6.686
30925WAT     H293018   4.163   9.638   6.779
30926WAT      O93019   4.548   2.646   9.132
30926WAT     H193020   4.490   2.571   9.165
30926WAT     H293021   4.496   2.731   9.133
30927WAT      O93022   5.404   9.071   0.927
30927WAT     H193023   5.476   9.107   0.986
30927WAT     H293024   5.414   8.972   0.920
30928WAT      O93025   8.708   0.273   9.154
30928WAT     H193026   8.712   0.182   9.195
30928WAT     H293027   8.612   0.299   9.141
30929WAT      O93028   3.681   8.680   3.602
30929WAT     H193029   3.724   8.619   3.669
30929WAT     H293030   3.708   8.775   3.622
30930WAT      O93031   1.285   2.462   4.993
30930WAT     H193032   1.369   2.469   5.048
30930WAT     H293033   1.262   2.552   4.956
30931WAT      O93034   1.117   1.473   0.273
30931WAT     H193035   1.068   1.558   0.293
30931WAT     H293036   1.060   1.395   0.299
30932WAT      O93037   3.620   0.364   3.340
30932WAT     H193038   3.703   0.410   3.309
30932WAT     H293039   3.607   0.382   3.437
30933WAT      O93040   9.756   8.848   4.980
30933WAT     H193041   9.805   8.904   5.047
30933WAT     H293042   9.726   8.906   4.904
30934WAT      O93043   8.221   2.444   3.340
30934WAT     H193044   8.221   2.424   3.242
30934WAT     H293045   8.291   2.390   3.386
30935WAT      O93046   2.446   5.122   8.921
30935WAT     H193047   2.392   5.199   8.955
30935WAT     H293048   2.515   5.098   8.988
30936WAT      O93049   5.554   9.487   1.916
30936WAT     H193050   5.502   9.403   1.902
30936WAT     H293051   5.492   9.558   1.951
30937WAT      O93052   0.324   4.781   4.235
30937WAT     H193053   0.279   4.868   4.254
30937WAT     H293054   0.314   4.759   4.138
30938WAT      O93055   7.380   7.825   1.528
30938WAT     H193056   7.372   7.889   1.605
30938WAT     H293057   7.336   7.864   1.447
30939WAT      O93058   1.197   7.293   2.266
30939WAT     H193059   1.176   7.390   2.250
30939WAT     H293060   1.283   7.286   2.316
30940WAT      O93061   1.603   3.579   9.400
30940WAT     H193062   1.517   3.574   9.350
30940WAT     H293063   1.601   3.515   9.477
30941WAT      O93064   6.491   9.346   3.184
30941WAT     H193065   6.550   9.412   3.139
30941WAT     H293066   6.402   9.343   3.137
30942WAT      O93067   3.142   1.536   4.589
30942WAT     H193068   3.110   1.481   4.513
30942WAT     H293069   3.218   1.593   4.560
30943WAT      O93070   2.052   5.893   9.283
30943WAT     H193071   2.079   5.896   9.379
30943WAT     H293072   2.124   5.935   9.227
30944WAT      O93073   2.838   6.720   9.279
30944WAT     H193074   2.748   6.691   9.311
30944WAT     H293075   2.855   6.815   9.306
30945WAT      O93076   5.256   6.589   7.985
30945WAT     H193077   5.208   6.513   7.940
30945WAT     H293078   5.323   6.552   8.049
30946WAT      O93079   0.124   6.680   7.316
30946WAT     H193080   0.184   6.606   7.345
30946WAT     H293081   0.178   6.760   7.291
30947WAT      O93082   6.881   6.253   3.436
30947WAT     H193083   6.880   6.320   3.510
30947WAT     H293084   6.873   6.301   3.348
30948WAT      O93085   6.851   1.952   2.732
30948WAT     H193086   6.848   1.963   2.632
30948WAT     H293087   6.938   1.986   2.766
30949WAT      O93088   6.882   0.579   1.516
30949WAT     H193089   6.938   0.641   1.571
30949WAT     H293090   6.830   0.632   1.448
30950WAT      O93091   7.148   1.715   6.411
30950WAT     H193092   7.144   1.716   6.511
30950WAT     H293093   7.243   1.707   6.382
30951WAT      O93094   1.645   2.858   8.031
30951WAT     H193095   1.631   2.924   8.106
30951WAT     H293096   1.593   2.887   7.951
30952WAT      O93097   0.410   0.761   0.047
30952WAT     H193098   0.331   0.757   0.109
30952WAT     H293099   0.392   0.828  -0.025
30953WAT      O93100   6.493   3.450   0.287
30953WAT     H193101   6.576   3.402   0.259
30953WAT     H293102   6.458   3.408   0.371
30954WAT      O93103   1.977   1.317   3.596
30954WAT     H193104   1.933   1.351   3.513
30954WAT     H293105   1.951   1.221   3.611
30955WAT      O93106   9.421   9.613   2.095
30955WAT     H193107   9.505   9.618   2.150
30955WAT     H293108   9.413   9.695   2.038
30956WAT      O93109   1.055   7.280   1.588
30956WAT     H193110   0.968   7.276   1.540
30956WAT     H293111   1.111   7.354   1.550
30957WAT      O93112   7.167   3.265   4.912
30957WAT     H193113   7.201   3.196   4.848
30957WAT     H293114   7.136   3.345   4.861
30958WAT      O93115   1.017   3.015   8.343
30958WAT     H193116   1.056   3.006   8.252
30958WAT     H293117   0.935   3.072   8.339
30959WAT      O93118   4.619   8.317   7.292
30959WAT     H193119   4.591   8.243   7.353
30959WAT     H293120   4.718   8.325   7.292
30960WAT      O93121   9.739   9.473   5.699
30960WAT     H193122   9.802   9.539   5.739
30960WAT     H293123   9.645   9.503   5.715
30961WAT      O93124   9.728   9.400   8.762
30961WAT     H193125   9.775   9.426   8.678
30961WAT     H293126   9.629   9.402   8.746
30962WAT      O93127   4.126   3.612   1.833
30962WAT     H193128   4.085   3.693   1.791
30962WAT     H293129   4.224   3.626   1.845
30963WAT      O93130   2.393   2.493   5.369
30963WAT     H193131   2.458   2.490   5.293
30963WAT     H293132   2.385   2.586   5.403
30964WAT      O93133   9.164  -0.005   4.015
30964WAT     H193134   9.189   0.042   4.099
30964WAT     H293135   9.199   0.046   3.936
30965WAT      O93136   4.320   1.374   7.442
30965WAT     H193137   4.268   1.373   7.357
30965WAT     H293138   4.301   1.290   7.493
30966WAT      O93139   7.904   8.672   4.288
30966WAT     H193140   7.875   8.703   4.379
30966WAT     H293141   7.995   8.709   4.267
30967WAT      O93142   3.035   4.409   0.911
30967WAT     H193143   3.012   4.506   0.901
30967WAT     H293144   3.053   4.370   0.821
30968WAT      O93145   0.000   8.103   7.934
30968WAT     H193146   0.054   8.036   7.985
30968WAT     H293147   0.057   8.182   7.912
30969WAT      O93148   9.394   7.322   5.448
30969WAT     H193149   9.462   7.395   5.454
30969WAT     H293150   9.331   7.341   5.373
30970WAT      O93151   3.156   1.216   7.273
30970WAT     H193152   3.238   1.226   7.328
30970WAT     H293153   3.130   1.305   7.235
30971WAT      O93154   1.229   1.644   6.996
30971WAT     H193155   1.178   1.727   7.014
30971WAT     H293156   1.273   1.612   7.080
30972WAT      O93157   5.614   0.413   7.080
30972WAT     H193158   5.633   0.347   7.152
30972WAT     H293159   5.697   0.427   7.025
30973WAT      O93160   4.685   4.922   4.918
30973WAT     H193161   4.603   4.864   4.918
30973WAT     H293162   4.657   5.018   4.915
30974WAT      O93163   7.277   9.567   5.118
30974WAT     H193164   7.220   9.637   5.160
30974WAT     H293165   7.220   9.491   5.088
30975WAT      O93166   9.222   4.506   1.184
30975WAT     H193167   9.305   4.534   1.232
30975WAT     H293168   9.174   4.437   1.237
30976WAT      O93169   7.992   5.750   6.172
30976WAT     H193170   7.955   5.817   6.108
30976WAT     H293171   8.075   5.786   6.214
30977WAT      O93172   2.562   0.497   5.524
30977WAT     H193173   2.603   0.537   5.443
30977WAT     H293174   2.463   0.511   5.522
30978WAT      O93175   0.956   3.055   2.139
30978WAT     H193176   0.949   3.149   2.105
30978WAT     H293177   1.052   3.033   2.156
30979WAT      O93178   0.102   4.501   7.987
30979WAT     H193179   0.078   4.470   7.895
30979WAT     H293180   0.130   4.596   7.984
30980WAT      O93181   2.253   1.313   6.339
30980WAT     H193182   2.231   1.383   6.271
30980WAT     H293183   2.258   1.224   6.294
30981WAT      O93184   6.910   4.509   1.157
30981WAT     H193185   6.885   4.493   1.252
30981WAT     H293186   6.935   4.605   1.145
30982WAT      O93187   8.169   4.721   5.951
30982WAT     H193188   8.191   4.759   6.041
30982WAT     H293189   8.252   4.687   5.907
30983WAT      O93190   8.146   5.092   7.381
30983WAT     H193191   8.227   5.036   7.400
30983WAT     H293192   8.067   5.032   7.364
30984WAT      O93193   1.737   9.836   3.729
30984WAT     H193194   1.814   9.899   3.717
30984WAT     H293195   1.733   9.806   3.825
30985WAT      O93196   5.024   6.350   6.645
30985WAT     H193197   5.001   6.391   6.557
30985WAT     H293198   5.016   6.250   6.639
30986WAT      O93199   4.164   6.733   8.987
30986WAT     H193200   4.167   6.833   8.985
30986WAT     H293201   4.168   6.698   8.893
30987WAT      O93202   1.944   0.034   9.146
30987WAT     H193203   1.964  -0.032   9.073
30987WAT     H293204   1.845   0.050   9.149
30988WAT      O93205   6.614   6.140   5.909
30988WAT     H193206   6.539   6.139   5.974
30988WAT     H293207   6.698   6.169   5.955
30989WAT      O93208   4.928   0.683   4.443
30989WAT     H193209   4.929   0.719   4.536
30989WAT     H293210   5.019   0.692   4.403
30990WAT      O93211   2.498   6.506   7.311
30990WAT     H193212   2.595   6.488   7.300
30990WAT     H293213   2.462   6.548   7.228
30991WAT      O93214   6.820   5.545   1.019
30991WAT     H193215   6.736   5.600   1.010
30991WAT     H293216   6.899   5.602   0.998
30992WAT      O93217   9.274   0.402   4.131
30992WAT     H193218   9.199   0.418   4.067
30992WAT     H293219   9.360   0.396   4.080
30993WAT      O93220   7.473   9.689   0.652
30993WAT     H193221   7.376   9.684   0.674
30993WAT     H293222   7.521   9.610   0.692
30994WAT      O93223   9.825   3.234   3.091
30994WAT     H193224   9.732   3.198   3.099
30994WAT     H293225   9.834   3.287   3.008
30995WAT      O93226   2.917   9.168   6.694
30995WAT     H193227   2.858   9.112   6.751
30995WAT     H293228   2.864   9.207   6.618
30996WAT      O93229   7.442   7.358   2.280
30996WAT     H193230   7.463   7.271   2.236
30996WAT     H293231   7.519   7.421   2.271
30997WAT      O93232   5.186   2.576   2.924
30997WAT     H193233   5.121   2.516   2.877
30997WAT     H293234   5.272   2.526   2.939
30998WAT      O93235   0.260   0.824   4.144
30998WAT     H193236   0.344   0.874   4.166
30998WAT     H293237   0.239   0.836   4.047
30999WAT      O93238   7.290   7.992   1.717
30999WAT     H193239   7.198   8.028   1.699
30999WAT     H293240   7.353   8.069   1.728
31000WAT      O93241   4.955   3.116   7.549
31000WAT     H193242   4.982   3.042   7.610
31000WAT     H293243   5.026   3.130   7.480
31001WAT      O93244   4.141   4.454   4.450
31001WAT     H193245   4.202   4.375   4.456
31001WAT     H293246   4.046   4.424   4.451
31002WAT      O93247   8.313   4.041   7.340
31002WAT     H193248   8.301   4.114   7.407
31002WAT     H293249   8.298   4.078   7.248
31003WAT      O93250   7.206   7.602   8.847
31003WAT     H193251   7.238   7.546   8.771
31003WAT     H293252   7.276   7.670   8.870
31004WAT      O93253   9.289   6.095   8.762
31004WAT     H193254   9.216   6.162   8.778
31004WAT     H293255   9.268   6.043   8.679
31005WAT      O93256   2.296   3.118   7.355
31005WAT     H193257   2.393   3.125   7.333
31005WAT     H293258   2.250   3.064   7.285
31006WAT      O93259   6.163   4.321   3.304
31006WAT     H193260   6.145   4.304   3.207
31006WAT     H293261   6.125   4.410   3.329
31007WAT      O93262   0.220   6.976   0.754
31007WAT     H193263   0.211   6.893   0.700
31007WAT     H293264   0.316   6.991   0.776
31008WAT      O93265   3.551   1.054   3.825
31008WAT     H193266   3.454   1.079   3.818
31008WAT     H293267   3.590   1.048   3.734
31009WAT      O93268   1.854   5.423   6.577
31009WAT     H193269   1.908   5.506   6.570
31009WAT     H293270   1.763   5.439   6.539
31010WAT      O93271   6.998   3.644   8.326
31010WAT     H193272   7.064   3.593   8.271
31010WAT     H293273   7.042   3.727   8.361
31011WAT      O93274   3.009   0.718   5.789
31011WAT     H193275   2.968   0.735   5.878
31011WAT     H293276   3.100   0.761   5.786
31012WAT      O93277   4.385   5.776   1.764
31012WAT     H193278   4.481   5.760   1.789
31012WAT     H293279   4.329   5.701   1.798
31013WAT      O93280   8.925   6.343   7.373
31013WAT     H193281   8.904   6.334   7.470
31013WAT     H293282   8.841   6.332   7.320
31014WAT      O93283   7.095   8.709   5.773
31014WAT     H193284   7.190   8.729   5.746
31014WAT     H293285   7.077   8.752   5.862
31015WAT      O93286   9.371   5.956   1.269
31015WAT     H193287   9.399   5.998   1.355
31015WAT     H293288   9.278   5.985   1.247
31016WAT      O93289   8.993   0.263   2.801
31016WAT     H193290   8.989   0.294   2.896
31016WAT     H293291   9.050   0.182   2.794
31017WAT      O93292   6.585   8.152   6.037
31017WAT     H193293   6.574   8.250   6.054
31017WAT     H293294   6.538   8.127   5.952
31018WAT      O93295   0.758   2.432   6.318
31018WAT     H193296   0.855   2.450   6.332
31018WAT     H293297   0.715   2.510   6.274
31019WAT      O93298   6.329   5.418   9.745
31019WAT     H193299   6.412   5.472   9.759
31019WAT     H293300   6.316   5.402   9.647
31020WAT      O93301   9.159   5.337   6.492
31020WAT     H193302   9.088   5.407   6.483
31020WAT     H293303   9.127   5.265   6.554
31021WAT      O93304   3.013   4.980   9.010
31021WAT     H193305   3.100   4.963   9.057
31021WAT     H293306   3.031   4.994   8.912
31022WAT      O93307   7.804   5.556   7.027
31022WAT     H193308   7.785   5.478   7.086
31022WAT     H293309   7.752   5.635   7.058
31023WAT      O93310   0.072   0.064   8.758
31023WAT     H193311   0.161   0.026   8.784
31023WAT     H293312   0.013   0.069   8.838
31024WAT      O93313   3.722   5.316   4.943
31024WAT     H193314   3.819   5.295   4.953
31024WAT     H293315   3.690   5.366   5.024
31025WAT      O93316   1.013   1.402   8.302
31025WAT     H193317   1.075   1.481   8.303
31025WAT     H293318   1.010   1.361   8.393
31026WAT      O93319   3.570   3.380   5.353
31026WAT     H193320   3.601   3.468   5.315
31026WAT     H293321   3.490   3.348   5.303
31027WAT      O93322   5.831   3.525   1.522
31027WAT     H193323   5.771   3.552   1.447
31027WAT     H293324   5.909   3.475   1.485
31028WAT      O93325   0.396   8.834   5.558
31028WAT     H193326   0.409   8.763   5.489
31028WAT     H293327   0.303   8.827   5.595
31029WAT      O93328   3.441   7.756   9.712
31029WAT     H193329   3.387   7.781   9.792
31029WAT     H293330   3.414   7.812   9.634
31030WAT      O93331   8.545   9.447   8.082
31030WAT     H193332   8.619   9.437   8.148
31030WAT     H293333   8.528   9.544   8.064
31031WAT      O93334   1.122   0.463   0.709
31031WAT     H193335   1.197   0.489   0.769
31031WAT     H293336   1.143   0.491   0.615
31032WAT      O93337   4.312   6.238   5.287
31032WAT     H193338   4.296   6.154   5.340
31032WAT     H293339   4.359   6.305   5.345
31033WAT      O93340   1.502   4.276   6.728
31033WAT     H193341   1.570   4.335   6.773
31033WAT     H293342   1.414   4.324   6.724
31034WAT      O93343   0.676   2.602   9.688
31034WAT     H193344   0.748   2.664   9.719
31034WAT     H293345   0.654   2.622   9.593
31035WAT      O93346   4.157   4.223   0.339
31035WAT     H193347   4.220   4.301   0.333
31035WAT     H293348   4.209   4.141   0.364
31036WAT      O93349   4.647   1.567   1.125
31036WAT     H193350   4.686   1.600   1.039
31036WAT     H293351   4.549   1.553   1.114
31037WAT      O93352   9.437   3.788   2.827
31037WAT     H193353   9.424   3.853   2.902
31037WAT     H293354   9.422   3.695   2.861
31038WAT      O93355   9.350   7.076   5.487
31038WAT     H193356   9.354   7.173   5.463
31038WAT     H293357   9.419   7.056   5.556
31039WAT      O93358   8.603   8.075   9.085
31039WAT     H193359   8.546   8.150   9.119
31039WAT     H293360   8.672   8.052   9.154
31040WAT      O93361   0.453   0.430   6.742
31040WAT     H193362   0.551   0.408   6.736
31040WAT     H293363   0.439   0.525   6.715
31041WAT      O93364   0.729   0.760   5.640
31041WAT     H193365   0.655   0.699   5.670
31041WAT     H293366   0.698   0.855   5.643
31042WAT      O93367   2.176   3.162   1.284
31042WAT     H193368   2.179   3.155   1.383
31042WAT     H293369   2.209   3.252   1.256
31043WAT      O93370   2.791   4.786   0.648
31043WAT     H193371   2.829   4.877   0.630
31043WAT     H293372   2.784   4.772   0.747
31044WAT      O93373   5.603   4.160   8.027
31044WAT     H193374   5.515   4.117   8.006
31044WAT     H293375   5.597   4.258   8.009
31045WAT      O93376   1.419   7.206   3.719
31045WAT     H193377   1.484   7.146   3.766
31045WAT     H293378   1.420   7.296   3.761
31046WAT      O93379   8.293   9.449   8.801
31046WAT     H193380   8.223   9.403   8.746
31046WAT     H293381   8.308   9.541   8.767
31047WAT      O93382   1.073   6.964   7.644
31047WAT     H193383   0.997   7.001   7.697
31047WAT     H293384   1.055   6.976   7.546
31048WAT      O93385   9.629   8.193   7.947
31048WAT     H193386   9.614   8.209   7.849
31048WAT     H293387   9.714   8.143   7.960
31049WAT      O93388   5.274   1.981   2.962
31049WAT     H193389   5.229   2.069   2.975
31049WAT     H293390   5.351   1.992   2.899
31050WAT      O93391   4.926   2.189   2.643
31050WAT     H193392   4.923   2.146   2.733
31050WAT     H293393   5.015   2.171   2.600
31051WAT      O93394   6.874   5.308   0.729
31051WAT     H193395   6.809   5.383   0.741
31051WAT     H293396   6.967   5.341   0.743
31052WAT      O93397   2.791   2.767   2.972
31052WAT     H193398   2.855   2.742   3.044
31052WAT     H293399   2.727   2.691   2.956
31053WAT      O93400   7.262   1.975   4.571
31053WAT     H193401   7.263   1.980   4.671
31053WAT     H293402   7.353   1.996   4.536
31054WAT      O93403   3.125   6.757   4.141
31054WAT     H193404   3.135   6.657   4.147
31054WAT     H293405   3.212   6.798   4.115
31055WAT      O93406   8.186   3.078   6.997
31055WAT     H193407   8.140   2.990   6.991
31055WAT     H293408   8.212   3.110   6.906
31056WAT      O93409   2.472   8.389   3.371
31056WAT     H193410   2.469   8.290   3.352
31056WAT     H293411   2.451   8.405   3.467
31057WAT      O93412   6.811   1.589   9.805
31057WAT     H193413   6.765   1.615   9.890
31057WAT     H293414   6.888   1.529   9.827
31058WAT      O93415   8.624   3.662   5.901
31058WAT     H193416   8.555   3.591   5.893
31058WAT     H293417   8.581   3.747   5.930
31059WAT      O93418   2.709   4.344   1.174
31059WAT     H193419   2.695   4.415   1.105
31059WAT     H293420   2.806   4.317   1.175
31060WAT      O93421   0.442   2.299   6.711
31060WAT     H193422   0.492   2.313   6.625
31060WAT     H293423   0.425   2.388   6.754
31061WAT      O93424   8.337   9.525   4.050
31061WAT     H193425   8.255   9.548   4.104
31061WAT     H293426   8.392   9.459   4.102
31062WAT      O93427   2.144   8.620   8.201
31062WAT     H193428   2.115   8.525   8.185
31062WAT     H293429   2.244   8.623   8.204
31063WAT      O93430   9.182   7.821   7.279
31063WAT     H193431   9.240   7.893   7.316
31063WAT     H293432   9.092   7.858   7.258
31064WAT      O93433   2.400   5.923   7.260
31064WAT     H193434   2.468   5.910   7.188
31064WAT     H293435   2.336   5.846   7.261
31065WAT      O93436   8.347   3.921   9.228
31065WAT     H193437   8.335   3.849   9.159
31065WAT     H293438   8.412   3.889   9.297
31066WAT      O93439   5.755   9.810   0.319
31066WAT     H193440   5.835   9.764   0.357
31066WAT     H293441   5.681   9.810   0.386
31067WAT      O93442   4.967   8.942   1.237
31067WAT     H193443   5.043   8.897   1.191
31067WAT     H293444   5.001   9.021   1.288
31068WAT      O93445   4.844   2.755   8.162
31068WAT     H193446   4.817   2.772   8.068
31068WAT     H293447   4.813   2.664   8.190
31069WAT      O93448   5.835   0.626   0.217
31069WAT     H193449   5.904   0.585   0.277
31069WAT     H293450   5.863   0.613   0.121
31070WAT      O93451   7.567   7.835   7.987
31070WAT     H193452   7.497   7.864   7.923
31070WAT     H293453   7.617   7.915   8.021
31071WAT      O93454   3.655   5.027   3.801
31071WAT     H193455   3.699   5.088   3.735
31071WAT     H293456   3.645   5.074   3.889
31072WAT      O93457   2.084   4.615   1.415
31072WAT     H193458   2.179   4.644   1.430
31072WAT     H293459   2.080   4.515   1.408
31073WAT      O93460   4.727   0.809   8.209
31073WAT     H193461   4.712   0.861   8.293
31073WAT     H293462   4.638   0.788   8.167
31074WAT      O93463   1.218   0.123   3.006
31074WAT     H193464   1.164   0.140   3.089
31074WAT     H293465   1.306   0.170   3.014
31075WAT      O93466   0.940   6.822   0.770
31075WAT     H193467   0.930   6.771   0.684
31075WAT     H293468   0.856   6.875   0.787
31076WAT      O93469   6.538   0.925   0.734
31076WAT     H193470   6.513   0.831   0.712
31076WAT     H293471   6.456   0.982   0.736
31077WAT      O93472   6.844   3.802   1.527
31077WAT     H193473   6.909   3.794   1.452
31077WAT     H293474   6.892   3.801   1.614
31078WAT      O93475   3.699   3.634   9.220
31078WAT     H193476   3.641   3.613   9.141
31078WAT     H293477   3.793   3.647   9.189
31079WAT      O93478   7.374   6.047   1.575
31079WAT     H193479   7.303   6.108   1.541
31079WAT     H293480   7.376   5.964   1.518
31080WAT      O93481   0.760   1.577   2.786
31080WAT     H193482   0.810   1.612   2.866
31080WAT     H293483   0.758   1.477   2.790
31081WAT      O93484   9.186   3.325   5.544
31081WAT     H193485   9.175   3.382   5.626
31081WAT     H293486   9.282   3.297   5.536
31082WAT      O93487   5.521   5.469   6.981
31082WAT     H193488   5.606   5.521   6.972
31082WAT     H293489   5.536   5.376   6.948
31083WAT      O93490   5.519   6.200   8.114
31083WAT     H193491   5.487   6.290   8.143
31083WAT     H293492   5.618   6.194   8.129
31084WAT      O93493   1.375   5.914   3.721
31084WAT     H193494   1.472   5.899   3.705
31084WAT     H293495   1.331   5.826   3.742
31085WAT      O93496   7.950   8.121   1.474
31085WAT     H193497   7.854   8.126   1.445
31085WAT     H293498   7.972   8.202   1.528
31086WAT      O93499   4.198   1.607   7.781
31086WAT     H193500   4.107   1.623   7.742
31086WAT     H293501   4.196   1.629   7.879
31087WAT      O93502   5.388   8.175   5.889
31087WAT     H193503   5.400   8.077   5.906
31087WAT     H293504   5.426   8.228   5.965
31088WAT      O93505   7.160   7.209   7.727
31088WAT     H193506   7.089   7.200   7.658
31088WAT     H293507   7.162   7.303   7.761
31089WAT      O93508   6.285   3.636   1.497
31089WAT     H193509   6.351   3.565   1.522
31089WAT     H293510   6.267   3.694   1.576
31090WAT      O93511   2.731   8.788   0.371
31090WAT     H193512   2.631   8.788   0.372
31090WAT     H293513   2.763   8.868   0.318
31091WAT      O93514   1.656   0.699   3.818
31091WAT     H193515   1.712   0.617   3.812
31091WAT     H293516   1.650   0.742   3.727
31092WAT      O93517   5.602   9.223   3.313
31092WAT     H193518   5.510   9.248   3.343
31092WAT     H293519   5.613   9.123   3.319
31093WAT      O93520   8.194   3.711   9.508
31093WAT     H193521   8.228   3.804   9.516
31093WAT     H293522   8.272   3.647   9.512
31094WAT      O93523   7.025   6.782   4.810
31094WAT     H193524   7.020   6.832   4.897
31094WAT     H293525   7.064   6.691   4.826
31095WAT      O93526   3.951   1.983   1.152
31095WAT     H193527   3.914   2.046   1.221
31095WAT     H293528   3.875   1.939   1.104
31096WAT      O93529   4.391   1.271   5.966
31096WAT     H193530   4.489   1.258   5.950
31096WAT     H293531   4.376   1.359   6.010
31097WAT      O93532   7.760   0.122   9.684
31097WAT     H193533   7.775   0.027   9.712
31097WAT     H293534   7.686   0.126   9.618
31098WAT      O93535   4.709   7.016   5.679
31098WAT     H193536   4.726   6.920   5.657
31098WAT     H293537   4.780   7.073   5.637
31099WAT      O93538   7.254   5.457   7.776
31099WAT     H193539   7.244   5.476   7.874
31099WAT     H293540   7.344   5.489   7.745
31100WAT      O93541   4.254   0.295   5.771
31100WAT     H193542   4.337   0.263   5.726
31100WAT     H293543   4.184   0.224   5.767
31101WAT      O93544   4.606   5.914   8.867
31101WAT     H193545   4.618   5.820   8.836
31101WAT     H293546   4.516   5.923   8.910
31102WAT      O93547   8.724   8.339   0.506
31102WAT     H193548   8.681   8.376   0.588
31102WAT     H293549   8.663   8.272   0.463
31103WAT      O93550   4.096   9.816   0.891
31103WAT     H193551   4.040   9.886   0.849
31103WAT     H293552   4.037   9.748   0.936
31104WAT      O93553   0.661   4.484   5.373
31104WAT     H193554   0.668   4.571   5.423
31104WAT     H293555   0.749   4.462   5.333
31105WAT      O93556   2.373   6.785   3.832
31105WAT     H193557   2.366   6.705   3.891
31105WAT     H293558   2.467   6.819   3.834
31106WAT      O93559   1.313   7.597   8.812
31106WAT     H193560   1.287   7.689   8.783
31106WAT     H293561   1.320   7.537   8.732
31107WAT      O93562   0.723   6.115   8.445
31107WAT     H193563   0.628   6.084   8.453
31107WAT     H293564   0.773   6.092   8.528
31108WAT      O93565   2.548   5.723   9.709
31108WAT     H193566   2.589   5.674   9.632
31108WAT     H293567   2.488   5.796   9.675
31109WAT      O93568   2.153   7.142   4.974
31109WAT     H193569   2.214   7.132   5.053
31109WAT     H293570   2.076   7.079   4.983
31110WAT      O93571   1.772   6.812   1.641
31110WAT     H193572   1.832   6.824   1.562
31110WAT     H293573   1.681   6.783   1.610
31111WAT      O93574   3.695   3.491   8.165
31111WAT     H193575   3.635   3.445   8.099
31111WAT     H293576   3.665   3.585   8.177
31112WAT      O93577   4.308   7.483   4.804
31112WAT     H193578   4.325   7.389   4.775
31112WAT     H293579   4.337   7.495   4.899
31113WAT      O93580   7.045   2.014   9.439
31113WAT     H193581   6.948   2.038   9.437
31113WAT     H293582   7.088   2.055   9.519
31114WAT      O93583   0.705   0.778   0.893
31114WAT     H193584   0.768   0.762   0.817
31114WAT     H293585   0.740   0.851   0.951
31115WAT      O93586   8.264   7.118   3.021
31115WAT     H193587   8.260   7.094   2.924
31115WAT     H293588   8.216   7.049   3.075
31116WAT      O93589   5.246   2.579   0.375
31116WAT     H193590   5.153   2.583   0.410
31116WAT     H293591   5.267   2.485   0.348
31117WAT      O93592   3.202   6.835   3.618
31117WAT     H193593   3.261   6.770   3.665
31117WAT     H293594   3.125   6.786   3.576
31118WAT      O93595   0.609   4.800   9.773
31118WAT     H193596   0.701   4.779   9.808
31118WAT     H293597   0.587   4.737   9.699
31119WAT      O93598   3.336   8.123   2.090
31119WAT     H193599   3.342   8.049   2.157
31119WAT     H293600   3.335   8.211   2.137
31120WAT      O93601   8.271   7.199   7.941
31120WAT     H193602   8.232   7.278   7.988
31120WAT     H293603   8.208   7.121   7.949
31121WAT      O93604   1.013   9.012   0.545
31121WAT     H193605   0.988   8.976   0.455
31121WAT     H293606   1.008   9.112   0.543
31122WAT      O93607   6.854   3.739   7.343
31122WAT     H193608   6.915   3.719   7.420
31122WAT     H293609   6.828   3.836   7.346
31123WAT      O93610   1.017   3.364   2.852
31123WAT     H193611   0.995   3.402   2.942
31123WAT     H293612   1.076   3.284   2.863
31124WAT      O93613   9.443   7.253   0.354
31124WAT     H193614   9.525   7.266   0.299
31124WAT     H293615   9.362   7.279   0.302
31125WAT      O93616   3.018   3.585   5.432
31125WAT     H193617   3.085   3.574   5.359
31125WAT     H293618   2.931   3.614   5.393
31126WAT      O93619   4.903   8.759   9.436
31126WAT     H193620   4.871   8.680   9.488
31126WAT     H293621   5.003   8.760   9.435
31127WAT      O93622   5.509   5.968   4.368
31127WAT     H193623   5.464   6.031   4.431
31127WAT     H293624   5.494   5.998   4.274
31128WAT      O93625   5.503   6.044   9.721
31128WAT     H193626   5.444   6.052   9.642
31128WAT     H293627   5.448   6.048   9.805
31129WAT      O93628   5.868   0.971   1.685
31129WAT     H193629   5.936   0.907   1.648
31129WAT     H293630   5.796   0.985   1.617
31130WAT      O93631   7.513   1.516   4.436
31130WAT     H193632   7.513   1.522   4.336
31130WAT     H293633   7.454   1.587   4.473
31131WAT      O93634   2.146   4.105   9.852
31131WAT     H193635   2.173   4.187   9.903
31131WAT     H293636   2.209   4.091   9.776
31132WAT      O93637   5.969   8.000   3.251
31132WAT     H193638   5.992   8.006   3.348
31132WAT     H293639   5.875   8.032   3.238
31133WAT      O93640   5.866   0.970   7.647
31133WAT     H193641   5.923   0.927   7.577
31133WAT     H293642   5.896   0.939   7.738
31134WAT      O93643   6.487   7.866   5.394
31134WAT     H193644   6.549   7.799   5.434
31134WAT     H293645   6.506   7.956   5.434
31135WAT      O93646   4.275   3.683   8.561
31135WAT     H193647   4.210   3.716   8.492
31135WAT     H293648   4.354   3.745   8.565
31136WAT      O93649   3.885   7.979   0.297
31136WAT     H193650   3.881   8.042   0.220
31136WAT     H293651   3.934   7.896   0.269
31137WAT      O93652   1.575   8.115   9.681
31137WAT     H193653   1.611   8.123   9.588
31137WAT     H293654   1.648   8.131   9.747
31138WAT      O93655   7.116   8.782   8.199
31138WAT     H193656   7.214   8.779   8.217
31138WAT     H293657   7.093   8.711   8.132
31139WAT      O93658   6.591   6.563   7.318
31139WAT     H193659   6.549   6.606   7.238
31139WAT     H293660   6.596   6.630   7.392
31140WAT      O93661   3.398   7.851   2.945
31140WAT     H193662   3.419   7.946   2.970
31140WAT     H293663   3.351   7.850   2.857
31141WAT      O93664   1.843   2.712   6.024
31141WAT     H193665   1.878   2.668   5.941
31141WAT     H293666   1.844   2.811   6.011
31142WAT      O93667   8.890   8.363   1.428
31142WAT     H193668   8.876   8.330   1.522
31142WAT     H293669   8.903   8.462   1.430
31143WAT      O93670   6.156   6.239   0.640
31143WAT     H193671   6.171   6.140   0.632
31143WAT     H293672   6.229   6.279   0.694
31144WAT      O93673   7.405   7.005   1.713
31144WAT     H193674   7.401   6.932   1.781
31144WAT     H293675   7.378   7.091   1.754
31145WAT      O93676   0.034   3.824   1.447
31145WAT     H193677   0.018   3.730   1.416
31145WAT     H293678   0.129   3.834   1.476
31146WAT      O93679   3.091   6.481   4.236
31146WAT     H193680   3.058   6.408   4.176
31146WAT     H293681   3.179   6.456   4.276
31147WAT      O93682   6.227   4.783   8.101
31147WAT     H193683   6.228   4.684   8.083
31147WAT     H293684   6.294   4.828   8.043
31148WAT      O93685   6.503   6.618   3.749
31148WAT     H193686   6.455   6.620   3.836
31148WAT     H293687   6.507   6.524   3.715
31149WAT      O93688   1.267   9.510   6.128
31149WAT     H193689   1.219   9.433   6.085
31149WAT     H293690   1.361   9.484   6.148
31150WAT      O93691   2.166   9.346   5.830
31150WAT     H193692   2.246   9.344   5.889
31150WAT     H293693   2.159   9.436   5.786
31151WAT      O93694   9.159   1.732   3.001
31151WAT     H193695   9.196   1.646   2.967
31151WAT     H293696   9.226   1.775   3.062
31152WAT      O93697   6.044   1.839   5.073
31152WAT     H193698   5.953   1.804   5.051
31152WAT     H293699   6.039   1.938   5.089
31153WAT      O93700   0.958   1.653   1.368
31153WAT     H193701   1.034   1.697   1.417
31153WAT     H293702   0.938   1.705   1.284
31154WAT      O93703   3.193   3.466   8.003
31154WAT     H193704   3.101   3.505   8.005
31154WAT     H293705   3.200   3.393   8.071
31155WAT      O93706   6.727   5.435   4.216
31155WAT     H193707   6.691   5.344   4.197
31155WAT     H293708   6.674   5.477   4.289
31156WAT      O93709   0.554   0.009   6.390
31156WAT     H193710   0.646   0.047   6.382
31156WAT     H293711   0.528  -0.036   6.305
31157WAT      O93712   9.719   9.292   2.430
31157WAT     H193713   9.729   9.283   2.331
31157WAT     H293714   9.626   9.321   2.452
31158WAT      O93715   2.347   9.120   1.796
31158WAT     H193716   2.388   9.167   1.875
31158WAT     H293717   2.383   9.027   1.791
31159WAT      O93718   9.809   3.069   5.585
31159WAT     H193719   9.859   3.001   5.639
31159WAT     H293720   9.859   3.087   5.501
31160WAT      O93721   3.218   9.399   3.583
31160WAT     H193722   3.181   9.492   3.578
31160WAT     H293723   3.316   9.402   3.602
31161WAT      O93724   1.826   3.475   4.727
31161WAT     H193725   1.824   3.427   4.639
31161WAT     H293726   1.733   3.478   4.764
31162WAT      O93727   1.416   9.747   9.080
31162WAT     H193728   1.347   9.802   9.034
31162WAT     H293729   1.422   9.657   9.036
31163WAT      O93730   6.010   9.541   0.010
31163WAT     H193731   5.961   9.626   0.031
31163WAT     H293732   6.075   9.521   0.084
31164WAT      O93733   7.640   6.891   2.074
31164WAT     H193734   7.723   6.854   2.117
31164WAT     H293735   7.566   6.824   2.081
31165WAT      O93736   5.531   4.396   2.798
31165WAT     H193737   5.481   4.457   2.737
31165WAT     H293738   5.624   4.432   2.812
31166WAT      O93739   4.333   7.385   3.039
31166WAT     H193740   4.361   7.444   2.963
31166WAT     H293741   4.383   7.298   3.033
31167WAT      O93742   7.814   5.178   7.855
31167WAT     H193743   7.888   5.122   7.892
31167WAT     H293744   7.726   5.137   7.880
31168WAT      O93745   5.564   0.666   6.991
31168WAT     H193746   5.481   0.653   6.936
31168WAT     H293747   5.587   0.581   7.038
31169WAT      O93748   9.518   7.203   3.721
31169WAT     H193749   9.467   7.122   3.749
31169WAT     H293750   9.456   7.281   3.718
31170WAT      O93751   5.987   3.474   9.500
31170WAT     H193752   5.890   3.490   9.486
31170WAT     H293753   6.021   3.532   9.574
31171WAT      O93754   2.616   6.996   3.045
31171WAT     H193755   2.675   7.076   3.050
31171WAT     H293756   2.520   7.024   3.056
31172WAT      O93757   2.510   1.424   0.664
31172WAT     H193758   2.424   1.455   0.624
31172WAT     H293759   2.545   1.493   0.727
31173WAT      O93760   3.974   6.078   0.961
31173WAT     H193761   3.955   6.169   0.998
31173WAT     H293762   4.067   6.051   0.985
31174WAT      O93763   2.978   7.502   3.727
31174WAT     H193764   3.040   7.554   3.668
31174WAT     H293765   2.895   7.555   3.744
31175WAT      O93766   6.897   0.415   2.440
31175WAT     H193767   6.834   0.387   2.512
31175WAT     H293768   6.963   0.342   2.423
31176WAT      O93769   5.164   8.332   5.882
31176WAT     H193770   5.225   8.256   5.904
31176WAT     H293771   5.069   8.302   5.891
31177WAT      O93772   7.292   1.345   2.800
31177WAT     H193773   7.362   1.281   2.832
31177WAT     H293774   7.268   1.407   2.874
31178WAT      O93775   7.396   7.627   0.376
31178WAT     H193776   7.426   7.705   0.431
31178WAT     H293777   7.470   7.600   0.314
31179WAT      O93778   4.530   3.702   0.998
31179WAT     H193779   4.539   3.722   1.096
31179WAT     H293780   4.600   3.754   0.948
31180WAT      O93781   7.071   5.844   8.721
31180WAT     H193782   7.098   5.883   8.633
31180WAT     H293783   7.152   5.830   8.778
31181WAT      O93784   7.034   9.393   3.037
31181WAT     H193785   7.113   9.419   2.982
31181WAT     H293786   7.064   9.350   3.122
31182WAT      O93787   0.581   8.718   7.191
31182WAT     H193788   0.497   8.734   7.139
31182WAT     H293789   0.592   8.790   7.259
31183WAT      O93790   2.959   1.907   9.471
31183WAT     H193791   2.972   1.812   9.444
31183WAT     H293792   2.928   1.911   9.566
31184WAT      O93793   1.677   2.030   1.293
31184WAT     H193794   1.673   1.955   1.227
31184WAT     H293795   1.758   2.019   1.351
31185WAT      O93796   7.501   8.042   9.647
31185WAT     H193797   7.498   8.015   9.743
31185WAT     H293798   7.522   7.963   9.590
31186WAT      O93799   3.503   3.797   9.876
31186WAT     H193800   3.534   3.884   9.914
31186WAT     H293801   3.412   3.776   9.912
31187WAT      O93802   4.427   6.618   5.512
31187WAT     H193803   4.418   6.699   5.570
31187WAT     H293804   4.356   6.618   5.442
31188WAT      O93805   3.047   6.856   6.675
31188WAT     H193806   3.050   6.816   6.584
31188WAT     H293807   2.952   6.855   6.708
31189WAT      O93808   5.041   0.560   4.945
31189WAT     H193809   5.094   0.610   5.014
31189WAT     H293810   5.083   0.470   4.931
31190WAT      O93811   0.610   9.371   0.303
31190WAT     H193812   0.538   9.338   0.242
31190WAT     H293813   0.650   9.455   0.265
31191WAT      O93814   8.193   2.692   6.352
31191WAT     H193815   8.109   2.645   6.380
31191WAT     H293816   8.269   2.659   6.408
31192WAT      O93817   3.492   4.103   8.048
31192WAT     H193818   3.516   4.142   8.136
31192WAT     H293819   3.428   4.163   8.000
31193WAT      O93820   2.763   5.164   2.842
31193WAT     H193821   2.804   5.090   2.897
31193WAT     H293822   2.825   5.242   2.841
31194WAT      O93823   7.263   0.468   4.441
31194WAT     H193824   7.167   0.494   4.426
31194WAT     H293825   7.320   0.513   4.373
31195WAT      O93826   2.824   5.459   6.539
31195WAT     H193827   2.924   5.463   6.548
31195WAT     H293828   2.798   5.485   6.446
31196WAT      O93829   1.586   4.178   9.392
31196WAT     H193830   1.574   4.150   9.487
31196WAT     H293831   1.509   4.237   9.365
31197WAT      O93832   1.216   8.766   0.003
31197WAT     H193833   1.225   8.705   0.082
31197WAT     H293834   1.140   8.829   0.019
31198WAT      O93835   7.592   5.641   7.463
31198WAT     H193836   7.617   5.729   7.422
31198WAT     H293837   7.503   5.611   7.427
31199WAT      O93838   3.588   6.237   5.677
31199WAT     H193839   3.658   6.219   5.608
31199WAT     H293840   3.629   6.236   5.768
31200WAT      O93841   3.282   0.209   8.794
31200WAT     H193842   3.226   0.190   8.712
31200WAT     H293843   3.375   0.175   8.779
31201WAT      O93844   1.601   3.240   0.737
31201WAT     H193845   1.515   3.216   0.782
31201WAT     H293846   1.664   3.162   0.741
31202WAT      O93847   9.885   9.486   9.263
31202WAT     H193848   9.816   9.549   9.299
31202WAT     H293849   9.869   9.471   9.165
31203WAT      O93850   8.678   0.609   3.907
31203WAT     H193851   8.758   0.652   3.864
31203WAT     H293852   8.600   0.672   3.904
31204WAT      O93853   3.688   5.840   5.773
31204WAT     H193854   3.739   5.832   5.687
31204WAT     H293855   3.613   5.774   5.773
31205WAT      O93856   8.678   9.197   9.741
31205WAT     H193857   8.771   9.188   9.703
31205WAT     H293858   8.617   9.231   9.670
31206WAT      O93859   4.788   3.685   4.967
31206WAT     H193860   4.774   3.698   4.869
31206WAT     H293861   4.838   3.764   5.004
31207WAT      O93862   1.229   3.581   5.598
31207WAT     H193863   1.190   3.526   5.672
31207WAT     H293864   1.314   3.624   5.630
31208WAT      O93865   7.626   7.250   8.692
31208WAT     H193866   7.607   7.225   8.597
31208WAT     H293867   7.548   7.300   8.730
31209WAT      O93868   0.077   0.465   1.521
31209WAT     H193869  -0.012   0.462   1.568
31209WAT     H293870   0.066   0.512   1.433
31210WAT      O93871   3.595   2.184   5.272
31210WAT     H193872   3.662   2.238   5.323
31210WAT     H293873   3.593   2.091   5.308
31211WAT      O93874   7.347   1.663   4.790
31211WAT     H193875   7.287   1.598   4.745
31211WAT     H293876   7.321   1.671   4.887
31212WAT      O93877   5.192   6.922   0.011
31212WAT     H193878   5.224   6.835  -0.025
31212WAT     H293879   5.201   6.923   0.110
31213WAT      O93880   1.721   1.604   8.247
31213WAT     H193881   1.744   1.563   8.159
31213WAT     H293882   1.655   1.677   8.234
31214WAT      O93883   7.263   6.053   4.467
31214WAT     H193884   7.303   6.068   4.557
31214WAT     H293885   7.333   6.065   4.397
31215WAT      O93886   2.139   6.304   6.878
31215WAT     H193887   2.205   6.258   6.937
31215WAT     H293888   2.184   6.335   6.794
31216WAT      O93889   1.380   9.609   0.849
31216WAT     H193890   1.414   9.689   0.801
31216WAT     H293891   1.456   9.554   0.882
31217WAT      O93892   5.438   6.503   3.217
31217WAT     H193893   5.385   6.525   3.299
31217WAT     H293894   5.511   6.570   3.206
31218WAT      O93895   5.215   3.608   9.366
31218WAT     H193896   5.296   3.553   9.385
31218WAT     H293897   5.171   3.575   9.282
31219WAT      O93898   3.811   7.126   5.816
31219WAT     H193899   3.757   7.048   5.845
31219WAT     H293900   3.792   7.204   5.875
31220WAT      O93901   9.346   3.780   5.949
31220WAT     H193902   9.301   3.759   6.036
31220WAT     H293903   9.358   3.696   5.897
31221WAT      O93904   7.166   9.816   9.180
31221WAT     H193905   7.255   9.787   9.144
31221WAT     H293906   7.117   9.868   9.109
31222WAT      O93907   6.153   2.768   1.493
31222WAT     H193908   6.120   2.842   1.551
31222WAT     H293909   6.097   2.762   1.411
31223WAT      O93910   0.877   7.387   9.464
31223WAT     H193911   0.959   7.339   9.496
31223WAT     H293912   0.876   7.480   9.500
31224WAT      O93913   1.928   9.790   7.181
31224WAT     H193914   1.901   9.840   7.099
31224WAT     H293915   1.921   9.850   7.261
31225WAT      O93916   7.773   6.236   7.350
31225WAT     H193917   7.853   6.280   7.391
31225WAT     H293918   7.800   6.150   7.307
31226WAT      O93919   3.399   5.055   2.159
31226WAT     H193920   3.322   5.102   2.116
31226WAT     H293921   3.373   5.024   2.250
31227WAT      O93922   4.888   7.714   7.731
31227WAT     H193923   4.924   7.801   7.766
31227WAT     H293924   4.825   7.675   7.798
31228WAT      O93925   2.923   7.681   4.113
31228WAT     H193926   2.824   7.683   4.099
31228WAT     H293927   2.953   7.769   4.151
31229WAT      O93928   5.137   8.713   5.139
31229WAT     H193929   5.108   8.796   5.187
31229WAT     H293930   5.064   8.682   5.079
31230WAT      O93931   7.648   2.351   3.552
31230WAT     H193932   7.616   2.315   3.639
31230WAT     H293933   7.715   2.423   3.568
31231WAT      O93934   5.230   9.124   2.771
31231WAT     H193935   5.327   9.107   2.788
31231WAT     H293936   5.189   9.169   2.851
31232WAT      O93937   6.450   6.579   6.404
31232WAT     H193938   6.450   6.593   6.503
31232WAT     H293939   6.392   6.648   6.360
31233WAT      O93940   1.603   7.408   8.197
31233WAT     H193941   1.578   7.412   8.293
31233WAT     H293942   1.702   7.421   8.188
31234WAT      O93943   7.541   2.766   6.547
31234WAT     H193944   7.637   2.788   6.530
31234WAT     H293945   7.522   2.674   6.513
31235WAT      O93946   9.698   7.625   6.675
31235WAT     H193947   9.655   7.594   6.760
31235WAT     H293948   9.793   7.649   6.694
31236WAT      O93949   6.392   4.011   8.967
31236WAT     H193950   6.336   4.060   9.034
31236WAT     H293951   6.487   4.039   8.976
31237WAT      O93952   2.510   8.377   7.333
31237WAT     H193953   2.536   8.410   7.242
31237WAT     H293954   2.413   8.396   7.348
31238WAT      O93955   1.787   2.941   6.592
31238WAT     H193956   1.762   3.033   6.624
31238WAT     H293957   1.777   2.936   6.492
31239WAT      O93958   0.073   8.218   8.839
31239WAT     H193959   0.088   8.252   8.932
31239WAT     H293960   0.084   8.293   8.774
31240WAT      O93961   5.769   4.898   9.662
31240WAT     H193962   5.714   4.815   9.668
31240WAT     H293963   5.822   4.909   9.746
31241WAT      O93964   5.019   5.335   1.706
31241WAT     H193965   5.092   5.328   1.773
31241WAT     H293966   4.963   5.252   1.708
31242WAT      O93967   4.509   7.184   7.448
31242WAT     H193968   4.410   7.177   7.435
31242WAT     H293969   4.536   7.127   7.525
31243WAT      O93970   2.054   7.371   7.308
31243WAT     H193971   2.106   7.456   7.309
31243WAT     H293972   1.985   7.374   7.235
31244WAT      O93973   0.408   6.935   3.435
31244WAT     H193974   0.312   6.946   3.457
31244WAT     H293975   0.462   7.001   3.487
31245WAT      O93976   7.947   5.768   6.765
31245WAT     H193977   7.898   5.683   6.780
31245WAT     H293978   8.027   5.772   6.824
31246WAT      O93979   3.304   3.914   7.017
31246WAT     H193980   3.320   4.008   6.986
31246WAT     H293981   3.322   3.907   7.115
31247WAT      O93982   5.900   4.729   4.142
31247WAT     H193983   5.930   4.824   4.141
31247WAT     H293984   5.830   4.717   4.213
31248WAT      O93985   6.970   6.473   3.582
31248WAT     H193986   6.888   6.530   3.590
31248WAT     H293987   7.024   6.481   3.666
31249WAT      O93988   7.511   7.270   1.202
31249WAT     H193989   7.460   7.353   1.181
31249WAT     H293990   7.448   7.194   1.217
31250WAT      O93991   7.794   5.821   8.407
31250WAT     H193992   7.734   5.900   8.397
31250WAT     H293993   7.762   5.764   8.483
31251WAT      O93994   6.072   8.390   5.772
31251WAT     H193995   6.136   8.315   5.754
31251WAT     H293996   6.117   8.478   5.754
31252WAT      O93997   0.125   0.027   6.945
31252WAT     H193998   0.224   0.030   6.937
31252WAT     H293999   0.087  -0.034   6.875
31253WAT      O94000   3.542   4.490   1.768
31253WAT     H194001   3.635   4.525   1.780
31253WAT     H294002   3.485   4.559   1.724
31254WAT      O94003   6.517   8.191   4.583
31254WAT     H194004   6.477   8.209   4.673
31254WAT     H294005   6.561   8.101   4.583
31255WAT      O94006   3.388   4.021   4.373
31255WAT     H194007   3.311   3.977   4.419
31255WAT     H294008   3.431   3.956   4.311
31256WAT      O94009   2.671   1.414   4.624
31256WAT     H194010   2.606   1.382   4.693
31256WAT     H294011   2.752   1.451   4.669
31257WAT      O94012   1.501   5.823   1.371
31257WAT     H194013   1.600   5.836   1.374
31257WAT     H294014   1.462   5.882   1.300
31258WAT      O94015   6.169   6.208   7.574
31258WAT     H194016   6.073   6.238   7.578
31258WAT     H294017   6.224   6.266   7.634
31259WAT      O94018   2.073   8.306   2.796
31259WAT     H194019   2.101   8.399   2.772
31259WAT     H294020   2.141   8.264   2.856
31260WAT      O94021   5.174   2.099   2.553
31260WAT     H194022   5.226   2.023   2.515
31260WAT     H294023   5.236   2.160   2.603
31261WAT      O94024   8.201   0.898   5.696
31261WAT     H194025   8.236   0.866   5.607
31261WAT     H294026   8.255   0.856   5.769
31262WAT      O94027   8.639   8.224   2.234
31262WAT     H194028   8.638   8.124   2.245
31262WAT     H294029   8.565   8.264   2.288
31263WAT      O94030   7.461   2.299   8.776
31263WAT     H194031   7.521   2.350   8.837
31263WAT     H294032   7.452   2.205   8.810
31264WAT      O94033   3.411   1.588   0.332
31264WAT     H194034   3.509   1.568   0.330
31264WAT     H294035   3.388   1.646   0.253
31265WAT      O94036   7.359   4.743   4.581
31265WAT     H194037   7.297   4.814   4.615
31265WAT     H294038   7.444   4.746   4.634
31266WAT      O94039   7.204   5.382   5.602
31266WAT     H194040   7.125   5.338   5.644
31266WAT     H294041   7.272   5.401   5.673
31267WAT      O94042   9.295   1.275   6.499
31267WAT     H194043   9.285   1.305   6.404
31267WAT     H294044   9.232   1.200   6.518
31268WAT      O94045   8.761   5.720   6.548
31268WAT     H194046   8.746   5.634   6.499
31268WAT     H294047   8.818   5.703   6.629
31269WAT      O94048   2.330   5.768   4.286
31269WAT     H194049   2.364   5.708   4.359
31269WAT     H294050   2.359   5.732   4.197
31270WAT      O94051   6.786   8.900   7.691
31270WAT     H194052   6.743   8.854   7.769
31270WAT     H294053   6.831   8.832   7.633
31271WAT      O94054   0.350   2.731   8.359
31271WAT     H194055   0.306   2.810   8.318
31271WAT     H294056   0.413   2.690   8.293
31272WAT      O94057   3.507   2.683   4.273
31272WAT     H194058   3.539   2.735   4.194
31272WAT     H294059   3.474   2.594   4.243
31273WAT      O94060   1.643   0.577   2.077
31273WAT     H194061   1.649   0.513   2.153
31273WAT     H294062   1.614   0.666   2.111
31274WAT      O94063   5.047   8.917   6.545
31274WAT     H194064   5.146   8.900   6.542
31274WAT     H294065   5.029   9.011   6.514
31275WAT      O94066   2.469   0.280   7.320
31275WAT     H194067   2.423   0.368   7.308
31275WAT     H294068   2.419   0.225   7.387
31276WAT      O94069   6.341   7.003   9.797
31276WAT     H194070   6.301   7.057   9.723
31276WAT     H294071   6.270   6.950   9.843
31277WAT      O94072   3.220   9.399   1.988
31277WAT     H194073   3.143   9.367   2.042
31277WAT     H294074   3.269   9.321   1.950
31278WAT      O94075   0.218   2.525   5.095
31278WAT     H194076   0.174   2.610   5.124
31278WAT     H294077   0.311   2.545   5.065
31279WAT      O94078   2.477   8.134   6.198
31279WAT     H194079   2.544   8.200   6.163
31279WAT     H294080   2.479   8.135   6.298
31280WAT      O94081   3.900   0.057   3.060
31280WAT     H194082   3.896   0.113   2.977
31280WAT     H294083   3.831  -0.015   3.054
31281WAT      O94084   7.974   2.785   7.305
31281WAT     H194085   7.930   2.695   7.297
31281WAT     H294086   8.053   2.777   7.367
31282WAT      O94087   7.577   4.839   5.579
31282WAT     H194088   7.519   4.816   5.657
31282WAT     H294089   7.643   4.765   5.563
31283WAT      O94090   4.056   8.604   2.643
31283WAT     H194091   4.009   8.681   2.686
31283WAT     H294092   3.989   8.540   2.606
31284WAT      O94093   1.255   1.147   5.541
31284WAT     H194094   1.278   1.158   5.445
31284WAT     H294095   1.162   1.112   5.550
31285WAT      O94096   4.190   9.045   7.047
31285WAT     H194097   4.241   9.007   7.125
31285WAT     H294098   4.127   9.116   7.080
31286WAT      O94099   0.802   0.928   0.565
31286WAT     H194100   0.849   0.951   0.650
31286WAT     H294101   0.715   0.977   0.562
31287WAT      O94102   5.732   5.033   8.328
31287WAT     H194103   5.797   5.107   8.311
31287WAT     H294104   5.639   5.066   8.311
31288WAT      O94105   2.052   2.571   3.181
31288WAT     H194106   2.076   2.474   3.188
31288WAT     H294107   2.131   2.622   3.146
31289WAT      O94108   8.729   0.215   4.829
31289WAT     H194109   8.675   0.182   4.751
31289WAT     H294110   8.779   0.297   4.802
31290WAT      O94111   7.148   3.428   3.384
31290WAT     H194112   7.058   3.384   3.380
31290WAT     H294113   7.192   3.405   3.471
31291WAT      O94114   5.927   5.220   8.317
31291WAT     H194115   5.892   5.287   8.382
31291WAT     H294116   5.996   5.163   8.361
31292WAT      O94117   3.968   2.666   8.913
31292WAT     H194118   3.886   2.670   8.970
31292WAT     H294119   3.964   2.738   8.844
31293WAT      O94120   2.288   8.453   8.956
31293WAT     H194121   2.256   8.379   8.897
31293WAT     H294122   2.282   8.540   8.906
31294WAT      O94123   9.309   0.781   3.868
31294WAT     H194124   9.298   0.862   3.925
31294WAT     H294125   9.353   0.806   3.781
31295WAT      O94126   3.750   5.273   3.206
31295WAT     H194127   3.787   5.312   3.290
31295WAT     H294128   3.743   5.173   3.215
31296WAT      O94129   6.774   8.105   7.993
31296WAT     H194130   6.732   8.025   8.037
31296WAT     H294131   6.749   8.188   8.043
31297WAT      O94132   0.285   4.866   9.578
31297WAT     H194133   0.317   4.917   9.658
31297WAT     H294134   0.283   4.768   9.599
31298WAT      O94135   5.721   3.310   3.062
31298WAT     H194136   5.713   3.349   3.153
31298WAT     H294137   5.634   3.268   3.036
31299WAT      O94138   1.703   9.564   9.124
31299WAT     H194139   1.696   9.660   9.150
31299WAT     H294140   1.619   9.516   9.151
31300WAT      O94141   0.316   1.815   8.490
31300WAT     H194142   0.355   1.844   8.577
31300WAT     H294143   0.320   1.892   8.425
31301WAT      O94144   4.276   4.991   8.624
31301WAT     H194145   4.244   4.963   8.714
31301WAT     H294146   4.266   4.915   8.560
31302WAT      O94147   5.065   9.187   5.560
31302WAT     H194148   4.999   9.261   5.547
31302WAT     H294149   5.017   9.101   5.576
31303WAT      O94150   1.923   1.958   5.684
31303WAT     H194151   1.858   1.891   5.719
31303WAT     H294152   1.993   1.975   5.753
31304WAT      O94153   1.214   7.510   7.192
31304WAT     H194154   1.196   7.561   7.107
31304WAT     H294155   1.160   7.549   7.266
31305WAT      O94156   9.024   9.509   6.413
31305WAT     H194157   8.946   9.494   6.353
31305WAT     H294158   9.042   9.607   6.419
31306WAT      O94159   1.328   4.251   3.940
31306WAT     H194160   1.342   4.183   4.011
31306WAT     H294161   1.370   4.219   3.855
31307WAT      O94162   3.556   4.450   2.078
31307WAT     H194163   3.642   4.444   2.026
31307WAT     H294164   3.496   4.375   2.051
31308WAT      O94165   0.165   9.315   5.104
31308WAT     H194166   0.067   9.332   5.091
31308WAT     H294167   0.211   9.317   5.015
31309WAT      O94168   4.373   0.580   4.599
31309WAT     H194169   4.322   0.510   4.650
31309WAT     H294170   4.471   0.566   4.612
31310WAT      O94171   7.393   9.534   4.736
31310WAT     H194172   7.457   9.516   4.662
31310WAT     H294173   7.443   9.548   4.822
31311WAT      O94174   7.658   6.422   7.903
31311WAT     H194175   7.617   6.427   7.812
31311WAT     H294176   7.630   6.502   7.957
31312WAT      O94177   4.100   0.957   9.400
31312WAT     H194178   4.145   0.884   9.451
31312WAT     H294179   4.090   1.037   9.459
31313WAT      O94180   4.740   6.105   8.991
31313WAT     H194181   4.680   6.178   8.959
31313WAT     H294182   4.699   6.016   8.972
31314WAT      O94183   5.099   6.679   9.381
31314WAT     H194184   5.087   6.688   9.480
31314WAT     H294185   5.018   6.714   9.334
31315WAT      O94186   5.459   8.045   2.763
31315WAT     H194187   5.458   7.945   2.773
31315WAT     H294188   5.502   8.069   2.675
31316WAT      O94189   8.830   8.086   5.337
31316WAT     H194190   8.744   8.040   5.360
31316WAT     H294191   8.813   8.185   5.331
31317WAT      O94192   6.445   5.963   1.420
31317WAT     H194193   6.476   6.038   1.362
31317WAT     H294194   6.354   5.984   1.454
31318WAT      O94195   6.027   1.635   0.775
31318WAT     H194196   5.930   1.644   0.751
31318WAT     H294197   6.077   1.600   0.697
31319WAT      O94198   2.217   5.991   9.112
31319WAT     H194199   2.175   5.951   9.030
31319WAT     H294200   2.316   5.977   9.109
31320WAT      O94201   7.616   1.296   9.455
31320WAT     H194202   7.602   1.375   9.394
31320WAT     H294203   7.565   1.218   9.421
31321WAT      O94204   2.037   3.231   6.663
31321WAT     H194205   2.057   3.288   6.583
31321WAT     H294206   1.938   3.214   6.669
31322WAT      O94207   9.230   9.008   6.887
31322WAT     H194208   9.222   8.959   6.974
31322WAT     H294209   9.235   8.943   6.812
31323WAT      O94210   0.239   9.755   0.540
31323WAT     H194211   0.214   9.852   0.538
31323WAT     H294212   0.328   9.743   0.497
31324WAT      O94213   0.781   1.615   0.713
31324WAT     H194214   0.724   1.567   0.780
31324WAT     H294215   0.723   1.666   0.650
31325WAT      O94216   2.467   2.769   0.716
31325WAT     H194217   2.394   2.758   0.649
31325WAT     H294218   2.461   2.695   0.784
31326WAT      O94219   1.408   7.671   8.483
31326WAT     H194220   1.472   7.601   8.452
31326WAT     H294221   1.455   7.731   8.549
31327WAT      O94222   9.440   7.079   4.270
31327WAT     H194223   9.434   7.107   4.366
31327WAT     H294224   9.480   7.153   4.216
31328WAT      O94225   6.406   5.311   0.098
31328WAT     H194226   6.386   5.385   0.162
31328WAT     H294227   6.367   5.333   0.008
31329WAT      O94228   4.705   2.407   0.820
31329WAT     H194229   4.789   2.462   0.823
31329WAT     H294230   4.717   2.326   0.878
31330WAT      O94231   3.212   2.556   9.814
31330WAT     H194232   3.160   2.515   9.739
31330WAT     H294233   3.160   2.548   9.899
31331WAT      O94234   5.166   3.665   2.346
31331WAT     H194235   5.148   3.627   2.256
31331WAT     H294236   5.230   3.606   2.395
31332WAT      O94237   5.172   3.506   2.089
31332WAT     H194238   5.222   3.437   2.036
31332WAT     H294239   5.075   3.497   2.070
31333WAT      O94240   7.086   0.488   5.650
31333WAT     H194241   7.039   0.471   5.563
31333WAT     H294242   7.020   0.521   5.718
31334WAT      O94243   7.323   2.938   2.838
31334WAT     H194244   7.263   2.997   2.892
31334WAT     H294245   7.283   2.923   2.748
31335WAT      O94246   8.364   9.372   0.005
31335WAT     H194247   8.323   9.331   0.087
31335WAT     H294248   8.353   9.310  -0.073
31336WAT      O94249   8.442   1.077   4.852
31336WAT     H194250   8.443   1.035   4.943
31336WAT     H294251   8.353   1.119   4.836
31337WAT      O94252   8.018   0.497   0.550
31337WAT     H194253   8.029   0.398   0.554
31337WAT     H294254   8.085   0.535   0.486
31338WAT      O94255   3.200   7.410   6.453
31338WAT     H194256   3.149   7.453   6.528
31338WAT     H294257   3.225   7.480   6.386
31339WAT      O94258   2.612   4.615   4.168
31339WAT     H194259   2.669   4.679   4.117
31339WAT     H294260   2.531   4.663   4.203
31340WAT      O94261   7.548   8.391   1.037
31340WAT     H194262   7.535   8.457   0.963
31340WAT     H294263   7.643   8.359   1.036
31341WAT      O94264   5.897   3.342   6.036
31341WAT     H194265   5.920   3.339   5.938
31341WAT     H294266   5.981   3.338   6.090
31342WAT      O94267   2.755   9.293   2.347
31342WAT     H194268   2.762   9.212   2.406
31342WAT     H294269   2.691   9.274   2.272
31343WAT      O94270   1.410   8.522   6.369
31343WAT     H194271   1.345   8.510   6.444
31343WAT     H294272   1.397   8.613   6.329
31344WAT      O94273   0.196   2.283   2.453
31344WAT     H194274   0.132   2.206   2.466
31344WAT     H294275   0.236   2.278   2.362
31345WAT      O94276   0.144   2.778   0.565
31345WAT     H194277   0.157   2.871   0.530
31345WAT     H294278   0.213   2.759   0.634
31346WAT      O94279   7.431   4.160   9.702
31346WAT     H194280   7.445   4.157   9.603
31346WAT     H294281   7.379   4.079   9.730
31347WAT      O94282   3.942   7.869   6.543
31347WAT     H194283   4.038   7.881   6.570
31347WAT     H294284   3.884   7.923   6.604
31348WAT      O94285   5.508   7.756   6.278
31348WAT     H194286   5.499   7.784   6.374
31348WAT     H294287   5.468   7.826   6.219
31349WAT      O94288   6.337   8.947   4.933
31349WAT     H194289   6.423   8.994   4.953
31349WAT     H294290   6.355   8.849   4.923
31350WAT      O94291   3.754   0.724   5.528
31350WAT     H194292   3.675   0.678   5.567
31350WAT     H294293   3.821   0.657   5.498
31351WAT      O94294   8.288   6.113   5.575
31351WAT     H194295   8.191   6.112   5.598
31351WAT     H294296   8.299   6.124   5.476
31352WAT      O94297   7.132   3.164   0.585
31352WAT     H194298   7.107   3.084   0.531
31352WAT     H294299   7.124   3.143   0.682
31353WAT      O94300   4.163   9.592   2.339
31353WAT     H194301   4.106   9.520   2.378
31353WAT     H294302   4.142   9.602   2.242
31354WAT      O94303   7.539   5.495   8.450
31354WAT     H194304   7.440   5.509   8.455
31354WAT     H294305   7.564   5.471   8.356
31355WAT      O94306   2.788   6.717   8.298
31355WAT     H194307   2.852   6.645   8.272
31355WAT     H294308   2.836   6.786   8.353
31356WAT      O94309   5.358   6.477   1.391
31356WAT     H194310   5.372   6.404   1.325
31356WAT     H294311   5.448   6.508   1.425
31357WAT      O94312   1.307   8.851   1.687
31357WAT     H194313   1.368   8.777   1.716
31357WAT     H294314   1.246   8.875   1.763
31358WAT      O94315   1.773   4.707   3.150
31358WAT     H194316   1.778   4.748   3.241
31358WAT     H294317   1.820   4.619   3.150
31359WAT      O94318   9.651   5.386   7.017
31359WAT     H194319   9.684   5.448   6.946
31359WAT     H294320   9.729   5.344   7.064
31360WAT      O94321   9.124   0.338   4.860
31360WAT     H194322   9.195   0.374   4.799
31360WAT     H294323   9.064   0.276   4.808
31361WAT      O94324   3.274   0.308   7.985
31361WAT     H194325   3.251   0.235   7.921
31361WAT     H294326   3.358   0.353   7.955
31362WAT      O94327   9.474   2.475   2.501
31362WAT     H194328   9.502   2.568   2.529
31362WAT     H294329   9.545   2.410   2.527
31363WAT      O94330   2.455   5.469   2.223
31363WAT     H194331   2.448   5.550   2.282
31363WAT     H294332   2.369   5.456   2.174
31364WAT      O94333   2.223   0.759   1.838
31364WAT     H194334   2.284   0.686   1.805
31364WAT     H294335   2.249   0.784   1.932
31365WAT      O94336   3.285   2.339   0.170
31365WAT     H194337   3.356   2.320   0.103
31365WAT     H294338   3.226   2.259   0.181
31366WAT      O94339   9.065   7.236   5.339
31366WAT     H194340   9.145   7.295   5.335
31366WAT     H294341   8.982   7.292   5.337
31367WAT      O94342   1.008   8.864   3.415
31367WAT     H194343   0.988   8.773   3.378
31367WAT     H294344   1.038   8.924   3.341
31368WAT      O94345   0.193   6.394   5.118
31368WAT     H194346   0.163   6.395   5.022
31368WAT     H294347   0.232   6.483   5.141
31369WAT      O94348   8.164   8.668   3.955
31369WAT     H194349   8.124   8.580   3.982
31369WAT     H294350   8.111   8.708   3.881
31370WAT      O94351   9.525   8.822   1.093
31370WAT     H194352   9.442   8.779   1.060
31370WAT     H294353   9.554   8.777   1.178
31371WAT      O94354   4.635   3.359   3.551
31371WAT     H194355   4.613   3.295   3.624
31371WAT     H294356   4.636   3.311   3.463
31372WAT      O94357   1.825   8.660   7.575
31372WAT     H194358   1.896   8.592   7.552
31372WAT     H294359   1.755   8.616   7.631
31373WAT      O94360   0.182   3.828   3.281
31373WAT     H194361   0.257   3.771   3.246
31373WAT     H294362   0.102   3.771   3.297
31374WAT      O94363   7.025   0.638   6.441
31374WAT     H194364   6.939   0.632   6.391
31374WAT     H294365   7.101   0.622   6.377
31375WAT      O94366   0.180   9.803   9.510
31375WAT     H194367   0.217   9.890   9.542
31375WAT     H294368   0.154   9.810   9.414
31376WAT      O94369   7.358   6.613   5.740
31376WAT     H194370   7.392   6.634   5.648
31376WAT     H294371   7.390   6.521   5.767
31377WAT      O94372   0.473   2.274   1.578
31377WAT     H194373   0.529   2.350   1.611
31377WAT     H294374   0.405   2.309   1.514
31378WAT      O94375   7.919   9.387   1.972
31378WAT     H194376   8.011   9.426   1.983
31378WAT     H294377   7.924   9.306   1.915
31379WAT      O94378   3.656   7.126   6.129
31379WAT     H194379   3.631   7.042   6.082
31379WAT     H294380   3.730   7.107   6.194
31380WAT      O94381   8.168   1.699   2.347
31380WAT     H194382   8.136   1.665   2.435
31380WAT     H294383   8.128   1.644   2.273
31381WAT      O94384   9.741   8.270   6.817
31381WAT     H194385   9.789   8.280   6.730
31381WAT     H294386   9.707   8.176   6.826
31382WAT      O94387   8.866   5.571   7.392
31382WAT     H194388   8.838   5.501   7.457
31382WAT     H294389   8.814   5.561   7.307
31383WAT      O94390   4.487   3.299   6.009
31383WAT     H194391   4.523   3.392   6.002
31383WAT     H294392   4.511   3.261   6.099
31384WAT      O94393   9.571   2.737   8.098
31384WAT     H194394   9.606   2.715   8.007
31384WAT     H294395   9.489   2.682   8.115
31385WAT      O94396   3.583   9.110   4.937
31385WAT     H194397   3.545   9.196   4.970
31385WAT     H294398   3.519   9.067   4.873
31386WAT      O94399   1.608   3.696   7.597
31386WAT     H194400   1.607   3.613   7.541
31386WAT     H294401   1.543   3.761   7.560
31387WAT      O94402   7.381   8.132   5.116
31387WAT     H194403   7.449   8.204   5.104
31387WAT     H294404   7.314   8.160   5.184
31388WAT      O94405   3.249   7.090   5.765
31388WAT     H194406   3.312   7.122   5.837
31388WAT     H294407   3.166   7.054   5.807
31389WAT      O94408   6.259   9.069   9.508
31389WAT     H194409   6.232   9.155   9.463
31389WAT     H294410   6.291   9.005   9.439
31390WAT      O94411   8.740   8.137   8.780
31390WAT     H194412   8.644   8.110   8.778
31390WAT     H294413   8.759   8.185   8.866
31391WAT      O94414   9.646   7.106   5.132
31391WAT     H194415   9.700   7.060   5.062
31391WAT     H294416   9.606   7.038   5.194
31392WAT      O94417   2.251   3.537   0.207
31392WAT     H194418   2.218   3.544   0.301
31392WAT     H294419   2.200   3.601   0.149
31393WAT      O94420   5.484   0.083   7.133
31393WAT     H194421   5.526   0.144   7.200
31393WAT     H294422   5.423   0.019   7.180
31394WAT      O94423   9.800   4.205   4.509
31394WAT     H194424   9.738   4.244   4.578
31394WAT     H294425   9.884   4.259   4.507
31395WAT      O94426   7.559   0.685   0.141
31395WAT     H194427   7.611   0.768   0.159
31395WAT     H294428   7.502   0.698   0.060
31396WAT      O94429   4.401   3.548   3.612
31396WAT     H194430   4.476   3.486   3.588
31396WAT     H294431   4.420   3.590   3.701
31397WAT      O94432   7.314   1.694   7.459
31397WAT     H194433   7.330   1.609   7.510
31397WAT     H294434   7.234   1.740   7.495
31398WAT      O94435   9.802   3.010   1.502
31398WAT     H194436   9.811   3.064   1.586
31398WAT     H294437   9.727   2.944   1.513
31399WAT      O94438   9.450   1.920   4.041
31399WAT     H194439   9.366   1.952   3.997
31399WAT     H294440   9.495   1.853   3.983
31400WAT      O94441   5.206   9.264   4.007
31400WAT     H194442   5.198   9.349   3.954
31400WAT     H294443   5.156   9.274   4.093
31401WAT      O94444   4.415   5.429   3.437
31401WAT     H194445   4.326   5.461   3.469
31401WAT     H294446   4.414   5.330   3.427
31402WAT      O94447   6.747   0.585   2.645
31402WAT     H194448   6.654   0.593   2.682
31402WAT     H294449   6.765   0.662   2.583
31403WAT      O94450   2.705   6.744   5.503
31403WAT     H194451   2.714   6.820   5.439
31403WAT     H294452   2.759   6.666   5.469
31404WAT      O94453   4.651   3.496   4.475
31404WAT     H194454   4.749   3.508   4.485
31404WAT     H294455   4.618   3.553   4.399
31405WAT      O94456   0.083   0.526   3.720
31405WAT     H194457   0.008   0.554   3.780
31405WAT     H294458   0.087   0.426   3.715
31406WAT      O94459   3.394   2.214   8.668
31406WAT     H194460   3.296   2.202   8.684
31406WAT     H294461   3.444   2.137   8.707
31407WAT      O94462   9.492   0.651   7.970
31407WAT     H194463   9.525   0.728   7.916
31407WAT     H294464   9.395   0.664   7.990
31408WAT      O94465   0.142   5.447   4.081
31408WAT     H194466   0.112   5.405   4.166
31408WAT     H294467   0.132   5.382   4.006
31409WAT      O94468   7.771   2.639   3.041
31409WAT     H194469   7.747   2.543   3.053
31409WAT     H294470   7.868   2.652   3.062
31410WAT      O94471   2.442   4.491   9.789
31410WAT     H194472   2.423   4.541   9.874
31410WAT     H294473   2.507   4.543   9.734
31411WAT      O94474   8.895   7.819   9.835
31411WAT     H194475   8.987   7.835   9.871
31411WAT     H294476   8.834   7.893   9.864
31412WAT      O94477   4.218   1.036   0.620
31412WAT     H194478   4.268   1.089   0.688
31412WAT     H294479   4.263   1.045   0.531
31413WAT      O94480   6.387   6.177   0.388
31413WAT     H194481   6.345   6.096   0.427
31413WAT     H294482   6.398   6.247   0.459
31414WAT      O94483   2.024   9.327   4.278
31414WAT     H194484   2.111   9.298   4.317
31414WAT     H294485   2.001   9.418   4.313
31415WAT      O94486   3.453   5.950   4.887
31415WAT     H194487   3.485   6.011   4.960
31415WAT     H294488   3.353   5.952   4.883
31416WAT      O94489   5.720   4.163   2.260
31416WAT     H194490   5.808   4.192   2.298
31416WAT     H294491   5.646   4.210   2.309
31417WAT      O94492   6.852   3.922   9.858
31417WAT     H194493   6.803   4.006   9.883
31417WAT     H294494   6.897   3.885   9.939
31418WAT      O94495   1.775   6.817   7.336
31418WAT     H194496   1.779   6.798   7.434
31418WAT     H294497   1.841   6.759   7.288
31419WAT      O94498   5.530   7.721   6.906
31419WAT     H194499   5.547   7.630   6.943
31419WAT     H294500   5.605   7.782   6.931
31420WAT      O94501   3.723   3.597   7.708
31420WAT     H194502   3.658   3.618   7.781
31420WAT     H294503   3.673   3.572   7.625
31421WAT      O94504   2.045   3.336   7.279
31421WAT     H194505   1.971   3.385   7.325
31421WAT     H294506   2.128   3.342   7.335
31422WAT      O94507   0.691   4.930   4.350
31422WAT     H194508   0.638   4.984   4.284
31422WAT     H294509   0.740   4.992   4.412
31423WAT      O94510   3.880   7.367   8.886
31423WAT     H194511   3.854   7.404   8.797
31423WAT     H294512   3.848   7.428   8.958
31424WAT      O94513   2.921   5.014   0.610
31424WAT     H194514   2.926   5.112   0.630
31424WAT     H294515   3.012   4.982   0.584
31425WAT      O94516   3.156   0.985   8.174
31425WAT     H194517   3.216   1.065   8.178
31425WAT     H294518   3.084   1.002   8.107
31426WAT      O94519   0.981   1.094   5.576
31426WAT     H194520   0.916   1.112   5.502
31426WAT     H294521   1.008   0.998   5.574
31427WAT      O94522   1.333   8.999   0.293
31427WAT     H194523   1.367   8.968   0.204
31427WAT     H294524   1.349   8.928   0.362
31428WAT      O94525   1.874   2.864   0.941
31428WAT     H194526   1.888   2.765   0.949
31428WAT     H294527   1.960   2.908   0.913
31429WAT      O94528   8.166   9.163   7.410
31429WAT     H194529   8.209   9.233   7.467
31429WAT     H294530   8.072   9.148   7.441
31430WAT      O94531   0.580   0.264   2.904
31430WAT     H194532   0.562   0.228   2.813
31430WAT     H294533   0.579   0.189   2.971
31431WAT      O94534   9.056   6.036   0.337
31431WAT     H194535   9.015   5.969   0.275
31431WAT     H294536   9.052   6.002   0.431
31432WAT      O94537   6.950   4.502   7.341
31432WAT     H194538   7.039   4.486   7.300
31432WAT     H294539   6.920   4.595   7.321
31433WAT      O94540   7.666   9.695   4.213
31433WAT     H194541   7.747   9.667   4.162
31433WAT     H294542   7.631   9.781   4.176
31434WAT      O94543   8.828   0.954   7.459
31434WAT     H194544   8.729   0.962   7.448
31434WAT     H294545   8.866   0.907   7.379
31435WAT      O94546   8.310   5.842   2.451
31435WAT     H194547   8.302   5.937   2.423
31435WAT     H294548   8.242   5.822   2.523
31436WAT      O94549   8.279   6.418   0.404
31436WAT     H194550   8.345   6.386   0.335
31436WAT     H294551   8.188   6.381   0.383
31437WAT      O94552   5.191   3.147   8.593
31437WAT     H194553   5.150   3.186   8.675
31437WAT     H294554   5.145   3.182   8.512
31438WAT      O94555   0.582   8.557   5.603
31438WAT     H194556   0.542   8.602   5.523
31438WAT     H294557   0.512   8.501   5.648
31439WAT      O94558   0.422   6.405   4.157
31439WAT     H194559   0.326   6.425   4.177
31439WAT     H294560   0.429   6.348   4.075
31440WAT      O94561   0.648   3.600   3.836
31440WAT     H194562   0.554   3.594   3.804
31440WAT     H294563   0.710   3.604   3.758
31441WAT      O94564   6.990   5.535   3.969
31441WAT     H194565   6.918   5.483   4.015
31441WAT     H294566   7.067   5.475   3.950
31442WAT      O94567   4.619   3.541   6.133
31442WAT     H194568   4.684   3.590   6.075
31442WAT     H294569   4.647   3.548   6.229
31443WAT      O94570   9.205   7.832   1.157
31443WAT     H194571   9.243   7.812   1.066
31443WAT     H294572   9.198   7.747   1.209
31444WAT      O94573   6.885   3.425   4.734
31444WAT     H194574   6.931   3.446   4.648
31444WAT     H294575   6.925   3.480   4.807
31445WAT      O94576   3.341   8.521   8.340
31445WAT     H194577   3.259   8.481   8.381
31445WAT     H294578   3.331   8.523   8.241
31446WAT      O94579   2.140   7.024   1.364
31446WAT     H194580   2.159   6.985   1.455
31446WAT     H294581   2.146   7.123   1.368
31447WAT      O94582   0.007   4.113   8.014
31447WAT     H194583  -0.019   4.183   8.080
31447WAT     H294584   0.003   4.150   7.921
31448WAT      O94585   4.042   7.380   3.828
31448WAT     H194586   3.948   7.361   3.856
31448WAT     H294587   4.105   7.337   3.892
31449WAT      O94588   7.079   4.626   1.857
31449WAT     H194589   7.015   4.603   1.784
31449WAT     H294590   7.032   4.620   1.945
31450WAT      O94591   9.172   1.797   7.951
31450WAT     H194592   9.172   1.698   7.960
31450WAT     H294593   9.106   1.837   8.014
31451WAT      O94594   7.255   4.465   6.776
31451WAT     H194595   7.320   4.430   6.709
31451WAT     H294596   7.231   4.560   6.753
31452WAT      O94597   4.165   9.222   5.799
31452WAT     H194598   4.184   9.183   5.710
31452WAT     H294599   4.118   9.155   5.856
31453WAT      O94600   4.315   1.322   5.198
31453WAT     H194601   4.266   1.372   5.127
31453WAT     H294602   4.330   1.382   5.277
31454WAT      O94603   9.002   7.860   5.293
31454WAT     H194604   8.971   7.952   5.317
31454WAT     H294605   8.928   7.812   5.245
31455WAT      O94606   8.718   0.815   1.873
31455WAT     H194607   8.651   0.833   1.945
31455WAT     H294608   8.675   0.761   1.801
31456WAT      O94609   4.229   3.329   5.960
31456WAT     H194610   4.223   3.423   5.925
31456WAT     H294611   4.324   3.308   5.984
31457WAT      O94612   7.919   1.834   9.150
31457WAT     H194613   7.961   1.924   9.160
31457WAT     H294614   7.891   1.820   9.055
31458WAT      O94615   3.835   8.935   3.702
31458WAT     H194616   3.888   9.017   3.724
31458WAT     H294617   3.821   8.882   3.785
31459WAT      O94618   4.500   2.268   0.370
31459WAT     H194619   4.483   2.341   0.304
31459WAT     H294620   4.586   2.222   0.347
31460WAT      O94621   9.331   8.653   1.010
31460WAT     H194622   9.253   8.624   1.065
31460WAT     H294623   9.380   8.572   0.977
31461WAT      O94624   8.676   8.249   1.016
31461WAT     H194625   8.730   8.251   1.101
31461WAT     H294626   8.637   8.158   1.005
31462WAT      O94627   9.787   8.153   4.290
31462WAT     H194628   9.781   8.148   4.191
31462WAT     H294629   9.703   8.192   4.327
31463WAT      O94630   0.659   4.725   1.346
31463WAT     H194631   0.750   4.682   1.349
31463WAT     H294632   0.656   4.801   1.411
31464WAT      O94633   4.041   8.703   8.903
31464WAT     H194634   4.057   8.758   8.986
31464WAT     H294635   3.948   8.718   8.870
31465WAT      O94636   9.135   7.672   6.156
31465WAT     H194637   9.087   7.595   6.116
31465WAT     H294638   9.074   7.721   6.218
31466WAT      O94639   5.082   4.705   5.246
31466WAT     H194640   5.057   4.747   5.158
31466WAT     H294641   5.000   4.668   5.289
31467WAT      O94642   1.784   5.397   9.398
31467WAT     H194643   1.813   5.414   9.304
31467WAT     H294644   1.734   5.477   9.432
31468WAT      O94645   5.754   2.385   8.361
31468WAT     H194646   5.766   2.484   8.356
31468WAT     H294647   5.657   2.363   8.353
31469WAT      O94648   1.345   7.483   4.235
31469WAT     H194649   1.256   7.501   4.277
31469WAT     H294650   1.388   7.406   4.282
31470WAT      O94651   4.001   0.223   4.433
31470WAT     H194652   3.989   0.188   4.340
31470WAT     H294653   4.016   0.146   4.495
31471WAT      O94654   3.626   6.908   5.978
31471WAT     H194655   3.687   6.833   5.999
31471WAT     H294656   3.542   6.873   5.937
31472WAT      O94657   0.721   1.459   7.708
31472WAT     H194658   0.664   1.440   7.628
31472WAT     H294659   0.817   1.467   7.680
31473WAT      O94660   3.604   4.705   3.744
31473WAT     H194661   3.663   4.775   3.703
31473WAT     H294662   3.618   4.618   3.696
31474WAT      O94663   4.698   4.901   4.417
31474WAT     H194664   4.746   4.923   4.502
31474WAT     H294665   4.653   4.812   4.426
31475WAT      O94666   0.903   7.628   2.080
31475WAT     H194667   0.840   7.667   2.147
31475WAT     H294668   0.853   7.565   2.020
31476WAT      O94669   2.656   4.127   5.805
31476WAT     H194670   2.571   4.076   5.822
31476WAT     H294671   2.706   4.136   5.891
31477WAT      O94672   7.666   7.194   5.265
31477WAT     H194673   7.753   7.232   5.297
31477WAT     H294674   7.591   7.233   5.317
31478WAT      O94675   2.121   3.127   5.867
31478WAT     H194676   2.120   3.102   5.963
31478WAT     H294677   2.071   3.058   5.814
31479WAT      O94678   9.820   7.135   5.552
31479WAT     H194679   9.774   7.052   5.522
31479WAT     H294680   9.917   7.116   5.568
31480WAT      O94681   4.774   8.266   9.894
31480WAT     H194682   4.813   8.181   9.860
31480WAT     H294683   4.736   8.318   9.817
31481WAT      O94684   5.092   1.216   7.003
31481WAT     H194685   5.028   1.292   6.997
31481WAT     H294686   5.085   1.174   7.094
31482WAT      O94687   6.944   3.716   8.940
31482WAT     H194688   6.930   3.802   8.891
31482WAT     H294689   6.888   3.644   8.897
31483WAT      O94690   4.787   3.411   1.243
31483WAT     H194691   4.875   3.374   1.213
31483WAT     H294692   4.790   3.511   1.238
31484WAT      O94693   8.581   8.048   5.027
31484WAT     H194694   8.640   8.128   5.015
31484WAT     H294695   8.636   7.965   5.019
31485WAT      O94696   7.043   4.327   2.342
31485WAT     H194697   7.058   4.233   2.373
31485WAT     H294698   6.972   4.370   2.398
31486WAT      O94699   3.416   7.816   7.751
31486WAT     H194700   3.329   7.865   7.755
31486WAT     H294701   3.405   7.732   7.698
31487WAT      O94702   4.132   8.591   3.685
31487WAT     H194703   4.099   8.565   3.775
31487WAT     H294704   4.054   8.604   3.624
31488WAT      O94705   2.871   8.930   1.519
31488WAT     H194706   2.800   8.860   1.519
31488WAT     H294707   2.858   8.990   1.598
31489WAT      O94708   0.964   8.350   3.333
31489WAT     H194709   0.928   8.316   3.420
31489WAT     H294710   0.981   8.272   3.272
31490WAT      O94711   1.706   2.192   8.802
31490WAT     H194712   1.795   2.171   8.763
31490WAT     H294713   1.712   2.191   8.902
31491WAT      O94714   4.921   4.014   6.970
31491WAT     H194715   4.853   4.037   6.899
31491WAT     H294716   4.957   3.922   6.953
31492WAT      O94717   5.394   5.829   3.649
31492WAT     H194718   5.459   5.770   3.696
31492WAT     H294719   5.443   5.889   3.586
31493WAT      O94720   2.668   7.749   4.046
31493WAT     H194721   2.604   7.695   3.991
31493WAT     H294722   2.642   7.745   4.142
31494WAT      O94723   9.597   6.492   0.541
31494WAT     H194724   9.532   6.486   0.616
31494WAT     H294725   9.573   6.569   0.482
31495WAT      O94726   0.899   5.788   4.659
31495WAT     H194727   0.861   5.782   4.567
31495WAT     H294728   0.828   5.821   4.722
31496WAT      O94729   7.868   0.548   7.198
31496WAT     H194730   7.938   0.616   7.219
31496WAT     H294731   7.781   0.575   7.238
31497WAT      O94732   1.264   8.389   1.191
31497WAT     H194733   1.191   8.321   1.200
31497WAT     H294734   1.236   8.474   1.235
31498WAT      O94735   0.619   4.912   8.436
31498WAT     H194736   0.587   4.823   8.469
31498WAT     H294737   0.637   4.971   8.515
31499WAT      O94738   4.306   0.043   5.648
31499WAT     H194739   4.207   0.052   5.654
31499WAT     H294740   4.338  -0.029   5.711
31500WAT      O94741   7.215   7.164   2.211
31500WAT     H194742   7.204   7.262   2.228
31500WAT     H294743   7.161   7.139   2.130
31501WAT      O94744   5.810   3.992   1.076
31501WAT     H194745   5.722   3.952   1.053
31501WAT     H294746   5.802   4.091   1.081
31502WAT      O94747   3.451   9.433   9.528
31502WAT     H194748   3.528   9.381   9.491
31502WAT     H294749   3.417   9.387   9.611
31503WAT      O94750   4.065   5.448   9.297
31503WAT     H194751   4.099   5.378   9.359
31503WAT     H294752   3.985   5.413   9.248
31504WAT      O94753   6.066   7.294   1.117
31504WAT     H194754   6.074   7.365   1.188
31504WAT     H294755   6.089   7.205   1.156
31505WAT      O94756   3.243   5.416   6.103
31505WAT     H194757   3.259   5.323   6.138
31505WAT     H294758   3.321   5.444   6.047
31506WAT      O94759   0.691   4.825   1.940
31506WAT     H194760   0.681   4.750   1.875
31506WAT     H294761   0.705   4.910   1.890
31507WAT      O94762   0.312   0.971   8.093
31507WAT     H194763   0.249   0.983   8.016
31507WAT     H294764   0.288   1.034   8.166
31508WAT      O94765   3.194   6.864   9.787
31508WAT     H194766   3.101   6.892   9.765
31508WAT     H294767   3.239   6.830   9.705
31509WAT      O94768   4.052   3.483   0.257
31509WAT     H194769   4.049   3.383   0.261
31509WAT     H294770   4.131   3.512   0.203
31510WAT      O94771   1.197   9.358   3.376
31510WAT     H194772   1.243   9.413   3.306
31510WAT     H294773   1.264   9.330   3.445
31511WAT      O94774   5.563   6.843   9.508
31511WAT     H194775   5.480   6.857   9.455
31511WAT     H294776   5.540   6.832   9.605
31512WAT      O94777   1.107   3.138   1.365
31512WAT     H194778   1.174   3.189   1.418
31512WAT     H294779   1.075   3.193   1.288
31513WAT      O94780   9.533   3.139   4.213
31513WAT     H194781   9.572   3.047   4.212
31513WAT     H294782   9.594   3.202   4.164
31514WAT      O94783   6.227   8.675   7.911
31514WAT     H194784   6.180   8.715   7.990
31514WAT     H294785   6.211   8.577   7.909
31515WAT      O94786   2.213   3.037   2.851
31515WAT     H194787   2.305   3.001   2.867
31515WAT     H294788   2.202   3.058   2.754
31516WAT      O94789   7.311   2.174   4.079
31516WAT     H194790   7.285   2.127   4.164
31516WAT     H294791   7.301   2.112   4.002
31517WAT      O94792   7.894   9.487   0.084
31517WAT     H194793   7.807   9.534   0.066
31517WAT     H294794   7.876   9.395   0.118
31518WAT      O94795   6.421   0.652   1.951
31518WAT     H194796   6.415   0.597   1.867
31518WAT     H294797   6.397   0.595   2.029
31519WAT      O94798   2.871   4.672   7.259
31519WAT     H194799   2.946   4.683   7.325
31519WAT     H294800   2.905   4.695   7.167
31520WAT      O94801   5.739   2.873   6.803
31520WAT     H194802   5.707   2.968   6.808
31520WAT     H294803   5.665   2.811   6.829
31521WAT      O94804   5.826   5.887   9.748
31521WAT     H194805   5.753   5.827   9.781
31521WAT     H294806   5.791   5.943   9.673
31522WAT      O94807   9.311   9.153   5.024
31522WAT     H194808   9.258   9.228   4.986
31522WAT     H294809   9.296   9.070   4.969
31523WAT      O94810   6.141   4.938   1.331
31523WAT     H194811   6.181   4.898   1.413
31523WAT     H294812   6.211   4.947   1.260
31524WAT      O94813   7.054   4.647   5.309
31524WAT     H194814   7.115   4.638   5.230
31524WAT     H294815   7.099   4.609   5.390
31525WAT      O94816   8.432   6.069   4.281
31525WAT     H194817   8.502   6.001   4.302
31525WAT     H294818   8.474   6.148   4.236
31526WAT      O94819   1.861   8.736   9.164
31526WAT     H194820   1.886   8.651   9.210
31526WAT     H294821   1.857   8.720   9.065
31527WAT      O94822   2.993   8.114   8.211
31527WAT     H194823   2.924   8.085   8.278
31527WAT     H294824   3.004   8.213   8.215
31528WAT      O94825   1.111   6.627   9.754
31528WAT     H194826   1.168   6.708   9.762
31528WAT     H294827   1.083   6.614   9.659
31529WAT      O94828   0.014   0.308   3.969
31529WAT     H194829   0.078   0.255   4.025
31529WAT     H294830   0.028   0.287   3.872
31530WAT      O94831   3.546   8.948   5.419
31530WAT     H194832   3.463   8.995   5.447
31530WAT     H294833   3.566   8.874   5.484
31531WAT      O94834   7.723   8.784   8.503
31531WAT     H194835   7.756   8.872   8.471
31531WAT     H294836   7.784   8.711   8.470
31532WAT      O94837   0.881   5.517   9.114
31532WAT     H194838   0.842   5.487   9.027
31532WAT     H294839   0.808   5.545   9.176
31533WAT      O94840   0.460   0.389   3.808
31533WAT     H194841   0.384   0.450   3.829
31533WAT     H294842   0.469   0.320   3.880
31534WAT      O94843   5.811   9.534   1.501
31534WAT     H194844   5.723   9.518   1.546
31534WAT     H294845   5.884   9.531   1.568
31535WAT      O94846   8.044   1.599   6.506
31535WAT     H194847   8.072   1.682   6.458
31535WAT     H294848   7.994   1.540   6.442
31536WAT      O94849   3.381   2.095   9.707
31536WAT     H194850   3.313   2.143   9.652
31536WAT     H294851   3.438   2.161   9.755
31537WAT      O94852   8.523   4.275   8.950
31537WAT     H194853   8.515   4.177   8.969
31537WAT     H294854   8.600   4.291   8.889
31538WAT      O94855   7.782   4.480   2.193
31538WAT     H194856   7.856   4.482   2.260
31538WAT     H294857   7.714   4.412   2.222
31539WAT      O94858   7.949   9.835   6.470
31539WAT     H194859   7.895   9.918   6.485
31539WAT     H294860   7.927   9.768   6.541
31540WAT      O94861   5.991   6.835   3.087
31540WAT     H194862   5.914   6.883   3.045
31540WAT     H294863   6.073   6.845   3.030
31541WAT      O94864   8.291   2.900   7.724
31541WAT     H194865   8.331   2.934   7.639
31541WAT     H294866   8.273   2.976   7.785
31542WAT      O94867   0.040   9.302   5.588
31542WAT     H194868   0.068   9.363   5.513
31542WAT     H294869  -0.043   9.337   5.630
31543WAT      O94870   3.000   5.133   2.620
31543WAT     H194871   3.074   5.193   2.590
31543WAT     H294872   2.972   5.158   2.712
31544WAT      O94873   6.831   2.876   4.904
31544WAT     H194874   6.761   2.868   4.833
31544WAT     H294875   6.866   2.970   4.905
31545WAT      O94876   6.359   2.700   3.428
31545WAT     H194877   6.377   2.713   3.525
31545WAT     H294878   6.284   2.760   3.400
31546WAT      O94879   2.093   6.610   0.482
31546WAT     H194880   1.997   6.622   0.455
31546WAT     H294881   2.137   6.699   0.491
31547WAT      O94882   8.873   3.499   9.359
31547WAT     H194883   8.831   3.514   9.449
31547WAT     H294884   8.926   3.414   9.360
31548WAT      O94885   8.632   7.058   6.479
31548WAT     H194886   8.711   7.106   6.517
31548WAT     H294887   8.622   6.969   6.523
31549WAT      O94888   0.990   3.094   4.781
31549WAT     H194889   0.892   3.075   4.777
31549WAT     H294890   1.008   3.184   4.741
31550WAT      O94891   3.028   0.816   4.256
31550WAT     H194892   3.066   0.787   4.168
31550WAT     H294893   3.030   0.916   4.262
31551WAT      O94894   4.424   7.317   3.672
31551WAT     H194895   4.360   7.394   3.662
31551WAT     H294896   4.427   7.265   3.587
31552WAT      O94897   0.457   1.742   0.716
31552WAT     H194898   0.404   1.659   0.700
31552WAT     H294899   0.510   1.764   0.633
31553WAT      O94900   1.458   7.087   6.783
31553WAT     H194901   1.367   7.098   6.744
31553WAT     H294902   1.468   7.146   6.863
31554WAT      O94903   0.882   5.198   2.490
31554WAT     H194904   0.955   5.185   2.556
31554WAT     H294905   0.794   5.179   2.533
31555WAT      O94906   7.019   1.708   5.135
31555WAT     H194907   6.931   1.754   5.120
31555WAT     H294908   7.027   1.685   5.232
31556WAT      O94909   2.925   4.044   6.988
31556WAT     H194910   2.908   3.954   7.028
31556WAT     H294911   3.002   4.038   6.924
31557WAT      O94912   4.834   7.802   2.922
31557WAT     H194913   4.920   7.764   2.889
31557WAT     H294914   4.846   7.899   2.943
31558WAT      O94915   3.643   3.639   1.881
31558WAT     H194916   3.571   3.593   1.932
31558WAT     H294917   3.650   3.599   1.789
31559WAT      O94918   0.530   3.770   2.951
31559WAT     H194919   0.488   3.845   2.901
31559WAT     H294920   0.602   3.806   3.011
31560WAT      O94921   7.775   8.209   3.916
31560WAT     H194922   7.821   8.234   4.002
31560WAT     H294923   7.754   8.111   3.917
31561WAT      O94924   4.102   8.027   6.051
31561WAT     H194925   4.009   8.020   6.015
31561WAT     H294926   4.167   8.000   5.979
31562WAT      O94927   5.339   8.216   1.055
31562WAT     H194928   5.412   8.281   1.078
31562WAT     H294929   5.378   8.125   1.042
31563WAT      O94930   3.501   7.027   9.317
31563WAT     H194931   3.516   7.112   9.267
31563WAT     H294932   3.433   6.972   9.270
31564WAT      O94933   9.295   7.850   7.789
31564WAT     H194934   9.303   7.796   7.873
31564WAT     H294935   9.275   7.789   7.712
31565WAT      O94936   7.717   3.916   4.602
31565WAT     H194937   7.797   3.877   4.556
31565WAT     H294938   7.647   3.845   4.612
31566WAT      O94939   0.264   7.803   4.239
31566WAT     H194940   0.253   7.842   4.330
31566WAT     H294941   0.313   7.867   4.181
31567WAT      O94942   7.418   6.137   6.432
31567WAT     H194943   7.485   6.196   6.388
31567WAT     H294944   7.427   6.044   6.397
31568WAT      O94945   4.306   0.487   8.444
31568WAT     H194946   4.362   0.464   8.364
31568WAT     H294947   4.365   0.519   8.518
31569WAT      O94948   6.527   6.014   3.345
31569WAT     H194949   6.572   6.005   3.434
31569WAT     H294950   6.593   5.995   3.272
31570WAT      O94951   7.603   7.869   9.471
31570WAT     H194952   7.687   7.922   9.457
31570WAT     H294953   7.552   7.863   9.385
31571WAT      O94954   8.271   2.797   3.877
31571WAT     H194955   8.267   2.772   3.780
31571WAT     H294956   8.227   2.726   3.931
31572WAT      O94957   7.468   2.560   9.573
31572WAT     H194958   7.485   2.654   9.601
31572WAT     H294959   7.527   2.537   9.496
31573WAT      O94960   2.790   8.149   0.383
31573WAT     H194961   2.699   8.107   0.379
31573WAT     H294962   2.841   8.123   0.301
31574WAT      O94963   7.138   6.930   2.846
31574WAT     H194964   7.177   6.912   2.756
31574WAT     H294965   7.102   6.845   2.884
31575WAT      O94966   2.687   5.175   6.025
31575WAT     H194967   2.645   5.261   6.055
31575WAT     H294968   2.736   5.191   5.940
31576WAT      O94969   4.370   2.731   8.043
31576WAT     H194970   4.387   2.822   8.082
31576WAT     H294971   4.417   2.662   8.098
31577WAT      O94972   5.758   7.234   6.175
31577WAT     H194973   5.821   7.225   6.251
31577WAT     H294974   5.781   7.316   6.123
31578WAT      O94975   8.649   0.908   1.269
31578WAT     H194976   8.594   0.988   1.291
31578WAT     H294977   8.737   0.913   1.317
31579WAT      O94978   8.527   4.224   6.154
31579WAT     H194979   8.524   4.205   6.252
31579WAT     H294980   8.481   4.152   6.104
31580WAT      O94981   5.479   1.645   3.462
31580WAT     H194982   5.537   1.643   3.381
31580WAT     H294983   5.526   1.600   3.538
31581WAT      O94984   5.949   2.343   1.937
31581WAT     H194985   5.926   2.431   1.979
31581WAT     H294986   5.871   2.281   1.946
31582WAT      O94987   6.513   0.004   1.776
31582WAT     H194988   6.463   0.024   1.861
31582WAT     H294989   6.471  -0.075   1.731
31583WAT      O94990   9.361   2.019   3.663
31583WAT     H194991   9.331   2.032   3.758
31583WAT     H294992   9.304   2.074   3.602
31584WAT      O94993   3.251   4.732   9.536
31584WAT     H194994   3.314   4.696   9.604
31584WAT     H294995   3.251   4.673   9.455
31585WAT      O94996   6.198   1.598   6.553
31585WAT     H194997   6.238   1.600   6.462
31585WAT     H294998   6.099   1.583   6.546
31586WAT      O94999   2.937   5.827   1.811
31586WAT     H195000   3.000   5.822   1.733
31586WAT     H295001   2.958   5.908   1.865
31587WAT      O95002   2.111   7.546   4.118
31587WAT     H195003   2.100   7.495   4.203
31587WAT     H295004   2.128   7.642   4.138
31588WAT      O95005   1.859   7.633   6.332
31588WAT     H195006   1.872   7.732   6.331
31588WAT     H295007   1.890   7.596   6.419
31589WAT      O95008   7.047   6.739   0.751
31589WAT     H195009   7.116   6.701   0.813
31589WAT     H295010   7.044   6.684   0.668
31590WAT      O95011   4.841   3.485   1.806
31590WAT     H195012   4.770   3.436   1.856
31590WAT     H295013   4.808   3.506   1.713
31591WAT      O95014   3.193   4.851   9.809
31591WAT     H195015   3.095   4.844   9.826
31591WAT     H295016   3.217   4.798   9.727
31592WAT      O95017   9.059   9.393   8.412
31592WAT     H195018   9.122   9.392   8.490
31592WAT     H295019   9.077   9.473   8.355
31593WAT      O95020   1.201   4.094   4.399
31593WAT     H195021   1.158   4.016   4.445
31593WAT     H295022   1.291   4.111   4.440
31594WAT      O95023   6.109   6.628   4.350
31594WAT     H195024   6.195   6.644   4.397
31594WAT     H295025   6.044   6.584   4.412
31595WAT      O95026   9.621   2.756   7.413
31595WAT     H195027   9.547   2.798   7.361
31595WAT     H295028   9.583   2.696   7.484
31596WAT      O95029   6.532   3.453   7.207
31596WAT     H195030   6.462   3.386   7.229
31596WAT     H295031   6.554   3.506   7.289
31597WAT      O95032   9.177   8.715   1.519
31597WAT     H195033   9.220   8.799   1.486
31597WAT     H295034   9.246   8.643   1.528
31598WAT      O95035   6.185   0.705   3.314
31598WAT     H195036   6.245   0.632   3.347
31598WAT     H295037   6.135   0.673   3.234
31599WAT      O95038   3.843   1.033   3.387
31599WAT     H195039   3.788   0.958   3.350
31599WAT     H295040   3.917   0.996   3.444
31600WAT      O95041   8.167   5.310   0.592
31600WAT     H195042   8.168   5.275   0.686
31600WAT     H295043   8.170   5.409   0.594
31601WAT      O95044   7.759   5.922   8.999
31601WAT     H195045   7.705   5.906   9.081
31601WAT     H295046   7.856   5.924   9.023
31602WAT      O95047   4.451   3.681   0.723
31602WAT     H195048   4.428   3.768   0.680
31602WAT     H295049   4.486   3.698   0.816
31603WAT      O95050   7.764   0.582   8.322
31603WAT     H195051   7.775   0.554   8.418
31603WAT     H295052   7.668   0.576   8.296
31604WAT      O95053   8.563   4.755   5.411
31604WAT     H195054   8.627   4.822   5.449
31604WAT     H295055   8.590   4.663   5.439
31605WAT      O95056   7.350   5.606   1.960
31605WAT     H195057   7.351   5.690   1.906
31605WAT     H295058   7.439   5.595   2.005
31606WAT      O95059   7.121   3.253   4.074
31606WAT     H195060   7.131   3.155   4.055
31606WAT     H295061   7.199   3.285   4.126
31607WAT      O95062   4.615   5.399   9.313
31607WAT     H195063   4.695   5.443   9.274
31607WAT     H295064   4.550   5.468   9.345
31608WAT      O95065   8.453   7.663   5.896
31608WAT     H195066   8.410   7.597   5.958
31608WAT     H295067   8.552   7.647   5.893
31609WAT      O95068   8.384   9.313   6.159
31609WAT     H195069   8.424   9.224   6.137
31609WAT     H295070   8.342   9.310   6.250
31610WAT      O95071   5.908   0.996   6.807
31610WAT     H195072   5.893   1.017   6.710
31610WAT     H295073   6.001   1.019   6.833
31611WAT      O95074   5.880   9.304   2.554
31611WAT     H195075   5.882   9.306   2.654
31611WAT     H295076   5.786   9.315   2.523
31612WAT      O95077   8.602   0.529   8.544
31612WAT     H195078   8.570   0.435   8.559
31612WAT     H295079   8.563   0.589   8.614
31613WAT      O95080   0.290   5.684   5.470
31613WAT     H195081   0.349   5.606   5.491
31613WAT     H295082   0.217   5.690   5.538
31614WAT      O95083   5.400   7.784   8.685
31614WAT     H195084   5.488   7.777   8.638
31614WAT     H295085   5.412   7.765   8.782
31615WAT      O95086   9.843   0.835   1.207
31615WAT     H195087   9.845   0.833   1.307
31615WAT     H295088   9.910   0.902   1.174
31616WAT      O95089   8.671   4.937   1.699
31616WAT     H195090   8.632   4.991   1.624
31616WAT     H295091   8.741   4.876   1.663
31617WAT      O95092   5.019   4.291   0.612
31617WAT     H195093   5.002   4.193   0.612
31617WAT     H295094   5.010   4.327   0.519
31618WAT      O95095   4.745   1.543   7.602
31618WAT     H195096   4.783   1.579   7.687
31618WAT     H295097   4.657   1.499   7.621
31619WAT      O95098   6.457   3.391   0.814
31619WAT     H195099   6.368   3.379   0.858
31619WAT     H295100   6.507   3.465   0.859
31620WAT      O95101   4.398   0.796   7.106
31620WAT     H195102   4.327   0.825   7.042
31620WAT     H295103   4.360   0.788   7.198
31621WAT      O95104   8.479   8.984   2.427
31621WAT     H195105   8.441   8.903   2.382
31621WAT     H295106   8.577   8.969   2.443
31622WAT      O95107   0.909   2.383   8.851
31622WAT     H195108   0.988   2.360   8.794
31622WAT     H295109   0.874   2.473   8.824
31623WAT      O95110   2.082   9.185   0.591
31623WAT     H195111   2.146   9.224   0.658
31623WAT     H295112   1.989   9.217   0.611
31624WAT      O95113   2.942   4.839   6.602
31624WAT     H195114   3.023   4.896   6.612
31624WAT     H295115   2.969   4.743   6.594
31625WAT      O95116   8.499   3.996   1.399
31625WAT     H195117   8.432   3.957   1.463
31625WAT     H295118   8.452   4.029   1.317
31626WAT      O95119   2.423   3.584   6.857
31626WAT     H195120   2.412   3.485   6.868
31626WAT     H295121   2.516   3.604   6.824
31627WAT      O95122   2.815   0.101   5.647
31627WAT     H195123   2.754   0.092   5.725
31627WAT     H295124   2.767   0.145   5.571
31628WAT      O95125   9.084   7.143   8.325
31628WAT     H195126   9.012   7.106   8.265
31628WAT     H295127   9.137   7.067   8.363
31629WAT      O95128   2.797   8.646   4.542
31629WAT     H195129   2.807   8.617   4.638
31629WAT     H295130   2.797   8.565   4.483
31630WAT      O95131   2.797   9.339   2.817
31630WAT     H195132   2.891   9.353   2.850
31630WAT     H295133   2.770   9.244   2.831
31631WAT      O95134   3.388   5.338   9.631
31631WAT     H195135   3.351   5.257   9.676
31631WAT     H295136   3.418   5.403   9.700
31632WAT      O95137   8.977   1.853   4.559
31632WAT     H195138   9.023   1.936   4.528
31632WAT     H295139   8.941   1.867   4.651
31633WAT      O95140   8.820   9.501   6.233
31633WAT     H195141   8.831   9.526   6.137
31633WAT     H295142   8.742   9.550   6.272
31634WAT      O95143   7.203   4.727   6.723
31634WAT     H195144   7.292   4.772   6.731
31634WAT     H295145   7.153   4.767   6.646
31635WAT      O95146   4.335   0.696   5.076
31635WAT     H195147   4.307   0.714   5.170
31635WAT     H295148   4.337   0.781   5.025
31636WAT      O95149   9.337   1.690   2.518
31636WAT     H195150   9.265   1.735   2.571
31636WAT     H295151   9.364   1.606   2.564
31637WAT      O95152   3.863   7.070   7.862
31637WAT     H195153   3.890   7.133   7.935
31637WAT     H295154   3.913   6.984   7.871
31638WAT      O95155   8.935   4.008   8.360
31638WAT     H195156   9.016   4.052   8.400
31638WAT     H295157   8.964   3.946   8.287
31639WAT      O95158   3.397   8.485   5.168
31639WAT     H195159   3.465   8.462   5.098
31639WAT     H295160   3.432   8.457   5.257
31640WAT      O95161   6.799   3.676   6.061
31640WAT     H195162   6.780   3.693   5.964
31640WAT     H295163   6.835   3.583   6.072
31641WAT      O95164   0.657   3.969   3.764
31641WAT     H195165   0.688   3.895   3.824
31641WAT     H295166   0.565   3.949   3.732
31642WAT      O95167   0.545   2.096   0.381
31642WAT     H195168   0.575   2.131   0.470
31642WAT     H295169   0.621   2.104   0.316
31643WAT      O95170   5.553   6.522   6.029
31643WAT     H195171   5.477   6.460   6.047
31643WAT     H295172   5.628   6.471   5.987
31644WAT      O95173   2.944   5.342   2.879
31644WAT     H195174   2.943   5.416   2.812
31644WAT     H295175   3.015   5.361   2.947
31645WAT      O95176   5.591   2.960   6.396
31645WAT     H195177   5.680   2.956   6.351
31645WAT     H295178   5.575   2.876   6.448
31646WAT      O95179   9.383   8.236   6.549
31646WAT     H195180   9.296   8.271   6.582
31646WAT     H295181   9.457   8.266   6.610
31647WAT      O95182   5.554   4.567   2.195
31647WAT     H195183   5.586   4.658   2.220
31647WAT     H295184   5.488   4.534   2.262
31648WAT      O95185   4.692   8.755   0.587
31648WAT     H195186   4.728   8.799   0.505
31648WAT     H295187   4.763   8.699   0.630
31649WAT      O95188   9.614   6.247   9.740
31649WAT     H195189   9.548   6.180   9.706
31649WAT     H295190   9.685   6.200   9.793
31650WAT      O95191   4.702   1.811   5.211
31650WAT     H195192   4.645   1.893   5.200
31650WAT     H295193   4.773   1.829   5.280
31651WAT      O95194   3.824   0.606   8.054
31651WAT     H195195   3.922   0.621   8.051
31651WAT     H295196   3.801   0.520   8.007
31652WAT      O95197   0.351   6.418   4.666
31652WAT     H195198   0.372   6.403   4.569
31652WAT     H295199   0.365   6.514   4.689
31653WAT      O95200   2.276   5.760   3.919
31653WAT     H195201   2.355   5.746   3.978
31653WAT     H295202   2.198   5.788   3.974
31654WAT      O95203   5.811   2.596   0.072
31654WAT     H195204   5.811   2.642  -0.017
31654WAT     H295205   5.858   2.508   0.063
31655WAT      O95206   5.895   9.132   8.958
31655WAT     H195207   5.970   9.095   8.903
31655WAT     H295208   5.845   9.057   9.001
31656WAT      O95209   4.274   3.307   3.693
31656WAT     H195210   4.289   3.295   3.791
31656WAT     H295211   4.301   3.400   3.666
31657WAT      O95212   7.279   5.050   7.336
31657WAT     H195213   7.304   4.988   7.262
31657WAT     H295214   7.310   5.143   7.314
31658WAT      O95215   3.381   3.682   5.218
31658WAT     H195216   3.479   3.666   5.205
31658WAT     H295217   3.368   3.748   5.292
31659WAT      O95218   6.583   4.868   5.578
31659WAT     H195219   6.666   4.833   5.534
31659WAT     H295220   6.595   4.964   5.600
31660WAT      O95221   3.034   6.494   3.075
31660WAT     H195222   3.127   6.485   3.041
31660WAT     H295223   3.023   6.582   3.120
31661WAT      O95224   9.578   6.387   2.645
31661WAT     H195225   9.651   6.341   2.695
31661WAT     H295226   9.496   6.392   2.702
31662WAT      O95227   4.696   1.605   5.976
31662WAT     H195228   4.774   1.622   6.035
31662WAT     H295229   4.726   1.604   5.880
31663WAT      O95230   8.630   2.096   9.219
31663WAT     H195231   8.641   2.006   9.260
31663WAT     H295232   8.719   2.131   9.191
31664WAT      O95233   9.832   3.194   1.704
31664WAT     H195234   9.784   3.167   1.787
31664WAT     H295235   9.930   3.176   1.714
31665WAT      O95236   7.728   5.771   0.149
31665WAT     H195237   7.666   5.820   0.089
31665WAT     H295238   7.697   5.676   0.159
31666WAT      O95239   9.067   2.708   5.264
31666WAT     H195240   9.094   2.745   5.353
31666WAT     H295241   9.109   2.763   5.192
31667WAT      O95242   8.603   9.030   7.322
31667WAT     H195243   8.630   8.973   7.245
31667WAT     H295244   8.656   9.004   7.403
31668WAT      O95245   1.033   8.807   3.714
31668WAT     H195246   1.033   8.820   3.615
31668WAT     H295247   0.950   8.759   3.741
31669WAT      O95248   8.607   6.165   7.440
31669WAT     H195249   8.615   6.066   7.430
31669WAT     H295250   8.512   6.193   7.422
31670WAT      O95251   7.661   5.576   2.834
31670WAT     H195252   7.744   5.625   2.859
31670WAT     H295253   7.608   5.630   2.769
31671WAT      O95254   1.917   9.020   3.685
31671WAT     H195255   1.944   9.075   3.606
31671WAT     H295256   1.913   8.924   3.660
31672WAT      O95257   6.504   4.997   9.184
31672WAT     H195258   6.601   4.979   9.165
31672WAT     H295259   6.448   4.959   9.110
31673WAT      O95260   0.006   4.514   4.807
31673WAT     H195261  -0.028   4.488   4.897
31673WAT     H295262   0.093   4.468   4.790
31674WAT      O95263   7.358   4.771   8.289
31674WAT     H195264   7.321   4.695   8.342
31674WAT     H295265   7.417   4.735   8.216
31675WAT      O95266   3.442   6.596   5.629
31675WAT     H195267   3.400   6.560   5.547
31675WAT     H295268   3.425   6.535   5.706
31676WAT      O95269   5.284   7.140   0.927
31676WAT     H195270   5.202   7.122   0.873
31676WAT     H295271   5.361   7.158   0.865
31677WAT      O95272   6.497   7.567   0.037
31677WAT     H195273   6.475   7.614   0.123
31677WAT     H295274   6.513   7.636  -0.035
31678WAT      O95275   2.851   4.549   1.745
31678WAT     H195276   2.831   4.544   1.647
31678WAT     H295277   2.844   4.643   1.775
31679WAT      O95278   2.061   8.048   6.510
31679WAT     H195279   2.035   8.067   6.605
31679WAT     H295280   2.008   8.106   6.448
31680WAT      O95281   3.048   1.624   3.819
31680WAT     H195282   3.128   1.567   3.799
31680WAT     H295283   3.073   1.720   3.812
31681WAT      O95284   1.202   3.576   3.498
31681WAT     H195285   1.187   3.675   3.501
31681WAT     H295286   1.213   3.541   3.591
31682WAT      O95287   5.869   7.186   1.636
31682WAT     H195288   5.954   7.199   1.584
31682WAT     H295289   5.884   7.217   1.731
31683WAT      O95290   6.882   9.175   3.520
31683WAT     H195291   6.957   9.238   3.540
31683WAT     H295292   6.819   9.218   3.456
31684WAT      O95293   2.322   9.102   3.542
31684WAT     H195294   2.264   9.053   3.607
31684WAT     H295295   2.414   9.111   3.579
31685WAT      O95296   5.075   2.815   6.481
31685WAT     H195297   5.041   2.851   6.395
31685WAT     H295298   4.999   2.802   6.545
31686WAT      O95299   8.665   0.368   4.358
31686WAT     H195300   8.624   0.402   4.443
31686WAT     H295301   8.657   0.438   4.287
31687WAT      O95302   3.049   9.759   9.816
31687WAT     H195303   3.019   9.846   9.776
31687WAT     H295304   3.058   9.769   9.915
31688WAT      O95305   2.706   9.309   5.546
31688WAT     H195306   2.756   9.314   5.633
31688WAT     H295307   2.610   9.287   5.565
31689WAT      O95308   3.169   4.348   8.133
31689WAT     H195309   3.090   4.371   8.077
31689WAT     H295310   3.149   4.266   8.188
31690WAT      O95311   3.162   5.546   0.859
31690WAT     H195312   3.187   5.452   0.883
31690WAT     H295313   3.235   5.588   0.804
31691WAT      O95314   1.086   2.871   7.417
31691WAT     H195315   1.063   2.803   7.347
31691WAT     H295316   1.003   2.913   7.452
31692WAT      O95317   2.680   9.439   4.227
31692WAT     H195318   2.584   9.464   4.239
31692WAT     H295319   2.699   9.426   4.129
31693WAT      O95320   0.490   2.035   7.132
31693WAT     H195321   0.515   2.103   7.063
31693WAT     H295322   0.567   2.023   7.195
31694WAT      O95323   1.010   9.589   8.429
31694WAT     H195324   1.004   9.498   8.388
31694WAT     H295325   1.030   9.657   8.359
31695WAT      O95326   3.046   1.137   4.115
31695WAT     H195327   2.979   1.198   4.071
31695WAT     H295328   3.116   1.192   4.161
31696WAT      O95329   5.349   5.009   8.631
31696WAT     H195330   5.282   5.062   8.578
31696WAT     H295331   5.301   4.936   8.680
31697WAT      O95332   1.396   6.090   6.461
31697WAT     H195333   1.443   6.134   6.384
31697WAT     H295334   1.298   6.092   6.445
31698WAT      O95335   3.877   1.977   7.977
31698WAT     H195336   3.848   1.882   7.966
31698WAT     H295337   3.800   2.033   8.005
31699WAT      O95338   1.797   3.208   2.096
31699WAT     H195339   1.766   3.299   2.070
31699WAT     H295340   1.732   3.140   2.064
31700WAT      O95341   0.391   8.764   1.102
31700WAT     H195342   0.373   8.859   1.075
31700WAT     H295343   0.460   8.725   1.042
31701WAT      O95344   5.713   8.766   5.953
31701WAT     H195345   5.724   8.813   5.866
31701WAT     H295346   5.779   8.691   5.959
31702WAT      O95347   1.320   8.078   1.626
31702WAT     H195348   1.262   8.126   1.692
31702WAT     H295349   1.263   8.036   1.556
31703WAT      O95350   7.247   8.754   7.186
31703WAT     H195351   7.211   8.671   7.144
31703WAT     H295352   7.345   8.760   7.169
31704WAT      O95353   6.720   2.025   9.048
31704WAT     H195354   6.702   2.013   9.145
31704WAT     H295355   6.806   1.980   9.024
31705WAT      O95356   9.592   6.120   7.075
31705WAT     H195357   9.676   6.161   7.113
31705WAT     H295358   9.590   6.135   6.976
31706WAT      O95359   5.132   5.216   5.622
31706WAT     H195360   5.118   5.118   5.612
31706WAT     H295361   5.072   5.265   5.559
31707WAT      O95362   5.142   1.321   3.991
31707WAT     H195363   5.105   1.382   4.062
31707WAT     H295364   5.227   1.360   3.954
31708WAT      O95365   8.607   0.213   8.666
31708WAT     H195366   8.629   0.116   8.682
31708WAT     H295367   8.572   0.253   8.751
31709WAT      O95368   5.957   9.336   0.932
31709WAT     H195369   5.872   9.388   0.946
31709WAT     H295370   5.995   9.311   1.021
31710WAT      O95371   2.069   4.856   3.074
31710WAT     H195372   1.976   4.829   3.097
31710WAT     H295373   2.128   4.775   3.073
31711WAT      O95374   5.345   9.513   4.723
31711WAT     H195375   5.298   9.559   4.647
31711WAT     H295376   5.395   9.580   4.777
31712WAT      O95377   1.546   1.851   1.083
31712WAT     H195378   1.503   1.761   1.082
31712WAT     H295379   1.644   1.840   1.099
31713WAT      O95380   4.823   6.181   3.877
31713WAT     H195381   4.788   6.151   3.966
31713WAT     H295382   4.772   6.134   3.805
31714WAT      O95383   3.980   9.406   0.801
31714WAT     H195384   3.956   9.415   0.704
31714WAT     H295385   4.076   9.377   0.808
31715WAT      O95386   5.613   4.055   6.302
31715WAT     H195387   5.578   3.962   6.317
31715WAT     H295388   5.687   4.052   6.235
31716WAT      O95389   4.337   7.316   4.463
31716WAT     H195390   4.333   7.364   4.375
31716WAT     H295391   4.252   7.331   4.513
31717WAT      O95392   2.590   8.782   3.422
31717WAT     H195393   2.616   8.871   3.384
31717WAT     H295394   2.573   8.792   3.520
31718WAT      O95395   9.631   1.825   8.207
31718WAT     H195396   9.572   1.895   8.166
31718WAT     H295397   9.625   1.742   8.152
31719WAT      O95398   9.400   1.861   3.158
31719WAT     H195399   9.479   1.807   3.129
31719WAT     H295400   9.384   1.934   3.092
31720WAT      O95401   7.911   7.419   5.588
31720WAT     H195402   7.919   7.511   5.627
31720WAT     H295403   7.932   7.351   5.657
31721WAT      O95404   8.013   2.546   6.516
31721WAT     H195405   7.961   2.488   6.453
31721WAT     H295406   8.025   2.498   6.604
31722WAT      O95407   3.950   7.934   5.219
31722WAT     H195408   3.871   7.965   5.168
31722WAT     H295409   4.033   7.977   5.182
31723WAT      O95410   7.464   1.180   6.279
31723WAT     H195411   7.485   1.161   6.374
31723WAT     H295412   7.402   1.258   6.273
31724WAT      O95413   5.074   3.145   2.283
31724WAT     H195414   5.013   3.068   2.306
31724WAT     H295415   5.036   3.230   2.319
31725WAT      O95416   3.800   3.148   0.478
31725WAT     H195417   3.701   3.134   0.488
31725WAT     H295418   3.837   3.184   0.564
31726WAT      O95419   6.835   3.426   7.225
31726WAT     H195420   6.738   3.412   7.206
31726WAT     H295421   6.846   3.464   7.317
31727WAT      O95422   1.125   7.630   1.802
31727WAT     H195423   1.147   7.543   1.846
31727WAT     H295424   1.208   7.685   1.792
31728WAT      O95425   7.747   4.473   2.608
31728WAT     H195426   7.818   4.402   2.614
31728WAT     H295427   7.692   4.471   2.692
31729WAT      O95428   1.328   5.878   2.210
31729WAT     H195429   1.390   5.846   2.281
31729WAT     H295430   1.234   5.862   2.239
31730WAT      O95431   7.302   1.716   1.569
31730WAT     H195432   7.375   1.736   1.504
31730WAT     H295433   7.216   1.754   1.534
31731WAT      O95434   2.362   4.210   1.071
31731WAT     H195435   2.392   4.180   1.161
31731WAT     H295436   2.389   4.305   1.056
31732WAT      O95437   4.038   0.893   8.523
31732WAT     H195438   3.982   0.816   8.553
31732WAT     H295439   4.132   0.880   8.554
31733WAT      O95440   1.870   2.307   4.947
31733WAT     H195441   1.855   2.376   5.017
31733WAT     H295442   1.931   2.343   4.876
31734WAT      O95443   3.882   9.056   2.681
31734WAT     H195444   3.933   9.063   2.596
31734WAT     H295445   3.900   8.968   2.724
31735WAT      O95446   1.032   8.856   2.828
31735WAT     H195447   0.983   8.840   2.914
31735WAT     H295448   0.970   8.897   2.761
31736WAT      O95449   5.663   9.698   0.566
31736WAT     H195450   5.716   9.717   0.649
31736WAT     H295451   5.700   9.616   0.521
31737WAT      O95452   2.059   7.752   3.763
31737WAT     H195453   2.106   7.839   3.746
31737WAT     H295454   2.116   7.676   3.732
31738WAT      O95455   4.915   7.112   2.647
31738WAT     H195456   4.973   7.060   2.709
31738WAT     H295457   4.839   7.151   2.698
31739WAT      O95458   3.486   3.571   4.513
31739WAT     H195459   3.474   3.506   4.588
31739WAT     H295460   3.451   3.660   4.541
31740WAT      O95461   3.955   7.113   0.298
31740WAT     H195462   3.934   7.210   0.290
31740WAT     H295463   4.045   7.101   0.341
31741WAT      O95464   4.932   9.248   0.263
31741WAT     H195465   4.971   9.178   0.323
31741WAT     H295466   4.976   9.336   0.282
31742WAT      O95467   3.450   6.617   6.345
31742WAT     H195468   3.495   6.596   6.432
31742WAT     H295469   3.495   6.695   6.302
31743WAT      O95470   9.649   7.435   8.590
31743WAT     H195471   9.634   7.377   8.510
31743WAT     H295472   9.672   7.378   8.668
31744WAT      O95473   1.412   2.081   9.358
31744WAT     H195474   1.505   2.078   9.397
31744WAT     H295475   1.393   1.994   9.313
31745WAT      O95476   5.948   8.281   0.030
31745WAT     H195477   5.872   8.236  -0.018
31745WAT     H295478   6.020   8.214   0.048
31746WAT      O95479   3.186   6.652   7.410
31746WAT     H195480   3.253   6.591   7.367
31746WAT     H295481   3.223   6.684   7.498
31747WAT      O95482   6.499   0.143   4.961
31747WAT     H195483   6.518   0.207   5.036
31747WAT     H295484   6.475   0.054   4.998
31748WAT      O95485   6.756   3.369   9.853
31748WAT     H195486   6.833   3.427   9.825
31748WAT     H295487   6.763   3.350   9.951
31749WAT      O95488   4.645   1.037   7.454
31749WAT     H195489   4.566   1.099   7.455
31749WAT     H295490   4.684   1.031   7.545
31750WAT      O95491   9.162   4.915   8.728
31750WAT     H195492   9.244   4.970   8.716
31750WAT     H295493   9.090   4.970   8.770
31751WAT      O95494   4.591   6.074   4.427
31751WAT     H195495   4.675   6.029   4.457
31751WAT     H295496   4.526   6.005   4.395
31752WAT      O95497   4.754   7.706   0.668
31752WAT     H195498   4.808   7.731   0.587
31752WAT     H295499   4.691   7.780   0.690
31753WAT      O95500   4.413   4.837   5.558
31753WAT     H195501   4.462   4.764   5.512
31753WAT     H295502   4.476   4.912   5.578
31754WAT      O95503   3.599   9.298   2.007
31754WAT     H195504   3.515   9.251   1.980
31754WAT     H295505   3.606   9.385   1.958
31755WAT      O95506   6.655   7.456   7.070
31755WAT     H195507   6.704   7.539   7.045
31755WAT     H295508   6.595   7.429   6.995
31756WAT      O95509   9.808   2.656   5.225
31756WAT     H195510   9.710   2.673   5.222
31756WAT     H295511   9.854   2.719   5.162
31757WAT      O95512   2.941   1.303   5.761
31757WAT     H195513   2.933   1.218   5.811
31757WAT     H295514   3.028   1.304   5.711
31758WAT      O95515   5.470   0.750   6.094
31758WAT     H195516   5.502   0.699   6.014
31758WAT     H295517   5.530   0.731   6.172
31759WAT      O95518   5.288   0.396   4.915
31759WAT     H195519   5.336   0.451   4.983
31759WAT     H295520   5.274   0.304   4.950
31760WAT      O95521   9.409   4.448   0.971
31760WAT     H195522   9.431   4.530   0.917
31760WAT     H295523   9.323   4.463   1.020
31761WAT      O95524   6.365   1.725   1.996
31761WAT     H195525   6.337   1.710   2.091
31761WAT     H295526   6.459   1.692   1.983
31762WAT      O95527   5.869   5.969   6.379
31762WAT     H195528   5.886   5.999   6.472
31762WAT     H295529   5.920   6.027   6.315
31763WAT      O95530   8.311   7.963   4.719
31763WAT     H195531   8.230   8.021   4.709
31763WAT     H295532   8.295   7.875   4.673
31764WAT      O95533   6.197   7.286   3.760
31764WAT     H195534   6.235   7.211   3.815
31764WAT     H295535   6.148   7.350   3.819
31765WAT      O95536   2.182   1.644   1.361
31765WAT     H195537   2.164   1.685   1.451
31765WAT     H295538   2.279   1.618   1.355
31766WAT      O95539   4.217   1.628   1.572
31766WAT     H195540   4.226   1.660   1.477
31766WAT     H295541   4.153   1.687   1.621
31767WAT      O95542   3.525   4.422   8.162
31767WAT     H195543   3.455   4.488   8.188
31767WAT     H295544   3.558   4.443   8.069
31768WAT      O95545   3.010   2.735   4.875
31768WAT     H195546   3.106   2.764   4.876
31768WAT     H295547   3.005   2.637   4.890
31769WAT      O95548   6.804   7.288   9.753
31769WAT     H195549   6.883   7.242   9.712
31769WAT     H295550   6.821   7.386   9.756
31770WAT      O95551   5.919   8.159   3.845
31770WAT     H195552   5.954   8.187   3.935
31770WAT     H295553   5.824   8.129   3.854
31771WAT      O95554   9.193   0.295   3.247
31771WAT     H195555   9.209   0.311   3.149
31771WAT     H295556   9.201   0.198   3.267
31772WAT      O95557   9.727   9.500   2.778
31772WAT     H195558   9.642   9.475   2.823
31772WAT     H295559   9.708   9.565   2.704
31773WAT      O95560   3.381   1.479   6.444
31773WAT     H195561   3.393   1.422   6.362
31773WAT     H295562   3.290   1.464   6.482
31774WAT      O95563   8.145   4.484   6.246
31774WAT     H195564   8.079   4.438   6.187
31774WAT     H295565   8.234   4.489   6.199
31775WAT      O95566   6.627   0.159   4.485
31775WAT     H195567   6.593   0.074   4.526
31775WAT     H295568   6.550   0.213   4.451
31776WAT      O95569   5.100   2.912   1.665
31776WAT     H195570   5.022   2.873   1.714
31776WAT     H295571   5.176   2.847   1.668
31777WAT      O95572   8.468   5.216   8.937
31777WAT     H195573   8.476   5.238   8.840
31777WAT     H295574   8.549   5.249   8.985
31778WAT      O95575   2.425   0.750   3.563
31778WAT     H195576   2.507   0.807   3.574
31778WAT     H295577   2.368   0.787   3.490
31779WAT      O95578   6.879   1.054   0.769
31779WAT     H195579   6.962   1.059   0.714
31779WAT     H295580   6.903   1.062   0.866
31780WAT      O95581   9.003   4.186   7.243
31780WAT     H195582   9.016   4.169   7.341
31780WAT     H295583   9.028   4.281   7.222
31781WAT      O95584   2.625   4.780   1.579
31781WAT     H195585   2.669   4.713   1.519
31781WAT     H295586   2.625   4.869   1.535
31782WAT      O95587   5.370   9.745   8.026
31782WAT     H195588   5.364   9.786   7.935
31782WAT     H295589   5.292   9.775   8.081
31783WAT      O95590   5.946   3.390   4.160
31783WAT     H195591   5.879   3.386   4.085
31783WAT     H295592   5.926   3.470   4.217
31784WAT      O95593   7.123   3.936   4.937
31784WAT     H195594   7.181   3.857   4.919
31784WAT     H295595   7.103   3.983   4.851
31785WAT      O95596   6.364   4.271   0.462
31785WAT     H195597   6.441   4.263   0.526
31785WAT     H295598   6.314   4.355   0.481
31786WAT      O95599   9.591   4.546   0.022
31786WAT     H195600   9.602   4.639   0.059
31786WAT     H295601   9.544   4.489   0.089
31787WAT      O95602   9.527   4.591   8.046
31787WAT     H195603   9.462   4.665   8.066
31787WAT     H295604   9.554   4.595   7.950
31788WAT      O95605   0.695   9.390   2.389
31788WAT     H195606   0.601   9.358   2.398
31788WAT     H295607   0.701   9.452   2.311
31789WAT      O95608   4.589   5.849   4.771
31789WAT     H195609   4.494   5.872   4.793
31789WAT     H295610   4.635   5.815   4.853
31790WAT      O95611   7.105   4.868   8.278
31790WAT     H195612   7.046   4.873   8.197
31790WAT     H295613   7.191   4.822   8.253
31791WAT      O95614   2.171   2.269   0.840
31791WAT     H195615   2.108   2.285   0.764
31791WAT     H295616   2.265   2.272   0.807
31792WAT      O95617   9.486   2.766   5.360
31792WAT     H195618   9.470   2.669   5.377
31792WAT     H295619   9.439   2.820   5.431
31793WAT      O95620   0.476   1.119   2.400
31793WAT     H195621   0.522   1.056   2.338
31793WAT     H295622   0.379   1.095   2.407
31794WAT      O95623   2.932   1.166   0.127
31794WAT     H195624   2.984   1.251   0.123
31794WAT     H295625   2.951   1.111   0.045
31795WAT      O95626   6.970   4.787   1.116
31795WAT     H195627   7.021   4.852   1.171
31795WAT     H295628   6.891   4.833   1.074
31796WAT      O95629   7.404   8.586   3.278
31796WAT     H195630   7.351   8.646   3.219
31796WAT     H295631   7.393   8.614   3.373
31797WAT      O95632   1.735   2.765   8.607
31797WAT     H195633   1.696   2.759   8.515
31797WAT     H295634   1.784   2.851   8.617
31798WAT      O95635   2.572   4.923   5.015
31798WAT     H195636   2.482   4.902   4.977
31798WAT     H295637   2.605   5.010   4.979
31799WAT      O95638   8.104   9.674   5.718
31799WAT     H195639   8.068   9.733   5.790
31799WAT     H295640   8.200   9.654   5.736
31800WAT      O95641   6.520   8.424   6.109
31800WAT     H195642   6.475   8.446   6.196
31800WAT     H295643   6.467   8.462   6.033
31801WAT      O95644   7.400   5.501   3.283
31801WAT     H195645   7.432   5.572   3.346
31801WAT     H295646   7.302   5.487   3.295
31802WAT      O95647   5.804   3.143   4.460
31802WAT     H195648   5.832   3.223   4.513
31802WAT     H295649   5.708   3.152   4.434
31803WAT      O95650   2.322   0.069   7.570
31803WAT     H195651   2.366  -0.005   7.519
31803WAT     H295652   2.323   0.046   7.668
31804WAT      O95653   9.165   0.955   5.341
31804WAT     H195654   9.185   0.861   5.314
31804WAT     H295655   9.247   0.995   5.383
31805WAT      O95656   5.113   0.708   4.236
31805WAT     H195657   5.033   0.648   4.231
31805WAT     H295658   5.192   0.655   4.269
31806WAT      O95659   3.555   2.203   2.679
31806WAT     H195660   3.654   2.192   2.679
31806WAT     H295661   3.514   2.135   2.618
31807WAT      O95662   4.731   2.033   4.001
31807WAT     H195663   4.772   2.115   4.040
31807WAT     H295664   4.641   2.017   4.043
31808WAT      O95665   3.801   7.907   2.120
31808WAT     H195666   3.894   7.940   2.138
31808WAT     H295667   3.740   7.940   2.192
31809WAT      O95668   6.207   6.949   2.911
31809WAT     H195669   6.190   7.041   2.876
31809WAT     H295670   6.290   6.912   2.869
31810WAT      O95671   6.163   4.334   6.558
31810WAT     H195672   6.192   4.429   6.556
31810WAT     H295673   6.074   4.327   6.603
31811WAT      O95674   0.360   6.674   7.678
31811WAT     H195675   0.317   6.642   7.762
31811WAT     H295676   0.314   6.757   7.646
31812WAT      O95677   3.496   3.842   7.787
31812WAT     H195678   3.519   3.753   7.825
31812WAT     H295679   3.400   3.863   7.804
31813WAT      O95680   6.304   3.122   4.505
31813WAT     H195681   6.354   3.040   4.477
31813WAT     H295682   6.211   3.097   4.529
31814WAT      O95683   3.629   4.782   2.433
31814WAT     H195684   3.658   4.780   2.529
31814WAT     H295685   3.685   4.719   2.380
31815WAT      O95686   2.290   3.347   7.775
31815WAT     H195687   2.348   3.414   7.729
31815WAT     H295688   2.317   3.254   7.747
31816WAT      O95689   4.687   2.747   4.748
31816WAT     H195690   4.704   2.811   4.823
31816WAT     H295691   4.667   2.798   4.664
31817WAT      O95692   4.298   8.672   8.604
31817WAT     H195693   4.336   8.705   8.518
31817WAT     H295694   4.198   8.671   8.598
31818WAT      O95695   6.292   1.287   2.005
31818WAT     H195696   6.219   1.353   1.985
31818WAT     H295697   6.253   1.195   2.008
31819WAT      O95698   7.942   2.799   6.850
31819WAT     H195699   7.849   2.786   6.814
31819WAT     H295700   8.008   2.790   6.776
31820WAT      O95701   5.659   2.157   0.402
31820WAT     H195702   5.592   2.083   0.412
31820WAT     H295703   5.633   2.233   0.462
31821WAT      O95704   0.872   1.490   5.715
31821WAT     H195705   0.779   1.523   5.701
31821WAT     H295706   0.934   1.568   5.726
31822WAT      O95707   1.591   1.272   4.824
31822WAT     H195708   1.536   1.232   4.752
31822WAT     H295709   1.531   1.313   4.893
31823WAT      O95710   0.108   9.464   7.483
31823WAT     H195711   0.020   9.507   7.462
31823WAT     H295712   0.147   9.505   7.565
31824WAT      O95713   8.427   5.600   0.665
31824WAT     H195714   8.353   5.575   0.603
31824WAT     H295715   8.474   5.517   0.696
31825WAT      O95716   9.546   9.030   5.935
31825WAT     H195717   9.477   8.961   5.911
31825WAT     H295718   9.537   9.054   6.032
31826WAT      O95719   5.059   2.098   4.158
31826WAT     H195720   5.061   2.127   4.253
31826WAT     H295721   5.041   1.999   4.154
31827WAT      O95722   3.586   5.224   7.480
31827WAT     H195723   3.564   5.319   7.504
31827WAT     H295724   3.510   5.184   7.429
31828WAT      O95725   0.695   2.691   6.234
31828WAT     H195726   0.747   2.675   6.318
31828WAT     H295727   0.700   2.788   6.210
31829WAT      O95728   0.761   0.021   0.557
31829WAT     H195729   0.783   0.118   0.567
31829WAT     H295730   0.716  -0.012   0.640
31830WAT      O95731   6.808   8.590   5.526
31830WAT     H195732   6.814   8.688   5.546
31830WAT     H295733   6.876   8.541   5.582
31831WAT      O95734   3.343   5.727   9.243
31831WAT     H195735   3.251   5.693   9.223
31831WAT     H295736   3.405   5.650   9.254
31832WAT      O95737   0.812   6.857   4.522
31832WAT     H195738   0.764   6.907   4.450
31832WAT     H295739   0.908   6.883   4.522
31833WAT      O95740   0.075   2.782   9.256
31833WAT     H195741  -0.010   2.774   9.309
31833WAT     H295742   0.143   2.719   9.294
31834WAT      O95743   5.311   0.385   4.644
31834WAT     H195744   5.315   0.389   4.744
31834WAT     H295745   5.333   0.475   4.607
31835WAT      O95746   5.546   9.571   7.700
31835WAT     H195747   5.557   9.561   7.799
31835WAT     H295748   5.451   9.550   7.675
31836WAT      O95749   9.687   7.299   0.168
31836WAT     H195750   9.686   7.199   0.167
31836WAT     H295751   9.749   7.333   0.098
31837WAT      O95752   4.896   2.659   8.521
31837WAT     H195753   4.904   2.755   8.494
31837WAT     H295754   4.818   2.617   8.474
31838WAT      O95755   3.751   3.255   1.615
31838WAT     H195756   3.763   3.160   1.586
31838WAT     H295757   3.732   3.257   1.714
31839WAT      O95758   0.335   1.669   3.396
31839WAT     H195759   0.274   1.745   3.371
31839WAT     H295760   0.317   1.643   3.490
31840WAT      O95761   2.403   2.134   0.997
31840WAT     H195762   2.303   2.132   0.992
31840WAT     H295763   2.441   2.100   0.911
31841WAT      O95764   8.435   6.990   3.440
31841WAT     H195765   8.450   7.006   3.537
31841WAT     H295766   8.352   7.038   3.410
31842WAT      O95767   2.816   7.125   6.578
31842WAT     H195768   2.898   7.150   6.526
31842WAT     H295769   2.835   7.044   6.634
31843WAT      O95770   9.346   3.922   4.113
31843WAT     H195771   9.268   3.859   4.119
31843WAT     H295772   9.358   3.967   4.202
31844WAT      O95773   0.862   0.505   5.532
31844WAT     H195774   0.801   0.583   5.542
31844WAT     H295775   0.830   0.446   5.458
31845WAT      O95776   7.012   0.662   7.410
31845WAT     H195777   7.062   0.709   7.482
31845WAT     H295778   7.031   0.564   7.413
31846WAT      O95779   7.827   9.643   7.457
31846WAT     H195780   7.902   9.609   7.401
31846WAT     H295781   7.742   9.597   7.431
31847WAT      O95782   2.844   1.426   1.048
31847WAT     H195783   2.876   1.380   0.966
31847WAT     H295784   2.775   1.494   1.023
31848WAT      O95785   8.402   9.462   6.779
31848WAT     H195786   8.464   9.390   6.746
31848WAT     H295787   8.317   9.459   6.727
31849WAT      O95788   3.078   3.400   8.506
31849WAT     H195789   3.106   3.332   8.438
31849WAT     H295790   3.091   3.362   8.598
31850WAT      O95791   9.528   4.497   6.539
31850WAT     H195792   9.562   4.587   6.512
31850WAT     H295793   9.441   4.479   6.492
31851WAT      O95794   4.375   0.224   3.482
31851WAT     H195795   4.398   0.320   3.499
31851WAT     H295796   4.390   0.171   3.565
31852WAT      O95797   9.783   2.538   8.591
31852WAT     H195798   9.766   2.447   8.628
31852WAT     H295799   9.741   2.546   8.501
31853WAT      O95800   2.392   7.937   2.860
31853WAT     H195801   2.486   7.952   2.892
31853WAT     H295802   2.390   7.939   2.760
31854WAT      O95803   5.327   4.746   3.633
31854WAT     H195804   5.349   4.843   3.646
31854WAT     H295805   5.411   4.695   3.614
31855WAT      O95806   3.056   1.371   6.298
31855WAT     H195807   2.959   1.345   6.296
31855WAT     H295808   3.087   1.375   6.393
31856WAT      O95809   0.243   7.522   4.246
31856WAT     H195810   0.229   7.621   4.245
31856WAT     H295811   0.168   7.479   4.296
31857WAT      O95812   6.847   2.225   5.468
31857WAT     H195813   6.747   2.220   5.470
31857WAT     H295814   6.880   2.190   5.380
31858WAT      O95815   2.425   8.331   5.826
31858WAT     H195816   2.339   8.280   5.824
31858WAT     H295817   2.437   8.379   5.739
31859WAT      O95818   0.699   1.186   5.853
31859WAT     H195819   0.750   1.100   5.855
31859WAT     H295820   0.686   1.214   5.758
31860WAT      O95821   4.455   3.464   7.220
31860WAT     H195822   4.532   3.507   7.172
31860WAT     H295823   4.390   3.535   7.249
31861WAT      O95824   3.500   4.094   0.778
31861WAT     H195825   3.507   4.191   0.754
31861WAT     H295826   3.516   4.038   0.696
31862WAT      O95827   8.936   3.308   3.002
31862WAT     H195828   8.980   3.300   3.091
31862WAT     H295829   8.837   3.318   3.014
31863WAT      O95830   8.718   1.206   5.393
31863WAT     H195831   8.816   1.220   5.387
31863WAT     H295832   8.682   1.183   5.303
31864WAT      O95833   6.140   7.877   6.380
31864WAT     H195834   6.050   7.911   6.355
31864WAT     H295835   6.185   7.942   6.441
31865WAT      O95836   9.221   4.720   6.131
31865WAT     H195837   9.306   4.774   6.130
31865WAT     H295838   9.155   4.762   6.193
31866WAT      O95839   0.051   1.498   3.767
31866WAT     H195840   0.084   1.568   3.830
31866WAT     H295841   0.086   1.409   3.794
31867WAT      O95842   8.902   3.677   1.859
31867WAT     H195843   8.974   3.684   1.928
31867WAT     H295844   8.821   3.727   1.888
31868WAT      O95845   2.007   0.773   7.074
31868WAT     H195846   1.935   0.729   7.021
31868WAT     H295847   2.094   0.764   7.025
31869WAT      O95848   9.237   1.966   5.517
31869WAT     H195849   9.188   2.044   5.479
31869WAT     H295850   9.292   1.995   5.595
31870WAT      O95851   6.369   1.084   8.537
31870WAT     H195852   6.461   1.045   8.544
31870WAT     H295853   6.372   1.181   8.560
31871WAT      O95854   0.959   6.152   9.419
31871WAT     H195855   0.873   6.196   9.445
31871WAT     H295856   1.018   6.143   9.499
31872WAT      O95857   3.484   7.841   0.333
31872WAT     H195858   3.523   7.925   0.370
31872WAT     H295859   3.407   7.812   0.391
31873WAT      O95860   8.565   3.272   4.252
31873WAT     H195861   8.629   3.239   4.182
31873WAT     H295862   8.502   3.198   4.276
31874WAT      O95863   2.046   0.229   8.803
31874WAT     H195864   2.124   0.254   8.745
31874WAT     H295865   1.983   0.306   8.810
31875WAT      O95866   2.337   4.889   4.867
31875WAT     H195867   2.403   4.891   4.791
31875WAT     H295868   2.264   4.955   4.848
31876WAT      O95869   2.662   9.065   3.363
31876WAT     H195870   2.657   9.079   3.462
31876WAT     H295871   2.744   9.110   3.327
31877WAT      O95872   3.376   4.306   2.775
31877WAT     H195873   3.431   4.350   2.704
31877WAT     H295874   3.331   4.377   2.830
31878WAT      O95875   9.751   6.371   4.650
31878WAT     H195876   9.801   6.358   4.565
31878WAT     H295877   9.665   6.420   4.632
31879WAT      O95878   8.280   5.514   6.665
31879WAT     H195879   8.292   5.416   6.649
31879WAT     H295880   8.289   5.534   6.763
31880WAT      O95881   1.891   7.372   9.736
31880WAT     H195882   1.877   7.292   9.794
31880WAT     H295883   1.818   7.438   9.752
31881WAT      O95884   3.339   8.791   7.126
31881WAT     H195885   3.310   8.802   7.031
31881WAT     H295886   3.381   8.876   7.157
31882WAT      O95887   1.100   1.955   8.530
31882WAT     H195888   1.193   1.921   8.523
31882WAT     H295889   1.078   1.975   8.625
31883WAT      O95890   2.247   6.826   7.312
31883WAT     H195891   2.242   6.866   7.221
31883WAT     H295892   2.343   6.820   7.341
31884WAT      O95893   2.469   3.982   5.995
31884WAT     H195894   2.462   3.893   5.950
31884WAT     H295895   2.377   4.017   6.014
31885WAT      O95896   9.636   5.189   3.390
31885WAT     H195897   9.616   5.278   3.348
31885WAT     H295898   9.674   5.204   3.481
31886WAT      O95899   6.306   6.295   5.893
31886WAT     H195900   6.296   6.271   5.796
31886WAT     H295901   6.221   6.272   5.941
31887WAT      O95902   0.139   2.261   7.205
31887WAT     H195903   0.173   2.194   7.139
31887WAT     H295904   0.110   2.344   7.157
31888WAT      O95905   0.131   0.929   2.998
31888WAT     H195906   0.219   0.883   3.009
31888WAT     H295907   0.080   0.888   2.923
31889WAT      O95908   5.263   9.116   5.351
31889WAT     H195909   5.206   9.194   5.327
31889WAT     H295910   5.295   9.125   5.446
31890WAT      O95911   0.833   5.942   2.051
31890WAT     H195912   0.919   5.946   2.000
31890WAT     H295913   0.826   5.854   2.097
31891WAT      O95914   3.664   7.592   2.422
31891WAT     H195915   3.652   7.522   2.492
31891WAT     H295916   3.575   7.628   2.396
31892WAT      O95917   4.965   3.697   8.324
31892WAT     H195918   4.888   3.760   8.333
31892WAT     H295919   5.032   3.717   8.396
31893WAT      O95920   1.836   0.662   1.925
31893WAT     H195921   1.831   0.587   1.858
31893WAT     H295922   1.774   0.643   2.001
31894WAT      O95923   2.075   8.825   9.520
31894WAT     H195924   2.115   8.746   9.565
31894WAT     H295925   2.084   8.817   9.421
31895WAT      O95926   4.147   3.156   8.755
31895WAT     H195927   4.230   3.103   8.776
31895WAT     H295928   4.156   3.196   8.664
31896WAT      O95929   7.334   7.426   9.796
31896WAT     H195930   7.400   7.357   9.827
31896WAT     H295931   7.246   7.412   9.843
31897WAT      O95932   0.461   0.975   6.122
31897WAT     H195933   0.401   1.030   6.180
31897WAT     H295934   0.409   0.944   6.041
31898WAT      O95935   1.532   6.768   8.770
31898WAT     H195936   1.463   6.696   8.777
31898WAT     H295937   1.621   6.732   8.798
31899WAT      O95938   0.437   9.739   4.280
31899WAT     H195939   0.391   9.803   4.342
31899WAT     H295940   0.533   9.765   4.270
   9.88928    9.84380    9.89279 
